                               Psi4 1.3.2 release

  ==> Input File <==

--------------------------------------------------------------------------
#psi4
#
memory 32 gb

molecule  {
0 1
  O       -1.2481010    -0.6526680     1.0325150
  O       -1.2449750     2.4828510    -0.6861630
  O       -3.2165300     1.5210990     0.7448870
  O       -2.3570290    -3.0668370     0.0949400
  O        1.3605300     2.2470340    -0.0765420
  N        0.8434040     0.0452230     0.2559430
  N        3.0572260     0.7205030    -0.2937270
  N        4.7164630    -0.8366550    -0.5722980
  C       -1.2894840     1.0784300    -0.5920770
  C       -2.7151710     0.6552070    -0.2573930
  C       -0.5254080     0.4815200     0.6000940
  C       -2.5292560    -0.7168860     0.3610560
  C       -2.5283440    -1.8503930    -0.6392900
  C        1.2197750    -1.2614080     0.3112740
  C        1.7555940     1.0674350    -0.0594030
  C        2.5111010    -1.6091400     0.0469950
  C        3.4119830    -0.5506530    -0.2589250
  H       -0.9376060     0.5914040    -1.5148910
  H       -3.3625820     0.6426650    -1.1464650
  H       -0.4402900     1.2218800     1.4039980
  H       -3.2819570    -0.9087340     1.1307830
  H       -1.7133080    -1.7003050    -1.3694640
  H       -3.4855610    -1.8340040    -1.1841350
  H       -0.2975250     2.7131790    -0.5250000
  H       -2.8475560     2.3997430     0.5086630
  H        0.4343110    -1.9634370     0.5690680
  H       -2.4338740    -3.7984320    -0.5432330
  H        2.8291120    -2.6453980     0.0739220
  H        5.1102135    -1.6797007    -0.1658639
  H        5.3069894    -0.0107319    -0.5762090
units angstrom
no_reorient  #important for SAPT in psi4, default
symmetry c1  #important for SAPT in psi4, default
}

set PROPERTIES_ORIGIN ["COM"]
properties('MP2/aug-cc-pvtz', properties = ['dipole'])
--------------------------------------------------------------------------

    Molecular point group: c1
  Charge       = 0
  Multiplicity = 1
  Basis Set: AUG-CC-PVTZ
    Blend: AUG-CC-PVTZ
  Basis Set: (AUG-CC-PVTZ AUX)
    Blend: AUG-CC-PVTZ-JKFIT

    Orbital Energies [Eh]
    ---------------------

    Doubly Occupied:

       1A    -20.582256     2A    -20.581603     3A    -20.557783
       4A    -20.557234     5A    -20.521977     6A    -15.636869
       7A    -15.599974     8A    -15.553243     9A    -11.388254
      10A    -11.357438    11A    -11.341547    12A    -11.328542
      13A    -11.301191    14A    -11.296926    15A    -11.296639
      16A    -11.292960    17A    -11.248536    18A     -1.429353
      19A     -1.396377    20A     -1.380115    21A     -1.372818
      22A     -1.346297    23A     -1.306170    24A     -1.273950
      25A     -1.182186    26A     -1.081954    27A     -1.067732
      28A     -1.021304    29A     -0.935237    30A     -0.909523
      31A     -0.876885    32A     -0.832127    33A     -0.811888
      34A     -0.767865    35A     -0.752387    36A     -0.736173
      37A     -0.719149    38A     -0.702760    39A     -0.698424
      40A     -0.687329    41A     -0.672721    42A     -0.654659
      43A     -0.651538    44A     -0.638525    45A     -0.620808
      46A     -0.614495    47A     -0.606659    48A     -0.593811
      49A     -0.575760    50A     -0.569754    51A     -0.554010
      52A     -0.545693    53A     -0.537531    54A     -0.531805
      55A     -0.498092    56A     -0.477507    57A     -0.474440
      58A     -0.462180    59A     -0.460046    60A     -0.452833
      61A     -0.440693    62A     -0.433107    63A     -0.394980
      64A     -0.350044

  @DF-RHF Final Energy:  -886.37339692073931

   => Energetics <=

    Nuclear Repulsion Energy =           1323.7717615422377548
    One-Electron Energy =               -3845.2049845712485876
    Two-Electron Energy =                1635.0598261082716363
    Total Energy =                       -886.3733969207394239
  Basis Set: (AUG-CC-PVTZ AUX)
    Blend: AUG-CC-PVTZ-RI
    Molecular point group: c1

    Geometry (in Angstrom), charge = 0, multiplicity = 1:

       Center              X                  Y                   Z               Mass
    ------------   -----------------  -----------------  -----------------  -----------------
         O           -1.247985812897    -0.652669989877     1.032562126004    15.994914619570
         O           -1.244859812897     2.482849010123    -0.686115873996    15.994914619570
         O           -3.216414812897     1.521097010123     0.744934126004    15.994914619570
         O           -2.356913812897    -3.066838989877     0.094987126004    15.994914619570
         O            1.360645187103     2.247032010123    -0.076494873996    15.994914619570
         N            0.843519187103     0.045221010123     0.255990126004    14.003074004430
         N            3.057341187103     0.720501010123    -0.293679873996    14.003074004430
         N            4.716578187103    -0.836656989877    -0.572250873996    14.003074004430
         C           -1.289368812897     1.078428010123    -0.592029873996    12.000000000000
         C           -2.715055812897     0.655205010123    -0.257345873996    12.000000000000
         C           -0.525292812897     0.481518010123     0.600141126004    12.000000000000
         C           -2.529140812897    -0.716887989877     0.361103126004    12.000000000000
         C           -2.528228812897    -1.850394989877    -0.639242873996    12.000000000000
         C            1.219890187103    -1.261409989877     0.311321126004    12.000000000000
         C            1.755709187103     1.067433010123    -0.059355873996    12.000000000000
         C            2.511216187103    -1.609141989877     0.047042126004    12.000000000000
         C            3.412098187103    -0.550654989877    -0.258877873996    12.000000000000
         H           -0.937490812897     0.591402010123    -1.514843873996     1.007825032230
         H           -3.362466812897     0.642663010123    -1.146417873996     1.007825032230
         H           -0.440174812897     1.221878010123     1.404045126004     1.007825032230
         H           -3.281841812897    -0.908735989877     1.130830126004     1.007825032230
         H           -1.713192812897    -1.700306989877    -1.369416873996     1.007825032230
         H           -3.485445812897    -1.834005989877    -1.184087873996     1.007825032230
         H           -0.297409812897     2.713177010123    -0.524952873996     1.007825032230
         H           -2.847440812897     2.399741010123     0.508710126004     1.007825032230
         H            0.434426187103    -1.963438989877     0.569115126004     1.007825032230
         H           -2.433758812897    -3.798433989877    -0.543185873996     1.007825032230
         H            2.829227187103    -2.645399989877     0.073969126004     1.007825032230
         H            5.110328687103    -1.679702689877    -0.165816773996     1.007825032230
         H            5.307104587103    -0.010733889877    -0.576161873996     1.007825032230

  Basis Set: AUG-CC-PVTZ
    Blend: AUG-CC-PVTZ
  Basis Set: (AUG-CC-PVTZ AUX)
    Blend: AUG-CC-PVTZ-JKFIT
	 Reference Energy          =    -886.3733969207393102 [Eh]
	 Singles Energy            =      -0.0000000000000000 [Eh]
	 Same-Spin Energy          =      -0.9012679492894365 [Eh]
	 Opposite-Spin Energy      =      -2.7149582528363991 [Eh]
	 Correlation Energy        =      -3.6162262021258358 [Eh]
	 Total Energy              =    -889.9896231228651686 [Eh]

	 ================> DF-SCS-MP2 Energies <==================
	-----------------------------------------------------------
	 SCS Same-Spin Scale       =       0.3333333333333333 [-]
	 SCS Opposite-Spin Scale   =       1.2000000000000000 [-]
	 SCS Same-Spin Energy      =      -0.3004226497631455 [Eh]
	 SCS Opposite-Spin Energy  =      -3.2579499034036790 [Eh]
	 SCS Correlation Energy    =      -3.5583725531668247 [Eh]
	 SCS Total Energy          =    -889.9317694739061153 [Eh]
	-----------------------------------------------------------

  Dipole Moment: [D]
     X:     1.7001      Y:    -5.9556      Z:    -1.8414     Total:     6.4615

*** Psi4 exiting successfully. Buy a developer a beer!
