                               Psi4 1.3.2 release

  ==> Input File <==

--------------------------------------------------------------------------
#psi4
#
memory 32 gb

molecule  {
0 1
  O       -1.2481010    -0.6526680     1.0325150
  O       -1.2449750     2.4828510    -0.6861630
  O       -3.2165300     1.5210990     0.7448870
  O       -2.3570290    -3.0668370     0.0949400
  O        1.3605300     2.2470340    -0.0765420
  N        0.8434040     0.0452230     0.2559430
  N        3.0572260     0.7205030    -0.2937270
  N        4.7164630    -0.8366550    -0.5722980
  C       -1.2894840     1.0784300    -0.5920770
  C       -2.6919243     0.6937449    -0.2778393
  C       -0.5254080     0.4815200     0.6000940
  C       -2.5292560    -0.7168860     0.3610560
  C       -2.5283440    -1.8503930    -0.6392900
  C        1.2197750    -1.2614080     0.3112740
  C        1.7555940     1.0674350    -0.0594030
  C        2.5111010    -1.6091400     0.0469950
  C        3.4119830    -0.5506530    -0.2589250
  H       -0.9376060     0.5914040    -1.5148910
  H       -3.3625820     0.6426650    -1.1464650
  H       -0.4402900     1.2218800     1.4039980
  H       -3.2819570    -0.9087340     1.1307830
  H       -1.7133080    -1.7003050    -1.3694640
  H       -3.4855610    -1.8340040    -1.1841350
  H       -0.2975250     2.7131790    -0.5250000
  H       -2.8320354     2.3853160     0.4817296
  H        0.4343110    -1.9634370     0.5690680
  H       -2.4338740    -3.7984320    -0.5432330
  H        2.8291120    -2.6453980     0.0739220
  H        5.1251800    -1.6708610    -0.1624140
  H        5.3198140    -0.0200540    -0.5682940
units angstrom
no_reorient  #important for SAPT in psi4, default
symmetry c1  #important for SAPT in psi4, default
}

set PROPERTIES_ORIGIN ["COM"]
properties('MP2/aug-cc-pvtz', properties = ['dipole'])
--------------------------------------------------------------------------

    Molecular point group: c1
  Charge       = 0
  Multiplicity = 1
  Basis Set: AUG-CC-PVTZ
    Blend: AUG-CC-PVTZ
  Basis Set: (AUG-CC-PVTZ AUX)
    Blend: AUG-CC-PVTZ-JKFIT

    Orbital Energies [Eh]
    ---------------------

    Doubly Occupied:

       1A    -20.581637     2A    -20.581158     3A    -20.559182
       4A    -20.558272     5A    -20.522528     6A    -15.637409
       7A    -15.600151     8A    -15.553705     9A    -11.388735
      10A    -11.358219    11A    -11.342436    12A    -11.328857
      13A    -11.300068    14A    -11.297241    15A    -11.296155
      16A    -11.292566    17A    -11.248895    18A     -1.429422
      19A     -1.396628    20A     -1.382644    21A     -1.372702
      22A     -1.347861    23A     -1.306448    24A     -1.274118
      25A     -1.182583    26A     -1.082557    27A     -1.064730
      28A     -1.024071    29A     -0.936375    30A     -0.909461
      31A     -0.875649    32A     -0.831424    33A     -0.812032
      34A     -0.767283    35A     -0.753109    36A     -0.739061
      37A     -0.720274    38A     -0.701767    39A     -0.697619
      40A     -0.685862    41A     -0.670717    42A     -0.654951
      43A     -0.652200    44A     -0.638820    45A     -0.621248
      46A     -0.614430    47A     -0.606544    48A     -0.594297
      49A     -0.577618    50A     -0.570221    51A     -0.552456
      52A     -0.546322    53A     -0.538169    54A     -0.531880
      55A     -0.498612    56A     -0.477428    57A     -0.475031
      58A     -0.462822    59A     -0.460023    60A     -0.453365
      61A     -0.440962    62A     -0.433358    63A     -0.395684
      64A     -0.350596

  @DF-RHF Final Energy:  -886.37001424412665

   => Energetics <=

    Nuclear Repulsion Energy =           1323.9508588185458393
    One-Electron Energy =               -3845.5244567135055149
    Two-Electron Energy =                1635.2035836508330249
    Total Energy =                       -886.3700142441266507
  Basis Set: (AUG-CC-PVTZ AUX)
    Blend: AUG-CC-PVTZ-RI
    Molecular point group: c1

    Geometry (in Angstrom), charge = 0, multiplicity = 1:

       Center              X                  Y                   Z               Mass
    ------------   -----------------  -----------------  -----------------  -----------------
         O           -1.249312963172    -0.654510612603     1.033636011126    15.994914619570
         O           -1.246186963172     2.481008387397    -0.685041988874    15.994914619570
         O           -3.217741963172     1.519256387397     0.746008011126    15.994914619570
         O           -2.358240963172    -3.068679612603     0.096061011126    15.994914619570
         O            1.359318036828     2.245191387397    -0.075420988874    15.994914619570
         N            0.842192036828     0.043380387397     0.257064011126    14.003074004430
         N            3.056014036828     0.718660387397    -0.292605988874    14.003074004430
         N            4.715251036828    -0.838497612603    -0.571176988874    14.003074004430
         C           -1.290695963172     1.076587387397    -0.590955988874    12.000000000000
         C           -2.693136263172     0.691902287397    -0.276718288874    12.000000000000
         C           -0.526619963172     0.479677387397     0.601215011126    12.000000000000
         C           -2.530467963172    -0.718728612603     0.362177011126    12.000000000000
         C           -2.529555963172    -1.852235612603    -0.638168988874    12.000000000000
         C            1.218563036828    -1.263250612603     0.312395011126    12.000000000000
         C            1.754382036828     1.065592387397    -0.058281988874    12.000000000000
         C            2.509889036828    -1.610982612603     0.048116011126    12.000000000000
         C            3.410771036828    -0.552495612603    -0.257803988874    12.000000000000
         H           -0.938817963172     0.589561387397    -1.513769988874     1.007825032230
         H           -3.363793963172     0.640822387397    -1.145343988874     1.007825032230
         H           -0.441501963172     1.220037387397     1.405119011126     1.007825032230
         H           -3.283168963172    -0.910576612603     1.131904011126     1.007825032230
         H           -1.714519963172    -1.702147612603    -1.368342988874     1.007825032230
         H           -3.486772963172    -1.835846612603    -1.183013988874     1.007825032230
         H           -0.298736963172     2.711336387397    -0.523878988874     1.007825032230
         H           -2.833247363172     2.383473387397     0.482850611126     1.007825032230
         H            0.433099036828    -1.965279612603     0.570189011126     1.007825032230
         H           -2.435085963172    -3.800274612603    -0.542111988874     1.007825032230
         H            2.827900036828    -2.647240612603     0.075043011126     1.007825032230
         H            5.123968036828    -1.672703612603    -0.161292988874     1.007825032230
         H            5.318602036828    -0.021896612603    -0.567172988874     1.007825032230

  Basis Set: AUG-CC-PVTZ
    Blend: AUG-CC-PVTZ
  Basis Set: (AUG-CC-PVTZ AUX)
    Blend: AUG-CC-PVTZ-JKFIT
	 Reference Energy          =    -886.3700142441266507 [Eh]
	 Singles Energy            =      -0.0000000000000000 [Eh]
	 Same-Spin Energy          =      -0.9014822789940504 [Eh]
	 Opposite-Spin Energy      =      -2.7154836511679421 [Eh]
	 Correlation Energy        =      -3.6169659301619923 [Eh]
	 Total Energy              =    -889.9869801742886466 [Eh]

	 ================> DF-SCS-MP2 Energies <==================
	-----------------------------------------------------------
	 SCS Same-Spin Scale       =       0.3333333333333333 [-]
	 SCS Opposite-Spin Scale   =       1.2000000000000000 [-]
	 SCS Same-Spin Energy      =      -0.3004940929980168 [Eh]
	 SCS Opposite-Spin Energy  =      -3.2585803814015306 [Eh]
	 SCS Correlation Energy    =      -3.5590744743995475 [Eh]
	 SCS Total Energy          =    -889.9290887185261454 [Eh]
	-----------------------------------------------------------

  Dipole Moment: [D]
     X:     1.7835      Y:    -5.9443      Z:    -1.8526     Total:     6.4767

*** Psi4 exiting successfully. Buy a developer a beer!
