                               Psi4 1.3.2 release

  ==> Input File <==

--------------------------------------------------------------------------
#psi4
#
memory 32 gb

molecule  {
0 1
  O       -1.2481010    -0.6526680     1.0325150
  O       -1.2449750     2.4828510    -0.6861630
  O       -3.2165300     1.5210990     0.7448870
  O       -2.3570290    -3.0668370     0.0949400
  O        1.3605300     2.2470340    -0.0765420
  N        0.8434040     0.0452230     0.2559430
  N        3.0572260     0.7205030    -0.2937270
  N        4.7164630    -0.8366550    -0.5722980
  C       -1.2894840     1.0784300    -0.5920770
  C       -2.7151710     0.6552070    -0.2573930
  C       -0.5254080     0.4815200     0.6000940
  C       -2.5292560    -0.7168860     0.3610560
  C       -2.5283440    -1.8503930    -0.6392900
  C        1.2197750    -1.2614080     0.3112740
  C        1.7555940     1.0674350    -0.0594030
  C        2.6058293    -1.6346487     0.0276082
  C        3.4119830    -0.5506530    -0.2589250
  H       -0.9376060     0.5914040    -1.5148910
  H       -3.3625820     0.6426650    -1.1464650
  H       -0.4402900     1.2218800     1.4039980
  H       -3.2819570    -0.9087340     1.1307830
  H       -1.7133080    -1.7003050    -1.3694640
  H       -3.4855610    -1.8340040    -1.1841350
  H       -0.2975250     2.7131790    -0.5250000
  H       -2.8475560     2.3997430     0.5086630
  H        0.4343110    -1.9634370     0.5690680
  H       -2.4338740    -3.7984320    -0.5432330
  H        2.8291120    -2.6453980     0.0739220
  H        5.1251800    -1.6708610    -0.1624140
  H        5.3198140    -0.0200540    -0.5682940
units angstrom
no_reorient  #important for SAPT in psi4, default
symmetry c1  #important for SAPT in psi4, default
}

set PROPERTIES_ORIGIN ["COM"]
properties('MP2/aug-cc-pvtz', properties = ['dipole'])
--------------------------------------------------------------------------

    Molecular point group: c1
  Charge       = 0
  Multiplicity = 1
  Basis Set: AUG-CC-PVTZ
    Blend: AUG-CC-PVTZ
  Basis Set: (AUG-CC-PVTZ AUX)
    Blend: AUG-CC-PVTZ-JKFIT

    Orbital Energies [Eh]
    ---------------------

    Doubly Occupied:

       1A    -20.585098     2A    -20.584247     3A    -20.559913
       4A    -20.559415     5A    -20.522720     6A    -15.647896
       7A    -15.590072     8A    -15.550557     9A    -11.389061
      10A    -11.348936    11A    -11.347969    12A    -11.345857
      13A    -11.303349    14A    -11.299846    15A    -11.299464
      16A    -11.295458    17A    -11.248341    18A     -1.432755
      19A     -1.397950    20A     -1.382372    21A     -1.375070
      22A     -1.348438    23A     -1.305232    24A     -1.274629
      25A     -1.178686    26A     -1.071877    27A     -1.070338
      28A     -1.024332    29A     -0.939426    30A     -0.917362
      31A     -0.874767    32A     -0.833313    33A     -0.813887
      34A     -0.763458    35A     -0.755901    36A     -0.739292
      37A     -0.718404    38A     -0.704591    39A     -0.701059
      40A     -0.685226    41A     -0.675977    42A     -0.661887
      43A     -0.655936    44A     -0.642393    45A     -0.621811
      46A     -0.614778    47A     -0.605462    48A     -0.589035
      49A     -0.575511    50A     -0.570238    51A     -0.554537
      52A     -0.547139    53A     -0.540074    54A     -0.532751
      55A     -0.496951    56A     -0.479569    57A     -0.476324
      58A     -0.465079    59A     -0.461454    60A     -0.455253
      61A     -0.440901    62A     -0.434595    63A     -0.393657
      64A     -0.342446

  @DF-RHF Final Energy:  -886.35773054749177

   => Energetics <=

    Nuclear Repulsion Energy =           1322.2519263409228643
    One-Electron Energy =               -3841.9786732334896442
    Two-Electron Energy =                1633.3690163450746695
    Total Energy =                       -886.3577305474918830
  Basis Set: (AUG-CC-PVTZ AUX)
    Blend: AUG-CC-PVTZ-RI
    Molecular point group: c1

    Geometry (in Angstrom), charge = 0, multiplicity = 1:

       Center              X                  Y                   Z               Mass
    ------------   -----------------  -----------------  -----------------  -----------------
         O           -1.252777328919    -0.651408744147     1.033472043504    15.994914619570
         O           -1.249651328919     2.484110255853    -0.685205956496    15.994914619570
         O           -3.221206328919     1.522358255853     0.745844043504    15.994914619570
         O           -2.361705328919    -3.065577744147     0.095897043504    15.994914619570
         O            1.355853671081     2.248293255853    -0.075584956496    15.994914619570
         N            0.838727671081     0.046482255853     0.256900043504    14.003074004430
         N            3.052549671081     0.721762255853    -0.292769956496    14.003074004430
         N            4.711786671081    -0.835395744147    -0.571340956496    14.003074004430
         C           -1.294160328919     1.079689255853    -0.591119956496    12.000000000000
         C           -2.719847328919     0.656466255853    -0.256435956496    12.000000000000
         C           -0.530084328919     0.482779255853     0.601051043504    12.000000000000
         C           -2.533932328919    -0.715626744147     0.362013043504    12.000000000000
         C           -2.533020328919    -1.849133744147    -0.638332956496    12.000000000000
         C            1.215098671081    -1.260148744147     0.312231043504    12.000000000000
         C            1.750917671081     1.068694255853    -0.058445956496    12.000000000000
         C            2.601152971081    -1.633389444147     0.028565243504    12.000000000000
         C            3.407306671081    -0.549393744147    -0.257967956496    12.000000000000
         H           -0.942282328919     0.592663255853    -1.513933956496     1.007825032230
         H           -3.367258328919     0.643924255853    -1.145507956496     1.007825032230
         H           -0.444966328919     1.223139255853     1.404955043504     1.007825032230
         H           -3.286633328919    -0.907474744147     1.131740043504     1.007825032230
         H           -1.717984328919    -1.699045744147    -1.368506956496     1.007825032230
         H           -3.490237328919    -1.832744744147    -1.183177956496     1.007825032230
         H           -0.302201328919     2.714438255853    -0.524042956496     1.007825032230
         H           -2.852232328919     2.401002255853     0.509620043504     1.007825032230
         H            0.429634671081    -1.962177744147     0.570025043504     1.007825032230
         H           -2.438550328919    -3.797172744147    -0.542275956496     1.007825032230
         H            2.824435671081    -2.644138744147     0.074879043504     1.007825032230
         H            5.120503671081    -1.669601744147    -0.161456956496     1.007825032230
         H            5.315137671081    -0.018794744147    -0.567336956496     1.007825032230

  Basis Set: AUG-CC-PVTZ
    Blend: AUG-CC-PVTZ
  Basis Set: (AUG-CC-PVTZ AUX)
    Blend: AUG-CC-PVTZ-JKFIT
	 Reference Energy          =    -886.3577305474917694 [Eh]
	 Singles Energy            =      -0.0000000000000000 [Eh]
	 Same-Spin Energy          =      -0.9024475624551682 [Eh]
	 Opposite-Spin Energy      =      -2.7166746035458393 [Eh]
	 Correlation Energy        =      -3.6191221660010076 [Eh]
	 Total Energy              =    -889.9768527134928036 [Eh]

	 ================> DF-SCS-MP2 Energies <==================
	-----------------------------------------------------------
	 SCS Same-Spin Scale       =       0.3333333333333333 [-]
	 SCS Opposite-Spin Scale   =       1.2000000000000000 [-]
	 SCS Same-Spin Energy      =      -0.3008158541517227 [Eh]
	 SCS Opposite-Spin Energy  =      -3.2600095242550071 [Eh]
	 SCS Correlation Energy    =      -3.5608253784067299 [Eh]
	 SCS Total Energy          =    -889.9185559258985450 [Eh]
	-----------------------------------------------------------

  Dipole Moment: [D]
     X:     1.3081      Y:    -5.9291      Z:    -1.7567     Total:     6.3207

*** Psi4 exiting successfully. Buy a developer a beer!
