                               Psi4 1.3.2 release

  ==> Input File <==

--------------------------------------------------------------------------
#psi4
#
memory 32 gb

molecule  {
0 1
  O       -1.2481010    -0.6526680     1.0325150
  O       -1.2449750     2.4828510    -0.6861630
  O       -3.2165300     1.5210990     0.7448870
  O       -2.3570290    -3.0668370     0.0949400
  O        1.3605300     2.2470340    -0.0765420
  N        0.8434040     0.0452230     0.2559430
  N        3.0572260     0.7205030    -0.2937270
  N        4.7164630    -0.8366550    -0.5722980
  C       -1.2894840     1.0784300    -0.5920770
  C       -2.7151710     0.6552070    -0.2573930
  C       -0.5254080     0.4815200     0.6000940
  C       -2.5292560    -0.7168860     0.3610560
  C       -2.5283440    -1.8503930    -0.6392900
  C        1.2096549    -1.3074032     0.3180608
  C        1.7555940     1.0674350    -0.0594030
  C        2.5111010    -1.6091400     0.0469950
  C        3.4119830    -0.5506530    -0.2589250
  H       -0.9376060     0.5914040    -1.5148910
  H       -3.3625820     0.6426650    -1.1464650
  H       -0.4402900     1.2218800     1.4039980
  H       -3.2819570    -0.9087340     1.1307830
  H       -1.7133080    -1.7003050    -1.3694640
  H       -3.4855610    -1.8340040    -1.1841350
  H       -0.2975250     2.7131790    -0.5250000
  H       -2.8475560     2.3997430     0.5086630
  H        0.4343110    -1.9634370     0.5690680
  H       -2.4338740    -3.7984320    -0.5432330
  H        2.7937466    -2.6553230     0.0830422
  H        5.1251800    -1.6708610    -0.1624140
  H        5.3198140    -0.0200540    -0.5682940
units angstrom
no_reorient  #important for SAPT in psi4, default
symmetry c1  #important for SAPT in psi4, default
}

set PROPERTIES_ORIGIN ["COM"]
properties('MP2/aug-cc-pvtz', properties = ['dipole'])
--------------------------------------------------------------------------

    Molecular point group: c1
  Charge       = 0
  Multiplicity = 1
  Basis Set: AUG-CC-PVTZ
    Blend: AUG-CC-PVTZ
  Basis Set: (AUG-CC-PVTZ AUX)
    Blend: AUG-CC-PVTZ-JKFIT

    Orbital Energies [Eh]
    ---------------------

    Doubly Occupied:

       1A    -20.582067     2A    -20.580257     3A    -20.556673
       4A    -20.555843     5A    -20.521063     6A    -15.633355
       7A    -15.601953     8A    -15.554973     9A    -11.387668
      10A    -11.361365    11A    -11.338538    12A    -11.329848
      13A    -11.300693    14A    -11.295972    15A    -11.294670
      16A    -11.291694    17A    -11.252858    18A     -1.426936
      19A     -1.394292    20A     -1.378984    21A     -1.372126
      22A     -1.345038    23A     -1.303803    24A     -1.266563
      25A     -1.182476    26A     -1.083513    27A     -1.066612
      28A     -1.019191    29A     -0.933811    30A     -0.910013
      31A     -0.876322    32A     -0.830533    33A     -0.811008
      34A     -0.765426    35A     -0.750338    36A     -0.733904
      37A     -0.722710    38A     -0.702839    39A     -0.697398
      40A     -0.689341    41A     -0.671702    42A     -0.652901
      43A     -0.650600    44A     -0.636946    45A     -0.626782
      46A     -0.614788    47A     -0.607729    48A     -0.587715
      49A     -0.575745    50A     -0.569173    51A     -0.553120
      52A     -0.544474    53A     -0.536508    54A     -0.531164
      55A     -0.493733    56A     -0.476732    57A     -0.473015
      58A     -0.461084    59A     -0.459854    60A     -0.451546
      61A     -0.440415    62A     -0.433443    63A     -0.394916
      64A     -0.352362

  @DF-RHF Final Energy:  -886.36914947661910

   => Energetics <=

    Nuclear Repulsion Energy =           1322.7542362287620108
    One-Electron Energy =               -3843.2485356582878921
    Two-Electron Energy =                1634.1251499529071225
    Total Energy =                       -886.3691494766189862
  Basis Set: (AUG-CC-PVTZ AUX)
    Blend: AUG-CC-PVTZ-RI
    Molecular point group: c1

    Geometry (in Angstrom), charge = 0, multiplicity = 1:

       Center              X                  Y                   Z               Mass
    ------------   -----------------  -----------------  -----------------  -----------------
         O           -1.247454827881    -0.650356272313     1.032142162707    15.994914619570
         O           -1.244328827881     2.485162727687    -0.686535837293    15.994914619570
         O           -3.215883827881     1.523410727687     0.744514162707    15.994914619570
         O           -2.356382827881    -3.064525272313     0.094567162707    15.994914619570
         O            1.361176172119     2.249345727687    -0.076914837293    15.994914619570
         N            0.844050172119     0.047534727687     0.255570162707    14.003074004430
         N            3.057872172119     0.722814727687    -0.294099837293    14.003074004430
         N            4.717109172119    -0.834343272313    -0.572670837293    14.003074004430
         C           -1.288837827881     1.080741727687    -0.592449837293    12.000000000000
         C           -2.714524827881     0.657518727687    -0.257765837293    12.000000000000
         C           -0.524761827881     0.483831727687     0.599721162707    12.000000000000
         C           -2.528609827881    -0.714574272313     0.360683162707    12.000000000000
         C           -2.527697827881    -1.848081272313    -0.639662837293    12.000000000000
         C            1.210301072119    -1.305091472313     0.317687962707    12.000000000000
         C            1.756240172119     1.069746727687    -0.059775837293    12.000000000000
         C            2.511747172119    -1.606828272313     0.046622162707    12.000000000000
         C            3.412629172119    -0.548341272313    -0.259297837293    12.000000000000
         H           -0.936959827881     0.593715727687    -1.515263837293     1.007825032230
         H           -3.361935827881     0.644976727687    -1.146837837293     1.007825032230
         H           -0.439643827881     1.224191727687     1.403625162707     1.007825032230
         H           -3.281310827881    -0.906422272313     1.130410162707     1.007825032230
         H           -1.712661827881    -1.697993272313    -1.369836837293     1.007825032230
         H           -3.484914827881    -1.831692272313    -1.184507837293     1.007825032230
         H           -0.296878827881     2.715490727687    -0.525372837293     1.007825032230
         H           -2.846909827881     2.402054727687     0.508290162707     1.007825032230
         H            0.434957172119    -1.961125272313     0.568695162707     1.007825032230
         H           -2.433227827881    -3.796120272313    -0.543605837293     1.007825032230
         H            2.794392772119    -2.653011272313     0.082669362707     1.007825032230
         H            5.125826172119    -1.668549272313    -0.162786837293     1.007825032230
         H            5.320460172119    -0.017742272313    -0.568666837293     1.007825032230

  Basis Set: AUG-CC-PVTZ
    Blend: AUG-CC-PVTZ
  Basis Set: (AUG-CC-PVTZ AUX)
    Blend: AUG-CC-PVTZ-JKFIT
	 Reference Energy          =    -886.3691494766190999 [Eh]
	 Singles Energy            =      -0.0000000000000000 [Eh]
	 Same-Spin Energy          =      -0.9012293493956300 [Eh]
	 Opposite-Spin Energy      =      -2.7157989770714233 [Eh]
	 Correlation Energy        =      -3.6170283264670533 [Eh]
	 Total Energy              =    -889.9861778030862069 [Eh]

	 ================> DF-SCS-MP2 Energies <==================
	-----------------------------------------------------------
	 SCS Same-Spin Scale       =       0.3333333333333333 [-]
	 SCS Opposite-Spin Scale   =       1.2000000000000000 [-]
	 SCS Same-Spin Energy      =      -0.3004097831318767 [Eh]
	 SCS Opposite-Spin Energy  =      -3.2589587724857076 [Eh]
	 SCS Correlation Energy    =      -3.5593685556175845 [Eh]
	 SCS Total Energy          =    -889.9285180322366386 [Eh]
	-----------------------------------------------------------

  Dipole Moment: [D]
     X:     1.8642      Y:    -6.0449      Z:    -1.8342     Total:     6.5864

*** Psi4 exiting successfully. Buy a developer a beer!
