                               Psi4 1.3.2 release

  ==> Input File <==

--------------------------------------------------------------------------
#psi4
#
memory 32 gb

molecule  {
0 1
  O       -1.2397115    -0.6545810     1.0413430
  O       -1.2449750     2.4828510    -0.6861630
  O       -3.2165300     1.5210990     0.7448870
  O       -2.3570290    -3.0668370     0.0949400
  O        1.3605300     2.2470340    -0.0765420
  N        0.8434040     0.0452230     0.2559430
  N        3.0572260     0.7205030    -0.2937270
  N        4.7164630    -0.8366550    -0.5722980
  C       -1.2802169     1.0880669    -0.5931159
  C       -2.7151710     0.6552070    -0.2573930
  C       -0.5254080     0.4815200     0.6000940
  C       -2.5292560    -0.7168860     0.3610560
  C       -2.5283440    -1.8503930    -0.6392900
  C        1.2197750    -1.2614080     0.3112740
  C        1.7555940     1.0674350    -0.0594030
  C        2.5111010    -1.6091400     0.0469950
  C        3.4119830    -0.5506530    -0.2589250
  H       -0.9376060     0.5914040    -1.5148910
  H       -3.3625820     0.6426650    -1.1464650
  H       -0.4402900     1.2218800     1.4039980
  H       -3.2819570    -0.9087340     1.1307830
  H       -1.7133080    -1.7003050    -1.3694640
  H       -3.4855610    -1.8340040    -1.1841350
  H       -0.2975250     2.7131790    -0.5250000
  H       -2.8475560     2.3997430     0.5086630
  H        0.4343110    -1.9634370     0.5690680
  H       -2.4338740    -3.7984320    -0.5432330
  H        2.8291120    -2.6453980     0.0739220
  H        5.1251800    -1.6708610    -0.1624140
  H        5.3198140    -0.0200540    -0.5682940
units angstrom
no_reorient  #important for SAPT in psi4, default
symmetry c1  #important for SAPT in psi4, default
}

set PROPERTIES_ORIGIN ["COM"]
properties('MP2/aug-cc-pvtz', properties = ['dipole'])
--------------------------------------------------------------------------

    Molecular point group: c1
  Charge       = 0
  Multiplicity = 1
  Basis Set: AUG-CC-PVTZ
    Blend: AUG-CC-PVTZ
  Basis Set: (AUG-CC-PVTZ AUX)
    Blend: AUG-CC-PVTZ-JKFIT

    Orbital Energies [Eh]
    ---------------------

    Doubly Occupied:

       1A    -20.582413     2A    -20.581889     3A    -20.558598
       4A    -20.557832     5A    -20.521926     6A    -15.636304
       7A    -15.599600     8A    -15.553068     9A    -11.387974
      10A    -11.357548    11A    -11.340810    12A    -11.328047
      13A    -11.301723    14A    -11.297834    15A    -11.297044
      16A    -11.293594    17A    -11.248165    18A     -1.427554
      19A     -1.395609    20A     -1.381814    21A     -1.373160
      22A     -1.348299    23A     -1.305699    24A     -1.273168
      25A     -1.181916    26A     -1.081458    27A     -1.067270
      28A     -1.019893    29A     -0.934764    30A     -0.908867
      31A     -0.877149    32A     -0.832141    33A     -0.811439
      34A     -0.766696    35A     -0.751843    36A     -0.736565
      37A     -0.719840    38A     -0.703232    39A     -0.698437
      40A     -0.685269    41A     -0.672679    42A     -0.654043
      43A     -0.651354    44A     -0.638328    45A     -0.620854
      46A     -0.614403    47A     -0.606224    48A     -0.594211
      49A     -0.575527    50A     -0.568599    51A     -0.555413
      52A     -0.546097    53A     -0.538405    54A     -0.531538
      55A     -0.497974    56A     -0.477765    57A     -0.473826
      58A     -0.462457    59A     -0.460091    60A     -0.452267
      61A     -0.440188    62A     -0.433013    63A     -0.394884
      64A     -0.349625

  @DF-RHF Final Energy:  -886.37278301276899

   => Energetics <=

    Nuclear Repulsion Energy =           1323.4079161579213633
    One-Electron Energy =               -3844.4889718060426276
    Two-Electron Energy =                1634.7082726353519320
    Total Energy =                       -886.3727830127691050
  Basis Set: (AUG-CC-PVTZ AUX)
    Blend: AUG-CC-PVTZ-RI
    Molecular point group: c1

    Geometry (in Angstrom), charge = 0, multiplicity = 1:

       Center              X                  Y                   Z               Mass
    ------------   -----------------  -----------------  -----------------  -----------------
         O           -1.240721032715    -0.654930844218     1.040813414825    15.994914619570
         O           -1.245984532715     2.482501155782    -0.686692585175    15.994914619570
         O           -3.217539532715     1.520749155782     0.744357414825    15.994914619570
         O           -2.358038532715    -3.067186844218     0.094410414825    15.994914619570
         O            1.359520467285     2.246684155782    -0.077071585175    15.994914619570
         N            0.842394467285     0.044873155782     0.255413414825    14.003074004430
         N            3.056216467285     0.720153155782    -0.294256585175    14.003074004430
         N            4.715453467285    -0.837004844218    -0.572827585175    14.003074004430
         C           -1.281226432715     1.087717055782    -0.593645485175    12.000000000000
         C           -2.716180532715     0.654857155782    -0.257922585175    12.000000000000
         C           -0.526417532715     0.481170155782     0.599564414825    12.000000000000
         C           -2.530265532715    -0.717235844218     0.360526414825    12.000000000000
         C           -2.529353532715    -1.850742844218    -0.639819585175    12.000000000000
         C            1.218765467285    -1.261757844218     0.310744414825    12.000000000000
         C            1.754584467285     1.067085155782    -0.059932585175    12.000000000000
         C            2.510091467285    -1.609489844218     0.046465414825    12.000000000000
         C            3.410973467285    -0.551002844218    -0.259454585175    12.000000000000
         H           -0.938615532715     0.591054155782    -1.515420585175     1.007825032230
         H           -3.363591532715     0.642315155782    -1.146994585175     1.007825032230
         H           -0.441299532715     1.221530155782     1.403468414825     1.007825032230
         H           -3.282966532715    -0.909083844218     1.130253414825     1.007825032230
         H           -1.714317532715    -1.700654844218    -1.369993585175     1.007825032230
         H           -3.486570532715    -1.834353844218    -1.184664585175     1.007825032230
         H           -0.298534532715     2.712829155782    -0.525529585175     1.007825032230
         H           -2.848565532715     2.399393155782     0.508133414825     1.007825032230
         H            0.433301467285    -1.963786844218     0.568538414825     1.007825032230
         H           -2.434883532715    -3.798781844218    -0.543762585175     1.007825032230
         H            2.828102467285    -2.645747844218     0.073392414825     1.007825032230
         H            5.124170467285    -1.671210844218    -0.162943585175     1.007825032230
         H            5.318804467285    -0.020403844218    -0.568823585175     1.007825032230

  Basis Set: AUG-CC-PVTZ
    Blend: AUG-CC-PVTZ
  Basis Set: (AUG-CC-PVTZ AUX)
    Blend: AUG-CC-PVTZ-JKFIT
	 Reference Energy          =    -886.3727830127689913 [Eh]
	 Singles Energy            =      -0.0000000000000000 [Eh]
	 Same-Spin Energy          =      -0.9013331355302525 [Eh]
	 Opposite-Spin Energy      =      -2.7151785403226878 [Eh]
	 Correlation Energy        =      -3.6165116758529403 [Eh]
	 Total Energy              =    -889.9892946886219534 [Eh]

	 ================> DF-SCS-MP2 Energies <==================
	-----------------------------------------------------------
	 SCS Same-Spin Scale       =       0.3333333333333333 [-]
	 SCS Opposite-Spin Scale   =       1.2000000000000000 [-]
	 SCS Same-Spin Energy      =      -0.3004443785100842 [Eh]
	 SCS Opposite-Spin Energy  =      -3.2582142483872252 [Eh]
	 SCS Correlation Energy    =      -3.5586586268973095 [Eh]
	 SCS Total Energy          =    -889.9314416396663319 [Eh]
	-----------------------------------------------------------

  Dipole Moment: [D]
     X:     1.6662      Y:    -5.9194      Z:    -1.8486     Total:     6.4213

*** Psi4 exiting successfully. Buy a developer a beer!
