                               Psi4 1.3.2 release

  ==> Input File <==

--------------------------------------------------------------------------
#psi4
#
memory 32 gb

molecule  {
0 1
  O       -1.2481010    -0.6526680     1.0325150
  O       -1.2449750     2.4828510    -0.6861630
  O       -3.2165300     1.5210990     0.7448870
  O       -2.3570290    -3.0668370     0.0949400
  O        1.3605300     2.2470340    -0.0765420
  N        0.8323280     0.0421030     0.2588799
  N        3.0572260     0.7205030    -0.2937270
  N        4.7164630    -0.8366550    -0.5722980
  C       -1.2894840     1.0784300    -0.5920770
  C       -2.7151710     0.6552070    -0.2573930
  C       -0.5254080     0.4815200     0.6000940
  C       -2.5292560    -0.7168860     0.3610560
  C       -2.5283440    -1.8503930    -0.6392900
  C        1.2197750    -1.2614080     0.3112740
  C        1.7555940     1.0674350    -0.0594030
  C        2.5083592    -1.6205594     0.0488912
  C        3.4119830    -0.5506530    -0.2589250
  H       -0.9376060     0.5914040    -1.5148910
  H       -3.3625820     0.6426650    -1.1464650
  H       -0.4402900     1.2218800     1.4039980
  H       -3.2819570    -0.9087340     1.1307830
  H       -1.7133080    -1.7003050    -1.3694640
  H       -3.4855610    -1.8340040    -1.1841350
  H       -0.2975250     2.7131790    -0.5250000
  H       -2.8475560     2.3997430     0.5086630
  H        0.4343110    -1.9634370     0.5690680
  H       -2.4338740    -3.7984320    -0.5432330
  H        2.8291120    -2.6453980     0.0739220
  H        5.1251800    -1.6708610    -0.1624140
  H        5.3198140    -0.0200540    -0.5682940
units angstrom
no_reorient  #important for SAPT in psi4, default
symmetry c1  #important for SAPT in psi4, default
}

set PROPERTIES_ORIGIN ["COM"]
properties('MP2/aug-cc-pvtz', properties = ['dipole'])
--------------------------------------------------------------------------

    Molecular point group: c1
  Charge       = 0
  Multiplicity = 1
  Basis Set: AUG-CC-PVTZ
    Blend: AUG-CC-PVTZ
  Basis Set: (AUG-CC-PVTZ AUX)
    Blend: AUG-CC-PVTZ-JKFIT

    Orbital Energies [Eh]
    ---------------------

    Doubly Occupied:

       1A    -20.581873     2A    -20.580768     3A    -20.557541
       4A    -20.557196     5A    -20.523402     6A    -15.636601
       7A    -15.600577     8A    -15.554310     9A    -11.389832
      10A    -11.359472    11A    -11.340567    12A    -11.327960
      13A    -11.300800    14A    -11.296439    15A    -11.296261
      16A    -11.292637    17A    -11.248557    18A     -1.429202
      19A     -1.396091    20A     -1.379883    21A     -1.372530
      22A     -1.346142    23A     -1.305720    24A     -1.273976
      25A     -1.183087    26A     -1.081687    27A     -1.067344
      28A     -1.020563    29A     -0.935502    30A     -0.906931
      31A     -0.877676    32A     -0.832624    33A     -0.811481
      34A     -0.766518    35A     -0.752457    36A     -0.736281
      37A     -0.720200    38A     -0.702805    39A     -0.698277
      40A     -0.685642    41A     -0.673069    42A     -0.654412
      43A     -0.652725    44A     -0.638267    45A     -0.619207
      46A     -0.613763    47A     -0.605837    48A     -0.596254
      49A     -0.575375    50A     -0.569361    51A     -0.554062
      52A     -0.545712    53A     -0.537431    54A     -0.531518
      55A     -0.498502    56A     -0.477200    57A     -0.474221
      58A     -0.462282    59A     -0.460314    60A     -0.452605
      61A     -0.440525    62A     -0.433257    63A     -0.395566
      64A     -0.349697

  @DF-RHF Final Energy:  -886.37323228458115

   => Energetics <=

    Nuclear Repulsion Energy =           1323.5241229482212475
    One-Electron Energy =               -3844.7175612094829376
    Two-Electron Energy =                1634.8202059766804268
    Total Energy =                       -886.3732322845812632
  Basis Set: (AUG-CC-PVTZ AUX)
    Blend: AUG-CC-PVTZ-RI
    Molecular point group: c1

    Geometry (in Angstrom), charge = 0, multiplicity = 1:

       Center              X                  Y                   Z               Mass
    ------------   -----------------  -----------------  -----------------  -----------------
         O           -1.247327645018    -0.651924537966     1.032252219192    15.994914619570
         O           -1.244201645018     2.483594462034    -0.686425780808    15.994914619570
         O           -3.215756645018     1.521842462034     0.744624219192    15.994914619570
         O           -2.356255645018    -3.066093537966     0.094677219192    15.994914619570
         O            1.361303354982     2.247777462034    -0.076804780808    15.994914619570
         N            0.833101354982     0.042846462034     0.258617119192    14.003074004430
         N            3.057999354982     0.721246462034    -0.293989780808    14.003074004430
         N            4.717236354982    -0.835911537966    -0.572560780808    14.003074004430
         C           -1.288710645018     1.079173462034    -0.592339780808    12.000000000000
         C           -2.714397645018     0.655950462034    -0.257655780808    12.000000000000
         C           -0.524634645018     0.482263462034     0.599831219192    12.000000000000
         C           -2.528482645018    -0.716142537966     0.360793219192    12.000000000000
         C           -2.527570645018    -1.849649537966    -0.639552780808    12.000000000000
         C            1.220548354982    -1.260664537966     0.311011219192    12.000000000000
         C            1.756367354982     1.068178462034    -0.059665780808    12.000000000000
         C            2.509132554982    -1.619815937966     0.048628419192    12.000000000000
         C            3.412756354982    -0.549909537966    -0.259187780808    12.000000000000
         H           -0.936832645018     0.592147462034    -1.515153780808     1.007825032230
         H           -3.361808645018     0.643408462034    -1.146727780808     1.007825032230
         H           -0.439516645018     1.222623462034     1.403735219192     1.007825032230
         H           -3.281183645018    -0.907990537966     1.130520219192     1.007825032230
         H           -1.712534645018    -1.699561537966    -1.369726780808     1.007825032230
         H           -3.484787645018    -1.833260537966    -1.184397780808     1.007825032230
         H           -0.296751645018     2.713922462034    -0.525262780808     1.007825032230
         H           -2.846782645018     2.400486462034     0.508400219192     1.007825032230
         H            0.435084354982    -1.962693537966     0.568805219192     1.007825032230
         H           -2.433100645018    -3.797688537966    -0.543495780808     1.007825032230
         H            2.829885354982    -2.644654537966     0.073659219192     1.007825032230
         H            5.125953354982    -1.670117537966    -0.162676780808     1.007825032230
         H            5.320587354982    -0.019310537966    -0.568556780808     1.007825032230

  Basis Set: AUG-CC-PVTZ
    Blend: AUG-CC-PVTZ
  Basis Set: (AUG-CC-PVTZ AUX)
    Blend: AUG-CC-PVTZ-JKFIT
	 Reference Energy          =    -886.3732322845811495 [Eh]
	 Singles Energy            =      -0.0000000000000000 [Eh]
	 Same-Spin Energy          =      -0.9011027147848176 [Eh]
	 Opposite-Spin Energy      =      -2.7148996498516813 [Eh]
	 Correlation Energy        =      -3.6160023646364987 [Eh]
	 Total Energy              =    -889.9892346492176785 [Eh]

	 ================> DF-SCS-MP2 Energies <==================
	-----------------------------------------------------------
	 SCS Same-Spin Scale       =       0.3333333333333333 [-]
	 SCS Opposite-Spin Scale   =       1.2000000000000000 [-]
	 SCS Same-Spin Energy      =      -0.3003675715949392 [Eh]
	 SCS Opposite-Spin Energy  =      -3.2578795798220175 [Eh]
	 SCS Correlation Energy    =      -3.5582471514169569 [Eh]
	 SCS Total Energy          =    -889.9314794359980851 [Eh]
	-----------------------------------------------------------

  Dipole Moment: [D]
     X:     1.7755      Y:    -5.9066      Z:    -1.8385     Total:     6.4359

*** Psi4 exiting successfully. Buy a developer a beer!
