                               Psi4 1.4a3.dev225

  ==> Input File <==

--------------------------------------------------------------------------
#psi4
#
memory 32 gb

molecule  {
0 1
  O       -1.3191770     0.6538360    -1.0992360
  O       -1.5735610    -2.4640850     0.5135810
  O       -3.5606630    -1.0699430    -0.4600060
  O       -1.4399290     3.1254620     0.1265180
  O        1.1065530    -2.3833650     0.0076020
  N        0.7686360    -0.1579440    -0.3706350
  N        2.9363770    -0.9938720     0.1460080
  N        4.7058880     0.4431110     0.3611260
  C       -1.3768610    -1.0680440     0.5552780
  C       -2.7379840    -0.3746360     0.4578480
  C       -0.6377490    -0.5042940    -0.6790150
  C       -2.3707440     0.9655450    -0.1585060
  C       -1.8929879     2.0030721     0.8705246
  C        1.2309690     1.1190800    -0.4442230
  C        1.6104480    -1.2470590    -0.0585760
  C        2.5474650     1.3753690    -0.1998620
  C        3.3802090     0.2523040     0.0808410
  H       -0.8441360    -0.7686950     1.4698480
  H       -3.2257400    -0.2778790     1.4400230
  H       -0.6227070    -1.2428120    -1.4883720
  H       -3.1941750     1.3785730    -0.7472070
  H       -1.0952130     1.5703990     1.4802000
  H       -2.7410530     2.2466610     1.5166010
  H       -0.6710550    -2.8260740     0.3542250
  H       -3.3063470    -2.0105220    -0.3629290
  H        0.4929290     1.8778260    -0.6840360
  H       -1.2098800     3.8154810     0.7720340
  H        2.9334840     2.3875570    -0.2389120
  H        5.1589650     1.2712730    -0.0008400
  H        5.2635310    -0.4031270     0.3606700
units angstrom
no_reorient  #important for SAPT in psi4, default
symmetry c1  #important for SAPT in psi4, default
}

set PROPERTIES_ORIGIN ["COM"]
properties('MP2/aug-cc-pvtz', properties = ['dipole'])
--------------------------------------------------------------------------

    Molecular point group: c1
  Charge       = 0
  Multiplicity = 1
  Basis Set: AUG-CC-PVTZ
    Blend: AUG-CC-PVTZ
  Basis Set: (AUG-CC-PVTZ AUX)
    Blend: AUG-CC-PVTZ-JKFIT

    Orbital Energies [Eh]
    ---------------------

    Doubly Occupied:

       1A    -20.587823     2A    -20.581228     3A    -20.559172
       4A    -20.556088     5A    -20.519665     6A    -15.632927
       7A    -15.599663     8A    -15.551742     9A    -11.385919
      10A    -11.358057    11A    -11.339406    12A    -11.325144
      13A    -11.302844    14A    -11.298278    15A    -11.296759
      16A    -11.292959    17A    -11.246577    18A     -1.428859
      19A     -1.394336    20A     -1.384696    21A     -1.375891
      22A     -1.346264    23A     -1.303622    24A     -1.271267
      25A     -1.181160    26A     -1.079214    27A     -1.065491
      28A     -1.016108    29A     -0.936320    30A     -0.906745
      31A     -0.876966    32A     -0.829797    33A     -0.812091
      34A     -0.766443    35A     -0.750305    36A     -0.734972
      37A     -0.722161    38A     -0.708502    39A     -0.702683
      40A     -0.685233    41A     -0.674620    42A     -0.654571
      43A     -0.648862    44A     -0.633366    45A     -0.620352
      46A     -0.615161    47A     -0.607279    48A     -0.593109
      49A     -0.577989    50A     -0.565242    51A     -0.556425
      52A     -0.547247    53A     -0.536383    54A     -0.530437
      55A     -0.495552    56A     -0.482261    57A     -0.473747
      58A     -0.461927    59A     -0.457815    60A     -0.452253
      61A     -0.441523    62A     -0.430019    63A     -0.392211
      64A     -0.348206

  @DF-RHF Final Energy:  -886.37386714390493

   => Energetics <=

    Nuclear Repulsion Energy =           1334.2455364408756395
    One-Electron Energy =               -3866.2189425292262968
    Two-Electron Energy =                1645.5995389444458397
    Total Energy =                       -886.3738671439048176
  Basis Set: (AUG-CC-PVTZ AUX)
    Blend: AUG-CC-PVTZ-RI
    Molecular point group: c1

    Geometry (in Angstrom), charge = 0, multiplicity = 1:

       Center              X                  Y                   Z               Mass
    ------------   -----------------  -----------------  -----------------  -----------------
         O           -1.332227465337     0.681781177781    -1.084116623189    15.994914619570
         O           -1.586611465337    -2.436139822219     0.528700376811    15.994914619570
         O           -3.573713465337    -1.041997822219    -0.444886623189    15.994914619570
         O           -1.452979465337     3.153407177781     0.141637376811    15.994914619570
         O            1.093502534663    -2.355419822219     0.022721376811    15.994914619570
         N            0.755585534663    -0.129998822219    -0.355515623189    14.003074004430
         N            2.923326534663    -0.965926822219     0.161127376811    14.003074004430
         N            4.692837534663     0.471056177781     0.376245376811    14.003074004430
         C           -1.389911465337    -1.040098822219     0.570397376811    12.000000000000
         C           -2.751034465337    -0.346690822219     0.472967376811    12.000000000000
         C           -0.650799465337    -0.476348822219    -0.663895623189    12.000000000000
         C           -2.383794465337     0.993490177781    -0.143386623189    12.000000000000
         C           -1.906038365337     2.031017277781     0.885643976811    12.000000000000
         C            1.217918534663     1.147025177781    -0.429103623189    12.000000000000
         C            1.597397534663    -1.219113822219    -0.043456623189    12.000000000000
         C            2.534414534663     1.403314177781    -0.184742623189    12.000000000000
         C            3.367158534663     0.280249177781     0.095960376811    12.000000000000
         H           -0.857186465337    -0.740749822219     1.484967376811     1.007825032230
         H           -3.238790465337    -0.249933822219     1.455142376811     1.007825032230
         H           -0.635757465337    -1.214866822219    -1.473252623189     1.007825032230
         H           -3.207225465337     1.406518177781    -0.732087623189     1.007825032230
         H           -1.108263465337     1.598344177781     1.495319376811     1.007825032230
         H           -2.754103465337     2.274606177781     1.531720376811     1.007825032230
         H           -0.684105465337    -2.798128822219     0.369344376811     1.007825032230
         H           -3.319397465337    -1.982576822219    -0.347809623189     1.007825032230
         H            0.479878534663     1.905771177781    -0.668916623189     1.007825032230
         H           -1.222930465337     3.843426177781     0.787153376811     1.007825032230
         H            2.920433534663     2.415502177781    -0.223792623189     1.007825032230
         H            5.145914534663     1.299218177781     0.014279376811     1.007825032230
         H            5.250480534663    -0.375181822219     0.375789376811     1.007825032230

  Basis Set: AUG-CC-PVTZ
    Blend: AUG-CC-PVTZ
  Basis Set: (AUG-CC-PVTZ AUX)
    Blend: AUG-CC-PVTZ-JKFIT
	 Reference Energy          =    -886.3738671439049313 [Eh]
	 Singles Energy            =      -0.0000000000000000 [Eh]
	 Same-Spin Energy          =      -0.9017535907287731 [Eh]
	 Opposite-Spin Energy      =      -2.7158768935696189 [Eh]
	 Correlation Energy        =      -3.6176304842983922 [Eh]
	 Total Energy              =    -889.9914976282033194 [Eh]

	 ================> DF-SCS-MP2 Energies <==================
	-----------------------------------------------------------
	 SCS Same-Spin Scale       =       0.3333333333333333 [-]
	 SCS Opposite-Spin Scale   =       1.2000000000000000 [-]
	 SCS Same-Spin Energy      =      -0.3005845302429244 [Eh]
	 SCS Opposite-Spin Energy  =      -3.2590522722835424 [Eh]
	 SCS Correlation Energy    =      -3.5596368025264669 [Eh]
	 SCS Total Energy          =    -889.9335039464314150 [Eh]
	-----------------------------------------------------------

  Dipole Moment: [D]
     X:     2.7480      Y:     5.8277      Z:     1.9439     Total:     6.7300

*** Psi4 exiting successfully. Buy a developer a beer!
