                               Psi4 1.3.2 release

  ==> Input File <==

--------------------------------------------------------------------------
#psi4
#
memory 32 gb

molecule  {
0 1
  O       -1.2481010    -0.6526680     1.0325150
  O       -1.2449750     2.4828510    -0.6861630
  O       -3.2165300     1.5210990     0.7448870
  O       -2.3570290    -3.0668370     0.0949400
  O        1.3605300     2.2470340    -0.0765420
  N        0.8434040     0.0452230     0.2559430
  N        3.1219368     0.7361757    -0.3122756
  N        4.7274977    -0.7663945    -0.5822587
  C       -1.2894840     1.0784300    -0.5920770
  C       -2.7151710     0.6552070    -0.2573930
  C       -0.5254080     0.4815200     0.6000940
  C       -2.5292560    -0.7168860     0.3610560
  C       -2.5283440    -1.8503930    -0.6392900
  C        1.2197750    -1.2614080     0.3112740
  C        1.7555940     1.0674350    -0.0594030
  C        2.5111010    -1.6091400     0.0469950
  C        3.4119830    -0.5506530    -0.2589250
  H       -0.9376060     0.5914040    -1.5148910
  H       -3.3625820     0.6426650    -1.1464650
  H       -0.4402900     1.2218800     1.4039980
  H       -3.2819570    -0.9087340     1.1307830
  H       -1.7133080    -1.7003050    -1.3694640
  H       -3.4855610    -1.8340040    -1.1841350
  H       -0.2975250     2.7131790    -0.5250000
  H       -2.8475560     2.3997430     0.5086630
  H        0.4343110    -1.9634370     0.5690680
  H       -2.4338740    -3.7984320    -0.5432330
  H        2.8291120    -2.6453980     0.0739220
  H        5.1251800    -1.6708610    -0.1624140
  H        5.3198140    -0.0200540    -0.5682940
units angstrom
no_reorient  #important for SAPT in psi4, default
symmetry c1  #important for SAPT in psi4, default
}

set PROPERTIES_ORIGIN ["COM"]
properties('MP2/aug-cc-pvtz', properties = ['dipole'])
--------------------------------------------------------------------------

    Molecular point group: c1
  Charge       = 0
  Multiplicity = 1
  Basis Set: AUG-CC-PVTZ
    Blend: AUG-CC-PVTZ
  Basis Set: (AUG-CC-PVTZ AUX)
    Blend: AUG-CC-PVTZ-JKFIT

    Orbital Energies [Eh]
    ---------------------

    Doubly Occupied:

       1A    -20.583455     2A    -20.583183     3A    -20.559023
       4A    -20.558990     5A    -20.527826     6A    -15.640180
       7A    -15.593053     8A    -15.558169     9A    -11.393644
      10A    -11.352845    11A    -11.343872    12A    -11.331073
      13A    -11.302255    14A    -11.298275    15A    -11.298229
      16A    -11.294281    17A    -11.251906    18A     -1.430861
      19A     -1.396491    20A     -1.381422    21A     -1.374012
      22A     -1.347639    23A     -1.306019    24A     -1.276232
      25A     -1.167301    26A     -1.083692    27A     -1.069106
      28A     -1.022599    29A     -0.935287    30A     -0.913498
      31A     -0.869978    32A     -0.831576    33A     -0.813153
      34A     -0.764031    35A     -0.753527    36A     -0.737923
      37A     -0.721341    38A     -0.705136    39A     -0.700061
      40A     -0.678408    41A     -0.673185    42A     -0.654028
      43A     -0.646940    44A     -0.637623    45A     -0.624373
      46A     -0.614995    47A     -0.608215    48A     -0.590353
      49A     -0.576930    50A     -0.570537    51A     -0.555308
      52A     -0.546459    53A     -0.538610    54A     -0.532329
      55A     -0.499160    56A     -0.478793    57A     -0.476046
      58A     -0.467810    59A     -0.463152    60A     -0.454355
      61A     -0.443005    62A     -0.433229    63A     -0.390294
      64A     -0.351117

  @DF-RHF Final Energy:  -886.35861334908873

   => Energetics <=

    Nuclear Repulsion Energy =           1321.9188953167520140
    One-Electron Energy =               -3841.4022280447311459
    Two-Electron Energy =                1633.1247193788906316
    Total Energy =                       -886.3586133490887278
  Basis Set: (AUG-CC-PVTZ AUX)
    Blend: AUG-CC-PVTZ-RI
    Molecular point group: c1

    Geometry (in Angstrom), charge = 0, multiplicity = 1:

       Center              X                  Y                   Z               Mass
    ------------   -----------------  -----------------  -----------------  -----------------
         O           -1.252464394780    -0.657618218721     1.034157301258    15.994914619570
         O           -1.249338394780     2.477900781279    -0.684520698742    15.994914619570
         O           -3.220893394780     1.516148781279     0.746529301258    15.994914619570
         O           -2.361392394780    -3.071787218721     0.096582301258    15.994914619570
         O            1.356166605220     2.242083781279    -0.074899698742    15.994914619570
         N            0.839040605220     0.040272781279     0.257585301258    14.003074004430
         N            3.117573405220     0.731225481279    -0.310633298742    14.003074004430
         N            4.723134305220    -0.771344718721    -0.580616398742    14.003074004430
         C           -1.293847394780     1.073479781279    -0.590434698742    12.000000000000
         C           -2.719534394780     0.650256781279    -0.255750698742    12.000000000000
         C           -0.529771394780     0.476569781279     0.601736301258    12.000000000000
         C           -2.533619394780    -0.721836218721     0.362698301258    12.000000000000
         C           -2.532707394780    -1.855343218721    -0.637647698742    12.000000000000
         C            1.215411605220    -1.266358218721     0.312916301258    12.000000000000
         C            1.751230605220     1.062484781279    -0.057760698742    12.000000000000
         C            2.506737605220    -1.614090218721     0.048637301258    12.000000000000
         C            3.407619605220    -0.555603218721    -0.257282698742    12.000000000000
         H           -0.941969394780     0.586453781279    -1.513248698742     1.007825032230
         H           -3.366945394780     0.637714781279    -1.144822698742     1.007825032230
         H           -0.444653394780     1.216929781279     1.405640301258     1.007825032230
         H           -3.286320394780    -0.913684218721     1.132425301258     1.007825032230
         H           -1.717671394780    -1.705255218721    -1.367821698742     1.007825032230
         H           -3.489924394780    -1.838954218721    -1.182492698742     1.007825032230
         H           -0.301888394780     2.708228781279    -0.523357698742     1.007825032230
         H           -2.851919394780     2.394792781279     0.510305301258     1.007825032230
         H            0.429947605220    -1.968387218721     0.570710301258     1.007825032230
         H           -2.438237394780    -3.803382218721    -0.541590698742     1.007825032230
         H            2.824748605220    -2.650348218721     0.075564301258     1.007825032230
         H            5.120816605220    -1.675811218721    -0.160771698742     1.007825032230
         H            5.315450605220    -0.025004218721    -0.566651698742     1.007825032230

  Basis Set: AUG-CC-PVTZ
    Blend: AUG-CC-PVTZ
  Basis Set: (AUG-CC-PVTZ AUX)
    Blend: AUG-CC-PVTZ-JKFIT
	 Reference Energy          =    -886.3586133490887278 [Eh]
	 Singles Energy            =      -0.0000000000000000 [Eh]
	 Same-Spin Energy          =      -0.9013014296153502 [Eh]
	 Opposite-Spin Energy      =      -2.7167992602311113 [Eh]
	 Correlation Energy        =      -3.6181006898464614 [Eh]
	 Total Energy              =    -889.9767140389351425 [Eh]

	 ================> DF-SCS-MP2 Energies <==================
	-----------------------------------------------------------
	 SCS Same-Spin Scale       =       0.3333333333333333 [-]
	 SCS Opposite-Spin Scale   =       1.2000000000000000 [-]
	 SCS Same-Spin Energy      =      -0.3004338098717834 [Eh]
	 SCS Opposite-Spin Energy  =      -3.2601591122773335 [Eh]
	 SCS Correlation Energy    =      -3.5605929221491168 [Eh]
	 SCS Total Energy          =    -889.9192062712378402 [Eh]
	-----------------------------------------------------------

  Dipole Moment: [D]
     X:     1.3555      Y:    -5.8928      Z:    -1.7708     Total:     6.3007

*** Psi4 exiting successfully. Buy a developer a beer!
