                               Psi4 1.3.2 release

  ==> Input File <==

--------------------------------------------------------------------------
#psi4
#
memory 32 gb

molecule  {
0 1
  O       -1.2481010    -0.6526680     1.0325150
  O       -1.2449750     2.4828510    -0.6861630
  O       -3.2165300     1.5210990     0.7448870
  O       -2.3570290    -3.0668370     0.0949400
  O        1.3605300     2.2470340    -0.0765420
  N        0.8434040     0.0452230     0.2559430
  N        3.0572260     0.7205030    -0.2937270
  N        4.7164630    -0.8366550    -0.5722980
  C       -1.2894840     1.0784300    -0.5920770
  C       -2.7151710     0.6552070    -0.2573930
  C       -0.4706254     0.4615476     0.6455904
  C       -2.5440696    -0.7804083     0.3996745
  C       -2.5283440    -1.8503930    -0.6392900
  C        1.2197750    -1.2614080     0.3112740
  C        1.7555940     1.0674350    -0.0594030
  C        2.5111010    -1.6091400     0.0469950
  C        3.4119830    -0.5506530    -0.2589250
  H       -0.9376060     0.5914040    -1.5148910
  H       -3.3625820     0.6426650    -1.1464650
  H       -0.4402900     1.2218800     1.4039980
  H       -3.2819570    -0.9087340     1.1307830
  H       -1.7133080    -1.7003050    -1.3694640
  H       -3.4855610    -1.8340040    -1.1841350
  H       -0.2975250     2.7131790    -0.5250000
  H       -2.8475560     2.3997430     0.5086630
  H        0.4343110    -1.9634370     0.5690680
  H       -2.4338740    -3.7984320    -0.5432330
  H        2.8291120    -2.6453980     0.0739220
  H        5.1251800    -1.6708610    -0.1624140
  H        5.3198140    -0.0200540    -0.5682940
units angstrom
no_reorient  #important for SAPT in psi4, default
symmetry c1  #important for SAPT in psi4, default
}

set PROPERTIES_ORIGIN ["COM"]
properties('MP2/aug-cc-pvtz', properties = ['dipole'])
--------------------------------------------------------------------------

    Molecular point group: c1
  Charge       = 0
  Multiplicity = 1
  Basis Set: AUG-CC-PVTZ
    Blend: AUG-CC-PVTZ
  Basis Set: (AUG-CC-PVTZ AUX)
    Blend: AUG-CC-PVTZ-JKFIT

    Orbital Energies [Eh]
    ---------------------

    Doubly Occupied:

       1A    -20.580579     2A    -20.575735     3A    -20.554312
       4A    -20.553989     5A    -20.523923     6A    -15.639771
       7A    -15.601338     8A    -15.555280     9A    -11.390816
      10A    -11.359643    11A    -11.339288    12A    -11.330171
      13A    -11.299637    14A    -11.295904    15A    -11.294494
      16A    -11.291563    17A    -11.250481    18A     -1.425532
      19A     -1.396411    20A     -1.377532    21A     -1.370981
      22A     -1.342116    23A     -1.308890    24A     -1.279285
      25A     -1.185123    26A     -1.084926    27A     -1.058173
      28A     -1.012189    29A     -0.937621    30A     -0.912862
      31A     -0.876277    32A     -0.831954    33A     -0.809160
      34A     -0.771292    35A     -0.752383    36A     -0.735678
      37A     -0.720053    38A     -0.703178    39A     -0.695625
      40A     -0.687637    41A     -0.672856    42A     -0.657645
      43A     -0.651598    44A     -0.635749    45A     -0.619878
      46A     -0.616325    47A     -0.607687    48A     -0.596114
      49A     -0.577395    50A     -0.572832    51A     -0.551426
      52A     -0.543207    53A     -0.534579    54A     -0.531243
      55A     -0.498329    56A     -0.475931    57A     -0.467535
      58A     -0.461205    59A     -0.459293    60A     -0.442448
      61A     -0.437098    62A     -0.432790    63A     -0.394412
      64A     -0.350181

  @DF-RHF Final Energy:  -886.36317789384066

   => Energetics <=

    Nuclear Repulsion Energy =           1322.2539042478435931
    One-Electron Energy =               -3842.2350409816745014
    Two-Electron Energy =                1633.6179588399900240
    Total Energy =                       -886.3631778938406569
  Basis Set: (AUG-CC-PVTZ AUX)
    Blend: AUG-CC-PVTZ-RI
    Molecular point group: c1

    Geometry (in Angstrom), charge = 0, multiplicity = 1:

       Center              X                  Y                   Z               Mass
    ------------   -----------------  -----------------  -----------------  -----------------
         O           -1.250074117314    -0.648546245391     1.028362646625    15.994914619570
         O           -1.246948117314     2.486972754609    -0.690315353375    15.994914619570
         O           -3.218503117314     1.525220754609     0.740734646625    15.994914619570
         O           -2.359002117314    -3.062715245391     0.090787646625    15.994914619570
         O            1.358556882686     2.251155754609    -0.080694353375    15.994914619570
         N            0.841430882686     0.049344754609     0.251790646625    14.003074004430
         N            3.055252882686     0.724624754609    -0.297879353375    14.003074004430
         N            4.714489882686    -0.832533245391    -0.576450353375    14.003074004430
         C           -1.291457117314     1.082551754609    -0.596229353375    12.000000000000
         C           -2.717144117314     0.659328754609    -0.261545353375    12.000000000000
         C           -0.472598517314     0.465669354609     0.641438046625    12.000000000000
         C           -2.546042717314    -0.776286545391     0.395522146625    12.000000000000
         C           -2.530317117314    -1.846271245391    -0.643442353375    12.000000000000
         C            1.217801882686    -1.257286245391     0.307121646625    12.000000000000
         C            1.753620882686     1.071556754609    -0.063555353375    12.000000000000
         C            2.509127882686    -1.605018245391     0.042842646625    12.000000000000
         C            3.410009882686    -0.546531245391    -0.263077353375    12.000000000000
         H           -0.939579117314     0.595525754609    -1.519043353375     1.007825032230
         H           -3.364555117314     0.646786754609    -1.150617353375     1.007825032230
         H           -0.442263117314     1.226001754609     1.399845646625     1.007825032230
         H           -3.283930117314    -0.904612245391     1.126630646625     1.007825032230
         H           -1.715281117314    -1.696183245391    -1.373616353375     1.007825032230
         H           -3.487534117314    -1.829882245391    -1.188287353375     1.007825032230
         H           -0.299498117314     2.717300754609    -0.529152353375     1.007825032230
         H           -2.849529117314     2.403864754609     0.504510646625     1.007825032230
         H            0.432337882686    -1.959315245391     0.564915646625     1.007825032230
         H           -2.435847117314    -3.794310245391    -0.547385353375     1.007825032230
         H            2.827138882686    -2.641276245391     0.069769646625     1.007825032230
         H            5.123206882686    -1.666739245391    -0.166566353375     1.007825032230
         H            5.317840882686    -0.015932245391    -0.572446353375     1.007825032230

  Basis Set: AUG-CC-PVTZ
    Blend: AUG-CC-PVTZ
  Basis Set: (AUG-CC-PVTZ AUX)
    Blend: AUG-CC-PVTZ-JKFIT
	 Reference Energy          =    -886.3631778938406569 [Eh]
	 Singles Energy            =      -0.0000000000000000 [Eh]
	 Same-Spin Energy          =      -0.9009127845609752 [Eh]
	 Opposite-Spin Energy      =      -2.7147051050590383 [Eh]
	 Correlation Energy        =      -3.6156178896200135 [Eh]
	 Total Energy              =    -889.9787957834606686 [Eh]

	 ================> DF-SCS-MP2 Energies <==================
	-----------------------------------------------------------
	 SCS Same-Spin Scale       =       0.3333333333333333 [-]
	 SCS Opposite-Spin Scale   =       1.2000000000000000 [-]
	 SCS Same-Spin Energy      =      -0.3003042615203251 [Eh]
	 SCS Opposite-Spin Energy  =      -3.2576461260708460 [Eh]
	 SCS Correlation Energy    =      -3.5579503875911711 [Eh]
	 SCS Total Energy          =    -889.9211282814318338 [Eh]
	-----------------------------------------------------------

  Dipole Moment: [D]
     X:     1.9165      Y:    -6.0478      Z:    -1.7688     Total:     6.5861

*** Psi4 exiting successfully. Buy a developer a beer!
