                               Psi4 1.3.2 release

  ==> Input File <==

--------------------------------------------------------------------------
#psi4
#
memory 32 gb

molecule  {
0 1
  O       -1.2481010    -0.6526680     1.0325150
  O       -1.2449750     2.4828510    -0.6861630
  O       -3.2165300     1.5210990     0.7448870
  O       -2.3570290    -3.0668370     0.0949400
  O        1.3605300     2.2470340    -0.0765420
  N        0.8434040     0.0452230     0.2559430
  N        3.0572260     0.7205030    -0.2937270
  N        4.7164630    -0.8366550    -0.5722980
  C       -1.3118249     1.0858616    -0.6683318
  C       -2.7151710     0.6552070    -0.2573930
  C       -0.5254080     0.4815200     0.6000940
  C       -2.5292560    -0.7168860     0.3610560
  C       -2.5283440    -1.8503930    -0.6392900
  C        1.2197750    -1.2614080     0.3112740
  C        1.7555940     1.0674350    -0.0594030
  C        2.5111010    -1.6091400     0.0469950
  C        3.4119830    -0.5506530    -0.2589250
  H       -0.9376060     0.5914040    -1.5148910
  H       -3.3173467     0.6596646    -1.1777798
  H       -0.4402900     1.2218800     1.4039980
  H       -3.2819570    -0.9087340     1.1307830
  H       -1.7133080    -1.7003050    -1.3694640
  H       -3.4855610    -1.8340040    -1.1841350
  H       -0.2975250     2.7131790    -0.5250000
  H       -2.8475560     2.3997430     0.5086630
  H        0.4343110    -1.9634370     0.5690680
  H       -2.4338740    -3.7984320    -0.5432330
  H        2.8291120    -2.6453980     0.0739220
  H        5.1251800    -1.6708610    -0.1624140
  H        5.3198140    -0.0200540    -0.5682940
units angstrom
no_reorient  #important for SAPT in psi4, default
symmetry c1  #important for SAPT in psi4, default
}

set PROPERTIES_ORIGIN ["COM"]
properties('MP2/aug-cc-pvtz', properties = ['dipole'])
--------------------------------------------------------------------------

    Molecular point group: c1
  Charge       = 0
  Multiplicity = 1
  Basis Set: AUG-CC-PVTZ
    Blend: AUG-CC-PVTZ
  Basis Set: (AUG-CC-PVTZ AUX)
    Blend: AUG-CC-PVTZ-JKFIT

    Orbital Energies [Eh]
    ---------------------

    Doubly Occupied:

       1A    -20.582354     2A    -20.580327     3A    -20.559921
       4A    -20.557515     5A    -20.521215     6A    -15.635688
       7A    -15.599247     8A    -15.552701     9A    -11.387338
      10A    -11.357082    11A    -11.340385    12A    -11.327472
      13A    -11.301461    14A    -11.297568    15A    -11.296420
      16A    -11.293341    17A    -11.247725    18A     -1.426656
      19A     -1.395323    20A     -1.381289    21A     -1.372917
      22A     -1.347934    23A     -1.305226    24A     -1.272667
      25A     -1.181389    26A     -1.079592    27A     -1.067895
      28A     -1.014709    29A     -0.934304    30A     -0.908547
      31A     -0.876383    32A     -0.835871    33A     -0.808928
      34A     -0.766286    35A     -0.749619    36A     -0.737657
      37A     -0.719864    38A     -0.702821    39A     -0.702341
      40A     -0.684690    41A     -0.675957    42A     -0.654477
      43A     -0.651645    44A     -0.636612    45A     -0.620202
      46A     -0.615946    47A     -0.606397    48A     -0.592181
      49A     -0.574816    50A     -0.569376    51A     -0.553513
      52A     -0.546274    53A     -0.536842    54A     -0.531257
      55A     -0.498072    56A     -0.480250    57A     -0.476273
      58A     -0.461497    59A     -0.458602    60A     -0.454205
      61A     -0.433607    62A     -0.431344    63A     -0.392787
      64A     -0.347778

  @DF-RHF Final Energy:  -886.36678294855835

   => Energetics <=

    Nuclear Repulsion Energy =           1322.4498558285729359
    One-Electron Energy =               -3842.6121259594515323
    Two-Electron Energy =                1633.7954871823203575
    Total Energy =                       -886.3667829485584662
  Basis Set: (AUG-CC-PVTZ AUX)
    Blend: AUG-CC-PVTZ-RI
    Molecular point group: c1

    Geometry (in Angstrom), charge = 0, multiplicity = 1:

       Center              X                  Y                   Z               Mass
    ------------   -----------------  -----------------  -----------------  -----------------
         O           -1.247185711905    -0.653105333156     1.036409181997    15.994914619570
         O           -1.244059711905     2.482413666844    -0.682268818003    15.994914619570
         O           -3.215614711905     1.520661666844     0.748781181997    15.994914619570
         O           -2.356113711905    -3.067274333156     0.098834181997    15.994914619570
         O            1.361445288095     2.246596666844    -0.072647818003    15.994914619570
         N            0.844319288095     0.044785666844     0.259837181997    14.003074004430
         N            3.058141288095     0.720065666844    -0.289832818003    14.003074004430
         N            4.717378288095    -0.837092333156    -0.568403818003    14.003074004430
         C           -1.310909611905     1.085424266844    -0.664437618003    12.000000000000
         C           -2.714255711905     0.654769666844    -0.253498818003    12.000000000000
         C           -0.524492711905     0.481082666844     0.603988181997    12.000000000000
         C           -2.528340711905    -0.717323333156     0.364950181997    12.000000000000
         C           -2.527428711905    -1.850830333156    -0.635395818003    12.000000000000
         C            1.220690288095    -1.261845333156     0.315168181997    12.000000000000
         C            1.756509288095     1.066997666844    -0.055508818003    12.000000000000
         C            2.512016288095    -1.609577333156     0.050889181997    12.000000000000
         C            3.412898288095    -0.551090333156    -0.255030818003    12.000000000000
         H           -0.936690711905     0.590966666844    -1.510996818003     1.007825032230
         H           -3.316431411905     0.659227266844    -1.173885618003     1.007825032230
         H           -0.439374711905     1.221442666844     1.407892181997     1.007825032230
         H           -3.281041711905    -0.909171333156     1.134677181997     1.007825032230
         H           -1.712392711905    -1.700742333156    -1.365569818003     1.007825032230
         H           -3.484645711905    -1.834441333156    -1.180240818003     1.007825032230
         H           -0.296609711905     2.712741666844    -0.521105818003     1.007825032230
         H           -2.846640711905     2.399305666844     0.512557181997     1.007825032230
         H            0.435226288095    -1.963874333156     0.572962181997     1.007825032230
         H           -2.432958711905    -3.798869333156    -0.539338818003     1.007825032230
         H            2.830027288095    -2.645835333156     0.077816181997     1.007825032230
         H            5.126095288095    -1.671298333156    -0.158519818003     1.007825032230
         H            5.320729288095    -0.020491333156    -0.564399818003     1.007825032230

  Basis Set: AUG-CC-PVTZ
    Blend: AUG-CC-PVTZ
  Basis Set: (AUG-CC-PVTZ AUX)
    Blend: AUG-CC-PVTZ-JKFIT
	 Reference Energy          =    -886.3667829485583525 [Eh]
	 Singles Energy            =      -0.0000000000000000 [Eh]
	 Same-Spin Energy          =      -0.9012783191541687 [Eh]
	 Opposite-Spin Energy      =      -2.7151150889030680 [Eh]
	 Correlation Energy        =      -3.6163934080572364 [Eh]
	 Total Energy              =    -889.9831763566155587 [Eh]

	 ================> DF-SCS-MP2 Energies <==================
	-----------------------------------------------------------
	 SCS Same-Spin Scale       =       0.3333333333333333 [-]
	 SCS Opposite-Spin Scale   =       1.2000000000000000 [-]
	 SCS Same-Spin Energy      =      -0.3004261063847229 [Eh]
	 SCS Opposite-Spin Energy  =      -3.2581381066836816 [Eh]
	 SCS Correlation Energy    =      -3.5585642130684043 [Eh]
	 SCS Total Energy          =    -889.9253471616267461 [Eh]
	-----------------------------------------------------------

  Dipole Moment: [D]
     X:     1.6552      Y:    -5.9046      Z:    -1.8928     Total:     6.4177

*** Psi4 exiting successfully. Buy a developer a beer!
