                               Psi4 1.3.2 release

  ==> Input File <==

--------------------------------------------------------------------------
#psi4
#
memory 32 gb

molecule  {
0 1
  O       -1.2481010    -0.6526680     1.0325150
  O       -1.2449750     2.4828510    -0.6861630
  O       -3.2165300     1.5210990     0.7448870
  O       -2.3570290    -3.0668370     0.0949400
  O        1.3605300     2.2470340    -0.0765420
  N        0.8434040     0.0452230     0.2559430
  N        3.0572260     0.7205030    -0.2937270
  N        4.7164630    -0.8366550    -0.5722980
  C       -1.2894840     1.0784300    -0.5920770
  C       -2.7772762     0.6662274    -0.2091772
  C       -0.5254080     0.4815200     0.6000940
  C       -2.5292560    -0.7168860     0.3610560
  C       -2.5283440    -1.8503930    -0.6392900
  C        1.2197750    -1.2614080     0.3112740
  C        1.7555940     1.0674350    -0.0594030
  C        2.5111010    -1.6091400     0.0469950
  C        3.4119830    -0.5506530    -0.2589250
  H       -0.9376060     0.5914040    -1.5148910
  H       -3.3625820     0.6426650    -1.1464650
  H       -0.4402900     1.2218800     1.4039980
  H       -3.3037196    -0.8568260     1.1203102
  H       -1.7133080    -1.7003050    -1.3694640
  H       -3.4855610    -1.8340040    -1.1841350
  H       -0.2975250     2.7131790    -0.5250000
  H       -2.8475560     2.3997430     0.5086630
  H        0.4343110    -1.9634370     0.5690680
  H       -2.4338740    -3.7984320    -0.5432330
  H        2.8291120    -2.6453980     0.0739220
  H        5.1251800    -1.6708610    -0.1624140
  H        5.3198140    -0.0200540    -0.5682940
units angstrom
no_reorient  #important for SAPT in psi4, default
symmetry c1  #important for SAPT in psi4, default
}

set PROPERTIES_ORIGIN ["COM"]
properties('MP2/aug-cc-pvtz', properties = ['dipole'])
--------------------------------------------------------------------------

    Molecular point group: c1
  Charge       = 0
  Multiplicity = 1
  Basis Set: AUG-CC-PVTZ
    Blend: AUG-CC-PVTZ
  Basis Set: (AUG-CC-PVTZ AUX)
    Blend: AUG-CC-PVTZ-JKFIT

    Orbital Energies [Eh]
    ---------------------

    Doubly Occupied:

       1A    -20.581608     2A    -20.581434     3A    -20.563359
       4A    -20.556135     5A    -20.521294     6A    -15.636214
       7A    -15.599376     8A    -15.552784     9A    -11.387593
      10A    -11.357289    11A    -11.340065    12A    -11.327889
      13A    -11.301535    14A    -11.295364    15A    -11.295231
      16A    -11.294025    17A    -11.247945    18A     -1.430160
      19A     -1.398504    20A     -1.389795    21A     -1.372946
      22A     -1.354965    23A     -1.305425    24A     -1.273154
      25A     -1.181677    26A     -1.081037    27A     -1.061737
      28A     -1.014393    29A     -0.932766    30A     -0.908974
      31A     -0.878510    32A     -0.832324    33A     -0.810455
      34A     -0.766379    35A     -0.750771    36A     -0.733964
      37A     -0.719558    38A     -0.712707    39A     -0.699510
      40A     -0.685241    41A     -0.677011    42A     -0.653871
      43A     -0.651313    44A     -0.638762    45A     -0.620297
      46A     -0.614156    47A     -0.609251    48A     -0.593671
      49A     -0.580311    50A     -0.570193    51A     -0.560854
      52A     -0.548970    53A     -0.536626    54A     -0.531373
      55A     -0.496344    56A     -0.476288    57A     -0.464087
      58A     -0.461710    59A     -0.459285    60A     -0.447780
      61A     -0.434138    62A     -0.432688    63A     -0.394184
      64A     -0.348958

  @DF-RHF Final Energy:  -886.36820758526176

   => Energetics <=

    Nuclear Repulsion Energy =           1323.0503030084369129
    One-Electron Energy =               -3843.7645987210648855
    Two-Electron Energy =                1634.3460881273661016
    Total Energy =                       -886.3682075852618709
  Basis Set: (AUG-CC-PVTZ AUX)
    Blend: AUG-CC-PVTZ-RI
    Molecular point group: c1

    Geometry (in Angstrom), charge = 0, multiplicity = 1:

       Center              X                  Y                   Z               Mass
    ------------   -----------------  -----------------  -----------------  -----------------
         O           -1.244944962397    -0.653427224641     1.030178237900    15.994914619570
         O           -1.241818962397     2.482091775359    -0.688499762100    15.994914619570
         O           -3.213373962397     1.520339775359     0.742550237900    15.994914619570
         O           -2.353872962397    -3.067596224642     0.092603237900    15.994914619570
         O            1.363686037603     2.246274775359    -0.078878762100    15.994914619570
         N            0.846560037603     0.044463775359     0.253606237900    14.003074004430
         N            3.060382037603     0.719743775359    -0.296063762100    14.003074004430
         N            4.719619037603    -0.837414224641    -0.574634762100    14.003074004430
         C           -1.286327962397     1.077670775359    -0.594413762100    12.000000000000
         C           -2.774120162397     0.665468175359    -0.211513962100    12.000000000000
         C           -0.522251962397     0.480760775359     0.597757237900    12.000000000000
         C           -2.526099962397    -0.717645224641     0.358719237900    12.000000000000
         C           -2.525187962397    -1.851152224641    -0.641626762100    12.000000000000
         C            1.222931037603    -1.262167224641     0.308937237900    12.000000000000
         C            1.758750037603     1.066675775359    -0.061739762100    12.000000000000
         C            2.514257037603    -1.609899224641     0.044658237900    12.000000000000
         C            3.415139037603    -0.551412224641    -0.261261762100    12.000000000000
         H           -0.934449962397     0.590644775359    -1.517227762100     1.007825032230
         H           -3.359425962397     0.641905775359    -1.148801762100     1.007825032230
         H           -0.437133962397     1.221120775359     1.401661237900     1.007825032230
         H           -3.300563562397    -0.857585224641     1.117973437900     1.007825032230
         H           -1.710151962397    -1.701064224641    -1.371800762100     1.007825032230
         H           -3.482404962397    -1.834763224641    -1.186471762100     1.007825032230
         H           -0.294368962397     2.712419775359    -0.527336762100     1.007825032230
         H           -2.844399962397     2.398983775358     0.506326237900     1.007825032230
         H            0.437467037603    -1.964196224641     0.566731237900     1.007825032230
         H           -2.430717962397    -3.799191224642    -0.545569762100     1.007825032230
         H            2.832268037603    -2.646157224641     0.071585237900     1.007825032230
         H            5.128336037603    -1.671620224641    -0.164750762100     1.007825032230
         H            5.322970037603    -0.020813224641    -0.570630762100     1.007825032230

  Basis Set: AUG-CC-PVTZ
    Blend: AUG-CC-PVTZ
  Basis Set: (AUG-CC-PVTZ AUX)
    Blend: AUG-CC-PVTZ-JKFIT
	 Reference Energy          =    -886.3682075852617572 [Eh]
	 Singles Energy            =      -0.0000000000000000 [Eh]
	 Same-Spin Energy          =      -0.9014373381626777 [Eh]
	 Opposite-Spin Energy      =      -2.7144638012078586 [Eh]
	 Correlation Energy        =      -3.6159011393705365 [Eh]
	 Total Energy              =    -889.9841087246322786 [Eh]

	 ================> DF-SCS-MP2 Energies <==================
	-----------------------------------------------------------
	 SCS Same-Spin Scale       =       0.3333333333333333 [-]
	 SCS Opposite-Spin Scale   =       1.2000000000000000 [-]
	 SCS Same-Spin Energy      =      -0.3004791127208926 [Eh]
	 SCS Opposite-Spin Energy  =      -3.2573565614494302 [Eh]
	 SCS Correlation Energy    =      -3.5578356741703230 [Eh]
	 SCS Total Energy          =    -889.9260432594320491 [Eh]
	-----------------------------------------------------------

  Dipole Moment: [D]
     X:     1.5653      Y:    -5.7901      Z:    -1.7150     Total:     6.2383

*** Psi4 exiting successfully. Buy a developer a beer!
