                               Psi4 1.3.2 release

  ==> Input File <==

--------------------------------------------------------------------------
#psi4
#
memory 32 gb

molecule  {
0 1
  O       -1.2481010    -0.6526680     1.0325150
  O       -1.2449750     2.4828510    -0.6861630
  O       -3.2165300     1.5210990     0.7448870
  O       -2.3570290    -3.0668370     0.0949400
  O        1.3605300     2.2470340    -0.0765420
  N        0.8434040     0.0452230     0.2559430
  N        3.0572260     0.7205030    -0.2937270
  N        4.7164630    -0.8366550    -0.5722980
  C       -1.2894840     1.0784300    -0.5920770
  C       -2.7151710     0.6552070    -0.2573930
  C       -0.5254080     0.4815200     0.6000940
  C       -2.5292560    -0.7168860     0.3610560
  C       -2.5283440    -1.8503930    -0.6392900
  C        1.2197750    -1.2614080     0.3112740
  C        1.7555940     1.0674350    -0.0594030
  C        2.5111010    -1.6091400     0.0469950
  C        3.2217894    -0.5089538    -0.2132351
  H       -0.9376060     0.5914040    -1.5148910
  H       -3.3625820     0.6426650    -1.1464650
  H       -0.4402900     1.2218800     1.4039980
  H       -3.2819570    -0.9087340     1.1307830
  H       -1.7133080    -1.7003050    -1.3694640
  H       -3.4855610    -1.8340040    -1.1841350
  H       -0.2975250     2.7131790    -0.5250000
  H       -2.8475560     2.3997430     0.5086630
  H        0.4343110    -1.9634370     0.5690680
  H       -2.4338740    -3.7984320    -0.5432330
  H        2.8291120    -2.6453980     0.0739220
  H        5.1251800    -1.6708610    -0.1624140
  H        5.3198140    -0.0200540    -0.5682940
units angstrom
no_reorient  #important for SAPT in psi4, default
symmetry c1  #important for SAPT in psi4, default
}

set PROPERTIES_ORIGIN ["COM"]
properties('MP2/aug-cc-pvtz', properties = ['dipole'])
--------------------------------------------------------------------------

    Molecular point group: c1
  Charge       = 0
  Multiplicity = 1
  Basis Set: AUG-CC-PVTZ
    Blend: AUG-CC-PVTZ
  Basis Set: (AUG-CC-PVTZ AUX)
    Blend: AUG-CC-PVTZ-JKFIT

    Orbital Energies [Eh]
    ---------------------

    Doubly Occupied:

       1A    -20.588630     2A    -20.586491     3A    -20.563623
       4A    -20.562821     5A    -20.533171     6A    -15.651888
       7A    -15.568450     8A    -15.562422     9A    -11.398814
      10A    -11.350595    11A    -11.350015    12A    -11.340161
      13A    -11.305924    14A    -11.303640    15A    -11.302405
      16A    -11.298544    17A    -11.251159    18A     -1.438959
      19A     -1.410955    20A     -1.385991    21A     -1.377835
      22A     -1.352426    23A     -1.323302    24A     -1.273332
      25A     -1.147838    26A     -1.104197    27A     -1.073490
      28A     -1.030158    29A     -0.941707    30A     -0.926624
      31A     -0.879662    32A     -0.837357    33A     -0.818028
      34A     -0.768837    35A     -0.765174    36A     -0.743389
      37A     -0.713600    38A     -0.704949    39A     -0.693680
      40A     -0.673425    41A     -0.670234    42A     -0.664460
      43A     -0.653497    44A     -0.645158    45A     -0.629429
      46A     -0.620081    47A     -0.609966    48A     -0.582715
      49A     -0.578367    50A     -0.566420    51A     -0.558938
      52A     -0.549605    53A     -0.542965    54A     -0.523139
      55A     -0.506741    56A     -0.486553    57A     -0.481330
      58A     -0.477819    59A     -0.467566    60A     -0.458914
      61A     -0.445161    62A     -0.441435    63A     -0.394901
      64A     -0.362381

  @DF-RHF Final Energy:  -886.32549493509168

   => Energetics <=

    Nuclear Repulsion Energy =           1327.0252443445690460
    One-Electron Energy =               -3851.0585944915005712
    Two-Electron Energy =                1637.7078552118396146
    Total Energy =                       -886.3254949350916831
  Basis Set: (AUG-CC-PVTZ AUX)
    Blend: AUG-CC-PVTZ-RI
    Molecular point group: c1

    Geometry (in Angstrom), charge = 0, multiplicity = 1:

       Center              X                  Y                   Z               Mass
    ------------   -----------------  -----------------  -----------------  -----------------
         O           -1.238712061714    -0.654726485155     1.030259509914    15.994914619570
         O           -1.235586061714     2.480792514845    -0.688418490086    15.994914619570
         O           -3.207141061714     1.519040514845     0.742631509914    15.994914619570
         O           -2.347640061714    -3.068895485155     0.092684509914    15.994914619570
         O            1.369918938286     2.244975514845    -0.078797490086    15.994914619570
         N            0.852792938286     0.043164514845     0.253687509914    14.003074004430
         N            3.066614938286     0.718444514845    -0.295982490086    14.003074004430
         N            4.725851938286    -0.838713485155    -0.574553490086    14.003074004430
         C           -1.280095061714     1.076371514845    -0.594332490086    12.000000000000
         C           -2.705782061714     0.653148514845    -0.259648490086    12.000000000000
         C           -0.516019061714     0.479461514845     0.597838509914    12.000000000000
         C           -2.519867061714    -0.718944485155     0.358800509914    12.000000000000
         C           -2.518955061714    -1.852451485155    -0.641545490086    12.000000000000
         C            1.229163938286    -1.263466485155     0.309018509914    12.000000000000
         C            1.764982938286     1.065376514845    -0.061658490086    12.000000000000
         C            2.520489938286    -1.611198485155     0.044739509914    12.000000000000
         C            3.231178338286    -0.511012285155    -0.215490590086    12.000000000000
         H           -0.928217061714     0.589345514845    -1.517146490086     1.007825032230
         H           -3.353193061714     0.640606514845    -1.148720490086     1.007825032230
         H           -0.430901061714     1.219821514845     1.401742509914     1.007825032230
         H           -3.272568061714    -0.910792485155     1.128527509914     1.007825032230
         H           -1.703919061714    -1.702363485155    -1.371719490086     1.007825032230
         H           -3.476172061714    -1.836062485155    -1.186390490086     1.007825032230
         H           -0.288136061714     2.711120514845    -0.527255490086     1.007825032230
         H           -2.838167061714     2.397684514845     0.506407509914     1.007825032230
         H            0.443699938286    -1.965495485155     0.566812509914     1.007825032230
         H           -2.424485061714    -3.800490485155    -0.545488490086     1.007825032230
         H            2.838500938286    -2.647456485155     0.071666509914     1.007825032230
         H            5.134568938286    -1.672919485155    -0.164669490086     1.007825032230
         H            5.329202938286    -0.022112485155    -0.570549490086     1.007825032230

  Basis Set: AUG-CC-PVTZ
    Blend: AUG-CC-PVTZ
  Basis Set: (AUG-CC-PVTZ AUX)
    Blend: AUG-CC-PVTZ-JKFIT
	 Reference Energy          =    -886.3254949350916831 [Eh]
	 Singles Energy            =      -0.0000000000000000 [Eh]
	 Same-Spin Energy          =      -0.9024642040170006 [Eh]
	 Opposite-Spin Energy      =      -2.7178874225111622 [Eh]
	 Correlation Energy        =      -3.6203516265281630 [Eh]
	 Total Energy              =    -889.9458465616198737 [Eh]

	 ================> DF-SCS-MP2 Energies <==================
	-----------------------------------------------------------
	 SCS Same-Spin Scale       =       0.3333333333333333 [-]
	 SCS Opposite-Spin Scale   =       1.2000000000000000 [-]
	 SCS Same-Spin Energy      =      -0.3008214013390001 [Eh]
	 SCS Opposite-Spin Energy  =      -3.2614649070133948 [Eh]
	 SCS Correlation Energy    =      -3.5622863083523950 [Eh]
	 SCS Total Energy          =    -889.8877812434441239 [Eh]
	-----------------------------------------------------------

  Dipole Moment: [D]
     X:    -0.2402      Y:    -5.4493      Z:    -1.4566     Total:     5.6458

*** Psi4 exiting successfully. Buy a developer a beer!
