                               Psi4 1.3.2 release

  ==> Input File <==

--------------------------------------------------------------------------
#psi4
#
memory 32 gb

molecule  {
0 1
  O       -1.2481010    -0.6526680     1.0325150
  O       -1.2449750     2.4828510    -0.6861630
  O       -3.2165300     1.5210990     0.7448870
  O       -2.3570290    -3.0668370     0.0949400
  O        1.3605300     2.2470340    -0.0765420
  N        0.8434040     0.0452230     0.2559430
  N        3.0572260     0.7205030    -0.2937270
  N        4.7164630    -0.8366550    -0.5722980
  C       -1.2894840     1.0784300    -0.5920770
  C       -2.7151710     0.6552070    -0.2573930
  C       -0.5254080     0.4815200     0.6000940
  C       -2.5292560    -0.7168860     0.3610560
  C       -2.5283440    -1.8503930    -0.6392900
  C        1.2197750    -1.2614080     0.3112740
  C        1.7555940     1.0674350    -0.0594030
  C        2.5111010    -1.6091400     0.0469950
  C        3.4119830    -0.5506530    -0.2589250
  H       -0.9376060     0.5914040    -1.5148910
  H       -3.3625820     0.6426650    -1.1464650
  H       -0.4402900     1.2218800     1.4039980
  H       -3.2819570    -0.9087340     1.1307830
  H       -1.7133080    -1.7003050    -1.3694640
  H       -3.4855610    -1.8340040    -1.1841350
  H       -0.2975250     2.7131790    -0.5250000
  H       -2.8475560     2.3997430     0.5086630
  H        0.5791566    -1.8339774     0.5215288
  H       -2.4338740    -3.7984320    -0.5432330
  H        2.8291120    -2.6453980     0.0739220
  H        5.1251800    -1.6708610    -0.1624140
  H        5.3198140    -0.0200540    -0.5682940
units angstrom
no_reorient  #important for SAPT in psi4, default
symmetry c1  #important for SAPT in psi4, default
}

set PROPERTIES_ORIGIN ["COM"]
properties('MP2/aug-cc-pvtz', properties = ['dipole'])
--------------------------------------------------------------------------

    Molecular point group: c1
  Charge       = 0
  Multiplicity = 1
  Basis Set: AUG-CC-PVTZ
    Blend: AUG-CC-PVTZ
  Basis Set: (AUG-CC-PVTZ AUX)
    Blend: AUG-CC-PVTZ-JKFIT

    Orbital Energies [Eh]
    ---------------------

    Doubly Occupied:

       1A    -20.581336     2A    -20.580961     3A    -20.557574
       4A    -20.557151     5A    -20.522045     6A    -15.636660
       7A    -15.600480     8A    -15.554254     9A    -11.388224
      10A    -11.358528    11A    -11.341448    12A    -11.310133
      13A    -11.300535    14A    -11.296535    15A    -11.296429
      16A    -11.292689    17A    -11.249961    18A     -1.429156
      19A     -1.396371    20A     -1.379715    21A     -1.371850
      22A     -1.346151    23A     -1.307104    24A     -1.275410
      25A     -1.183193    26A     -1.089355    27A     -1.067306
      28A     -1.021312    29A     -0.941755    30A     -0.926273
      31A     -0.877649    32A     -0.833709    33A     -0.812747
      34A     -0.767920    35A     -0.766416    36A     -0.735977
      37A     -0.728719    38A     -0.704129    39A     -0.698250
      40A     -0.694938    41A     -0.673396    42A     -0.655399
      43A     -0.651884    44A     -0.638671    45A     -0.630028
      46A     -0.615879    47A     -0.609359    48A     -0.594385
      49A     -0.577365    50A     -0.569868    51A     -0.554361
      52A     -0.545470    53A     -0.537786    54A     -0.531596
      55A     -0.498523    56A     -0.476792    57A     -0.474075
      58A     -0.462814    59A     -0.460201    60A     -0.452671
      61A     -0.441366    62A     -0.433455    63A     -0.395616
      64A     -0.350728

  @DF-RHF Final Energy:  -886.33851853865372

   => Energetics <=

    Nuclear Repulsion Energy =           1324.7454394774072171
    One-Electron Energy =               -3846.9438401968986909
    Two-Electron Energy =                1635.8598821808377579
    Total Energy =                       -886.3385185386537160
  Basis Set: (AUG-CC-PVTZ AUX)
    Blend: AUG-CC-PVTZ-RI
    Molecular point group: c1

    Geometry (in Angstrom), charge = 0, multiplicity = 1:

       Center              X                  Y                   Z               Mass
    ------------   -----------------  -----------------  -----------------  -----------------
         O           -1.248701559304    -0.653204725349     1.032712103530    15.994914619570
         O           -1.245575559304     2.482314274651    -0.685965896470    15.994914619570
         O           -3.217130559304     1.520562274651     0.745084103530    15.994914619570
         O           -2.357629559304    -3.067373725349     0.095137103530    15.994914619570
         O            1.359929440696     2.246497274651    -0.076344896470    15.994914619570
         N            0.842803440696     0.044686274651     0.256140103530    14.003074004430
         N            3.056625440696     0.719966274651    -0.293529896470    14.003074004430
         N            4.715862440696    -0.837191725349    -0.572100896470    14.003074004430
         C           -1.290084559304     1.077893274651    -0.591879896470    12.000000000000
         C           -2.715771559304     0.654670274651    -0.257195896470    12.000000000000
         C           -0.526008559304     0.480983274651     0.600291103530    12.000000000000
         C           -2.529856559304    -0.717422725349     0.361253103530    12.000000000000
         C           -2.528944559304    -1.850929725349    -0.639092896470    12.000000000000
         C            1.219174440696    -1.261944725349     0.311471103530    12.000000000000
         C            1.754993440696     1.066898274651    -0.059205896470    12.000000000000
         C            2.510500440696    -1.609676725349     0.047192103530    12.000000000000
         C            3.411382440696    -0.551189725349    -0.258727896470    12.000000000000
         H           -0.938206559304     0.590867274651    -1.514693896470     1.007825032230
         H           -3.363182559304     0.642128274651    -1.146267896470     1.007825032230
         H           -0.440890559304     1.221343274651     1.404195103530     1.007825032230
         H           -3.282557559304    -0.909270725349     1.130980103530     1.007825032230
         H           -1.713908559304    -1.700841725349    -1.369266896470     1.007825032230
         H           -3.486161559304    -1.834540725349    -1.183937896470     1.007825032230
         H           -0.298125559304     2.712642274651    -0.524802896470     1.007825032230
         H           -2.848156559304     2.399206274651     0.508860103530     1.007825032230
         H            0.578556040696    -1.834514125349     0.521725903530     1.007825032230
         H           -2.434474559304    -3.798968725349    -0.543035896470     1.007825032230
         H            2.828511440696    -2.645934725349     0.074119103530     1.007825032230
         H            5.124579440696    -1.671397725349    -0.162216896470     1.007825032230
         H            5.319213440696    -0.020590725349    -0.568096896470     1.007825032230

  Basis Set: AUG-CC-PVTZ
    Blend: AUG-CC-PVTZ
  Basis Set: (AUG-CC-PVTZ AUX)
    Blend: AUG-CC-PVTZ-JKFIT
	 Reference Energy          =    -886.3385185386537160 [Eh]
	 Singles Energy            =      -0.0000000000000000 [Eh]
	 Same-Spin Energy          =      -0.9005185216040897 [Eh]
	 Opposite-Spin Energy      =      -2.7140630284422387 [Eh]
	 Correlation Energy        =      -3.6145815500463283 [Eh]
	 Total Energy              =    -889.9531000887000118 [Eh]

	 ================> DF-SCS-MP2 Energies <==================
	-----------------------------------------------------------
	 SCS Same-Spin Scale       =       0.3333333333333333 [-]
	 SCS Opposite-Spin Scale   =       1.2000000000000000 [-]
	 SCS Same-Spin Energy      =      -0.3001728405346966 [Eh]
	 SCS Opposite-Spin Energy  =      -3.2568756341306861 [Eh]
	 SCS Correlation Energy    =      -3.5570484746653825 [Eh]
	 SCS Total Energy          =    -889.8955670133191234 [Eh]
	-----------------------------------------------------------

  Dipole Moment: [D]
     X:     1.8383      Y:    -5.9135      Z:    -1.8467     Total:     6.4621

*** Psi4 exiting successfully. Buy a developer a beer!
