                               Psi4 1.3.2 release

  ==> Input File <==

--------------------------------------------------------------------------
#psi4
#
memory 32 gb

molecule  {
0 1
  O       -1.2481010    -0.6526680     1.0325150
  O       -1.2449750     2.4828510    -0.6861630
  O       -3.2165300     1.5210990     0.7448870
  O       -2.3570290    -3.0668370     0.0949400
  O        1.3605300     2.2470340    -0.0765420
  N        0.8434040     0.0452230     0.2559430
  N        3.0572260     0.7205030    -0.2937270
  N        4.7164630    -0.8366550    -0.5722980
  C       -1.2170174     1.0789779    -0.5785052
  C       -2.7151710     0.6552070    -0.2573930
  C       -0.5254080     0.4815200     0.6000940
  C       -2.5292560    -0.7168860     0.3610560
  C       -2.5283440    -1.8503930    -0.6392900
  C        1.2197750    -1.2614080     0.3112740
  C        1.7555940     1.0674350    -0.0594030
  C        2.5111010    -1.6091400     0.0469950
  C        3.4119830    -0.5506530    -0.2589250
  H       -0.9376060     0.5914040    -1.5148910
  H       -3.3625820     0.6426650    -1.1464650
  H       -0.4402900     1.2218800     1.4039980
  H       -3.2819570    -0.9087340     1.1307830
  H       -1.7133080    -1.7003050    -1.3694640
  H       -3.4855610    -1.8340040    -1.1841350
  H       -0.2876097     2.6627016    -0.5194554
  H       -2.8475560     2.3997430     0.5086630
  H        0.4343110    -1.9634370     0.5690680
  H       -2.4338740    -3.7984320    -0.5432330
  H        2.8291120    -2.6453980     0.0739220
  H        5.1251800    -1.6708610    -0.1624140
  H        5.3198140    -0.0200540    -0.5682940
units angstrom
no_reorient  #important for SAPT in psi4, default
symmetry c1  #important for SAPT in psi4, default
}

set PROPERTIES_ORIGIN ["COM"]
properties('MP2/aug-cc-pvtz', properties = ['dipole'])
--------------------------------------------------------------------------

    Molecular point group: c1
  Charge       = 0
  Multiplicity = 1
  Basis Set: AUG-CC-PVTZ
    Blend: AUG-CC-PVTZ
  Basis Set: (AUG-CC-PVTZ AUX)
    Blend: AUG-CC-PVTZ-JKFIT

    Orbital Energies [Eh]
    ---------------------

    Doubly Occupied:

       1A    -20.582985     2A    -20.581998     3A    -20.559105
       4A    -20.557115     5A    -20.524124     6A    -15.637105
       7A    -15.600361     8A    -15.554223     9A    -11.389558
      10A    -11.358521    11A    -11.342025    12A    -11.328992
      13A    -11.300792    14A    -11.295734    15A    -11.295642
      16A    -11.293990    17A    -11.249063    18A     -1.430779
      19A     -1.397959    20A     -1.380233    21A     -1.373071
      22A     -1.347637    23A     -1.307209    24A     -1.274797
      25A     -1.183223    26A     -1.084330    27A     -1.062505
      28A     -1.023837    29A     -0.933265    30A     -0.910221
      31A     -0.878195    32A     -0.830737    33A     -0.813711
      34A     -0.767754    35A     -0.752809    36A     -0.735184
      37A     -0.720535    38A     -0.702969    39A     -0.697282
      40A     -0.686545    41A     -0.670753    42A     -0.655840
      43A     -0.651132    44A     -0.641214    45A     -0.621092
      46A     -0.614361    47A     -0.606095    48A     -0.596176
      49A     -0.572812    50A     -0.569874    51A     -0.559274
      52A     -0.546156    53A     -0.540543    54A     -0.532027
      55A     -0.498549    56A     -0.478000    57A     -0.468250
      58A     -0.462288    59A     -0.461389    60A     -0.452451
      61A     -0.439422    62A     -0.434141    63A     -0.396291
      64A     -0.351018

  @DF-RHF Final Energy:  -886.36602812017782

   => Energetics <=

    Nuclear Repulsion Energy =           1324.3278491515302449
    One-Electron Energy =               -3846.2572192120001091
    Two-Electron Energy =                1635.5633419402920481
    Total Energy =                       -886.3660281201778162
  Basis Set: (AUG-CC-PVTZ AUX)
    Blend: AUG-CC-PVTZ-RI
    Molecular point group: c1

    Geometry (in Angstrom), charge = 0, multiplicity = 1:

       Center              X                  Y                   Z               Mass
    ------------   -----------------  -----------------  -----------------  -----------------
         O           -1.251719480998    -0.652485759397     1.031822043184    15.994914619570
         O           -1.248593480998     2.483033240603    -0.686855956816    15.994914619570
         O           -3.220148480998     1.521281240603     0.744194043184    15.994914619570
         O           -2.360647480998    -3.066654759397     0.094247043184    15.994914619570
         O            1.356911519002     2.247216240603    -0.077234956816    15.994914619570
         N            0.839785519002     0.045405240603     0.255250043184    14.003074004430
         N            3.053607519002     0.720685240603    -0.294419956816    14.003074004430
         N            4.712844519002    -0.836472759397    -0.572990956816    14.003074004430
         C           -1.220635880998     1.079160140603    -0.579198156816    12.000000000000
         C           -2.718789480998     0.655389240603    -0.258085956816    12.000000000000
         C           -0.529026480998     0.481702240603     0.599401043184    12.000000000000
         C           -2.532874480998    -0.716703759397     0.360363043184    12.000000000000
         C           -2.531962480998    -1.850210759397    -0.639982956816    12.000000000000
         C            1.216156519002    -1.261225759397     0.310581043184    12.000000000000
         C            1.751975519002     1.067617240603    -0.060095956816    12.000000000000
         C            2.507482519002    -1.608957759397     0.046302043184    12.000000000000
         C            3.408364519002    -0.550470759397    -0.259617956816    12.000000000000
         H           -0.941224480998     0.591586240603    -1.515583956816     1.007825032230
         H           -3.366200480998     0.642847240603    -1.147157956816     1.007825032230
         H           -0.443908480998     1.222062240603     1.403305043184     1.007825032230
         H           -3.285575480998    -0.908551759397     1.130090043184     1.007825032230
         H           -1.716926480998    -1.700122759397    -1.370156956816     1.007825032230
         H           -3.489179480998    -1.833821759397    -1.184827956816     1.007825032230
         H           -0.291228180998     2.662883840603    -0.520148356816     1.007825032230
         H           -2.851174480998     2.399925240603     0.507970043184     1.007825032230
         H            0.430692519002    -1.963254759397     0.568375043184     1.007825032230
         H           -2.437492480998    -3.798249759397    -0.543925956816     1.007825032230
         H            2.825493519002    -2.645215759397     0.073229043184     1.007825032230
         H            5.121561519002    -1.670678759397    -0.163106956816     1.007825032230
         H            5.316195519002    -0.019871759397    -0.568986956816     1.007825032230

  Basis Set: AUG-CC-PVTZ
    Blend: AUG-CC-PVTZ
  Basis Set: (AUG-CC-PVTZ AUX)
    Blend: AUG-CC-PVTZ-JKFIT
	 Reference Energy          =    -886.3660281201778162 [Eh]
	 Singles Energy            =      -0.0000000000000000 [Eh]
	 Same-Spin Energy          =      -0.9021108535859597 [Eh]
	 Opposite-Spin Energy      =      -2.7164596046717584 [Eh]
	 Correlation Energy        =      -3.6185704582577181 [Eh]
	 Total Energy              =    -889.9845985784355662 [Eh]

	 ================> DF-SCS-MP2 Energies <==================
	-----------------------------------------------------------
	 SCS Same-Spin Scale       =       0.3333333333333333 [-]
	 SCS Opposite-Spin Scale   =       1.2000000000000000 [-]
	 SCS Same-Spin Energy      =      -0.3007036178619865 [Eh]
	 SCS Opposite-Spin Energy  =      -3.2597515256061098 [Eh]
	 SCS Correlation Energy    =      -3.5604551434680962 [Eh]
	 SCS Total Energy          =    -889.9264832636458777 [Eh]
	-----------------------------------------------------------

  Dipole Moment: [D]
     X:     1.7850      Y:    -5.9935      Z:    -1.8004     Total:     6.5076

*** Psi4 exiting successfully. Buy a developer a beer!
