                               Psi4 1.3.2 release

  ==> Input File <==

--------------------------------------------------------------------------
#psi4
#
memory 32 gb

molecule  {
0 1
  O       -1.2481010    -0.6526680     1.0325150
  O       -1.2449750     2.4828510    -0.6861630
  O       -3.2165300     1.5210990     0.7448870
  O       -2.3570290    -3.0668370     0.0949400
  O        1.3605300     2.2470340    -0.0765420
  N        0.8434040     0.0452230     0.2559430
  N        3.0572260     0.7205030    -0.2937270
  N        4.7164630    -0.8366550    -0.5722980
  C       -1.2894840     1.0784300    -0.5920770
  C       -2.7151710     0.6552070    -0.2573930
  C       -0.5254080     0.4815200     0.6000940
  C       -2.5292560    -0.7168860     0.3610560
  C       -2.5283440    -1.8503930    -0.6392900
  C        1.2197750    -1.2614080     0.3112740
  C        1.7555940     1.0674350    -0.0594030
  C        2.5111010    -1.6091400     0.0469950
  C        3.3582397    -0.3580813    -0.2641973
  H       -0.9376060     0.5914040    -1.5148910
  H       -3.3625820     0.6426650    -1.1464650
  H       -0.4402900     1.2218800     1.4039980
  H       -3.2819570    -0.9087340     1.1307830
  H       -1.7133080    -1.7003050    -1.3694640
  H       -3.4855610    -1.8340040    -1.1841350
  H       -0.2975250     2.7131790    -0.5250000
  H       -2.8475560     2.3997430     0.5086630
  H        0.4343110    -1.9634370     0.5690680
  H       -2.4338740    -3.7984320    -0.5432330
  H        2.8291120    -2.6453980     0.0739220
  H        5.1251800    -1.6708610    -0.1624140
  H        5.3198140    -0.0200540    -0.5682940
units angstrom
no_reorient  #important for SAPT in psi4, default
symmetry c1  #important for SAPT in psi4, default
}

set PROPERTIES_ORIGIN ["COM"]
properties('MP2/aug-cc-pvtz', properties = ['dipole'])
--------------------------------------------------------------------------

    Molecular point group: c1
  Charge       = 0
  Multiplicity = 1
  Basis Set: AUG-CC-PVTZ
    Blend: AUG-CC-PVTZ
  Basis Set: (AUG-CC-PVTZ AUX)
    Blend: AUG-CC-PVTZ-JKFIT

    Orbital Energies [Eh]
    ---------------------

    Doubly Occupied:

       1A    -20.582726     2A    -20.581621     3A    -20.562729
       4A    -20.560017     5A    -20.545628     6A    -15.637125
       7A    -15.575222     8A    -15.562212     9A    -11.412874
      10A    -11.344674    11A    -11.344568    12A    -11.312048
      13A    -11.301241    14A    -11.299671    15A    -11.297940
      16A    -11.294971    17A    -11.250275    18A     -1.438251
      19A     -1.416512    20A     -1.383369    21A     -1.373205
      22A     -1.353732    23A     -1.345999    24A     -1.283295
      25A     -1.177911    26A     -1.070929    27A     -1.069240
      28A     -1.018065    29A     -0.944316    30A     -0.906825
      31A     -0.888667    32A     -0.835759    33A     -0.810927
      34A     -0.757894    35A     -0.754914    36A     -0.739244
      37A     -0.715315    38A     -0.701818    39A     -0.700392
      40A     -0.681209    41A     -0.665563    42A     -0.664717
      43A     -0.657967    44A     -0.646816    45A     -0.624942
      46A     -0.622400    47A     -0.605224    48A     -0.589765
      49A     -0.579123    50A     -0.572141    51A     -0.557412
      52A     -0.549453    53A     -0.540149    54A     -0.531729
      55A     -0.503811    56A     -0.483552    57A     -0.477217
      58A     -0.475199    59A     -0.461397    60A     -0.455922
      61A     -0.439908    62A     -0.435859    63A     -0.414625
      64A     -0.344587

  @DF-RHF Final Energy:  -886.30741579072924

   => Energetics <=

    Nuclear Repulsion Energy =           1326.1539102534327412
    One-Electron Energy =               -3849.4570346261298255
    Two-Electron Energy =                1636.9957085819680742
    Total Energy =                       -886.3074157907292374
  Basis Set: (AUG-CC-PVTZ AUX)
    Blend: AUG-CC-PVTZ-RI
    Molecular point group: c1

    Geometry (in Angstrom), charge = 0, multiplicity = 1:

       Center              X                  Y                   Z               Mass
    ------------   -----------------  -----------------  -----------------  -----------------
         O           -1.245447977520    -0.662174357805     1.032775276376    15.994914619570
         O           -1.242321977520     2.473344642195    -0.685902723624    15.994914619570
         O           -3.213876977520     1.511592642195     0.745147276376    15.994914619570
         O           -2.354375977520    -3.076343357805     0.095200276376    15.994914619570
         O            1.363183022480     2.237527642195    -0.076281723624    15.994914619570
         N            0.846057022480     0.035716642195     0.256203276376    14.003074004430
         N            3.059879022480     0.710996642195    -0.293466723624    14.003074004430
         N            4.719116022480    -0.846161357805    -0.572037723624    14.003074004430
         C           -1.286830977520     1.068923642195    -0.591816723624    12.000000000000
         C           -2.712517977520     0.645700642195    -0.257132723624    12.000000000000
         C           -0.522754977520     0.472013642195     0.600354276376    12.000000000000
         C           -2.526602977520    -0.726392357805     0.361316276376    12.000000000000
         C           -2.525690977520    -1.859899357805    -0.639029723624    12.000000000000
         C            1.222428022480    -1.270914357805     0.311534276376    12.000000000000
         C            1.758247022480     1.057928642195    -0.059142723624    12.000000000000
         C            2.513754022480    -1.618646357805     0.047255276376    12.000000000000
         C            3.360892722480    -0.367587657805    -0.263937023624    12.000000000000
         H           -0.934952977520     0.581897642195    -1.514630723624     1.007825032230
         H           -3.359928977520     0.633158642195    -1.146204723624     1.007825032230
         H           -0.437636977520     1.212373642195     1.404258276376     1.007825032230
         H           -3.279303977520    -0.918240357805     1.131043276376     1.007825032230
         H           -1.710654977520    -1.709811357805    -1.369203723624     1.007825032230
         H           -3.482907977520    -1.843510357805    -1.183874723624     1.007825032230
         H           -0.294871977520     2.703672642195    -0.524739723624     1.007825032230
         H           -2.844902977520     2.390236642195     0.508923276376     1.007825032230
         H            0.436964022480    -1.972943357805     0.569328276376     1.007825032230
         H           -2.431220977520    -3.807938357805    -0.542972723624     1.007825032230
         H            2.831765022480    -2.654904357805     0.074182276376     1.007825032230
         H            5.127833022480    -1.680367357805    -0.162153723624     1.007825032230
         H            5.322467022480    -0.029560357805    -0.568033723624     1.007825032230

  Basis Set: AUG-CC-PVTZ
    Blend: AUG-CC-PVTZ
  Basis Set: (AUG-CC-PVTZ AUX)
    Blend: AUG-CC-PVTZ-JKFIT
	 Reference Energy          =    -886.3074157907292374 [Eh]
	 Singles Energy            =      -0.0000000000000000 [Eh]
	 Same-Spin Energy          =      -0.8989186901627660 [Eh]
	 Opposite-Spin Energy      =      -2.7138335528913853 [Eh]
	 Correlation Energy        =      -3.6127522430541514 [Eh]
	 Total Energy              =    -889.9201680337833977 [Eh]

	 ================> DF-SCS-MP2 Energies <==================
	-----------------------------------------------------------
	 SCS Same-Spin Scale       =       0.3333333333333333 [-]
	 SCS Opposite-Spin Scale   =       1.2000000000000000 [-]
	 SCS Same-Spin Energy      =      -0.2996395633875887 [Eh]
	 SCS Opposite-Spin Energy  =      -3.2566002634696622 [Eh]
	 SCS Correlation Energy    =      -3.5562398268572508 [Eh]
	 SCS Total Energy          =    -889.8636556175864598 [Eh]
	-----------------------------------------------------------

  Dipole Moment: [D]
     X:     0.9113      Y:    -4.8189      Z:    -1.7452     Total:     5.2056

*** Psi4 exiting successfully. Buy a developer a beer!
