                               Psi4 1.4a3.dev225

  ==> Input File <==

--------------------------------------------------------------------------
#psi4
#
memory 32 gb

molecule  {
0 1
  O       -1.3191770     0.6538360    -1.0992360
  O       -1.5735610    -2.4640850     0.5135810
  O       -3.5606630    -1.0699430    -0.4600060
  O       -1.4399290     3.1254620     0.1265180
  O        1.1065530    -2.3833650     0.0076020
  N        0.7686360    -0.1579440    -0.3706350
  N        2.9363770    -0.9938720     0.1460080
  N        4.7058880     0.4431110     0.3611260
  C       -1.3768610    -1.0680440     0.5552780
  C       -2.7379840    -0.3746360     0.4578480
  C       -0.6377490    -0.5042940    -0.6790150
  C       -2.3561891     0.9612306    -0.1715268
  C       -1.8992030     1.9895750     0.8571380
  C        1.2309690     1.1190800    -0.4442230
  C        1.6104480    -1.2470590    -0.0585760
  C        2.5474650     1.3753690    -0.1998620
  C        3.3802090     0.2523040     0.0808410
  H       -0.8441360    -0.7686950     1.4698480
  H       -3.2257400    -0.2778790     1.4400230
  H       -0.6227070    -1.2428120    -1.4883720
  H       -3.1941750     1.3785730    -0.7472070
  H       -1.0952130     1.5703990     1.4802000
  H       -2.7410530     2.2466610     1.5166010
  H       -0.6710550    -2.8260740     0.3542250
  H       -3.3063470    -2.0105220    -0.3629290
  H        0.4929290     1.8778260    -0.6840360
  H       -1.2098800     3.8154810     0.7720340
  H        2.9334840     2.3875570    -0.2389120
  H        5.1589650     1.2712730    -0.0008400
  H        5.2635310    -0.4031270     0.3606700
units angstrom
no_reorient  #important for SAPT in psi4, default
symmetry c1  #important for SAPT in psi4, default
}

set PROPERTIES_ORIGIN ["COM"]
properties('MP2/aug-cc-pvtz', properties = ['dipole'])
--------------------------------------------------------------------------

    Molecular point group: c1
  Charge       = 0
  Multiplicity = 1
  Basis Set: AUG-CC-PVTZ
    Blend: AUG-CC-PVTZ
  Basis Set: (AUG-CC-PVTZ AUX)
    Blend: AUG-CC-PVTZ-JKFIT

    Orbital Energies [Eh]
    ---------------------

    Doubly Occupied:

       1A    -20.585967     2A    -20.583546     3A    -20.559365
       4A    -20.556019     5A    -20.520081     6A    -15.633569
       7A    -15.599938     8A    -15.552100     9A    -11.386381
      10A    -11.358400    11A    -11.340729    12A    -11.325574
      13A    -11.302610    14A    -11.297355    15A    -11.296896
      16A    -11.292864    17A    -11.246937    18A     -1.433793
      19A     -1.395024    20A     -1.382557    21A     -1.376407
      22A     -1.346337    23A     -1.304155    24A     -1.272141
      25A     -1.181620    26A     -1.079955    27A     -1.065849
      28A     -1.017730    29A     -0.936094    30A     -0.907351
      31A     -0.876621    32A     -0.830140    33A     -0.812896
      34A     -0.766871    35A     -0.751240    36A     -0.735202
      37A     -0.722380    38A     -0.707421    39A     -0.703632
      40A     -0.685487    41A     -0.674983    42A     -0.653491
      43A     -0.649769    44A     -0.634225    45A     -0.621348
      46A     -0.615505    47A     -0.608770    48A     -0.593256
      49A     -0.577352    50A     -0.565809    51A     -0.556226
      52A     -0.547429    53A     -0.537673    54A     -0.531049
      55A     -0.495590    56A     -0.480303    57A     -0.471609
      58A     -0.463035    59A     -0.458292    60A     -0.452657
      61A     -0.441880    62A     -0.430481    63A     -0.392571
      64A     -0.348616

  @DF-RHF Final Energy:  -886.37425120474745

   => Energetics <=

    Nuclear Repulsion Energy =           1334.8961547940332366
    One-Electron Energy =               -3867.4785122540424709
    Two-Electron Energy =                1646.2081062552615549
    Total Energy =                       -886.3742512047474520
  Basis Set: (AUG-CC-PVTZ AUX)
    Blend: AUG-CC-PVTZ-RI
    Molecular point group: c1

    Geometry (in Angstrom), charge = 0, multiplicity = 1:

       Center              X                  Y                   Z               Mass
    ------------   -----------------  -----------------  -----------------  -----------------
         O           -1.332639162421     0.682660448581    -1.082813012841    15.994914619570
         O           -1.587023162421    -2.435260551419     0.530003987159    15.994914619570
         O           -3.574125162421    -1.041118551419    -0.443583012841    15.994914619570
         O           -1.453391162421     3.154286448581     0.142940987159    15.994914619570
         O            1.093090837579    -2.354540551419     0.024024987159    15.994914619570
         N            0.755173837579    -0.129119551419    -0.354212012841    14.003074004430
         N            2.922914837579    -0.965047551419     0.162430987159    14.003074004430
         N            4.692425837579     0.471935448581     0.377548987159    14.003074004430
         C           -1.390323162421    -1.039219551419     0.571700987159    12.000000000000
         C           -2.751446162421    -0.345811551419     0.474270987159    12.000000000000
         C           -0.651211162421    -0.475469551419    -0.662592012841    12.000000000000
         C           -2.369651262421     0.990055048581    -0.155103812841    12.000000000000
         C           -1.912665162421     2.018399448581     0.873560987159    12.000000000000
         C            1.217506837579     1.147904448581    -0.427800012841    12.000000000000
         C            1.596985837579    -1.218234551419    -0.042153012841    12.000000000000
         C            2.534002837579     1.404193448581    -0.183439012841    12.000000000000
         C            3.366746837579     0.281128448581     0.097263987159    12.000000000000
         H           -0.857598162421    -0.739870551419     1.486270987159     1.007825032230
         H           -3.239202162421    -0.249054551419     1.456445987159     1.007825032230
         H           -0.636169162421    -1.213987551419    -1.471949012841     1.007825032230
         H           -3.207637162421     1.407397448581    -0.730784012841     1.007825032230
         H           -1.108675162421     1.599223448581     1.496622987159     1.007825032230
         H           -2.754515162421     2.275485448581     1.533023987159     1.007825032230
         H           -0.684517162421    -2.797249551419     0.370647987159     1.007825032230
         H           -3.319809162421    -1.981697551419    -0.346506012841     1.007825032230
         H            0.479466837579     1.906650448581    -0.667613012841     1.007825032230
         H           -1.223342162421     3.844305448581     0.788456987159     1.007825032230
         H            2.920021837579     2.416381448581    -0.222489012841     1.007825032230
         H            5.145502837579     1.300097448581     0.015582987159     1.007825032230
         H            5.250068837579    -0.374302551419     0.377092987159     1.007825032230

  Basis Set: AUG-CC-PVTZ
    Blend: AUG-CC-PVTZ
  Basis Set: (AUG-CC-PVTZ AUX)
    Blend: AUG-CC-PVTZ-JKFIT
	 Reference Energy          =    -886.3742512047474520 [Eh]
	 Singles Energy            =      -0.0000000000000000 [Eh]
	 Same-Spin Energy          =      -0.9017598677355706 [Eh]
	 Opposite-Spin Energy      =      -2.7156786069650449 [Eh]
	 Correlation Energy        =      -3.6174384747006156 [Eh]
	 Total Energy              =    -889.9916896794480863 [Eh]

	 ================> DF-SCS-MP2 Energies <==================
	-----------------------------------------------------------
	 SCS Same-Spin Scale       =       0.3333333333333333 [-]
	 SCS Opposite-Spin Scale   =       1.2000000000000000 [-]
	 SCS Same-Spin Energy      =      -0.3005866225785235 [Eh]
	 SCS Opposite-Spin Energy  =      -3.2588143283580537 [Eh]
	 SCS Correlation Energy    =      -3.5594009509365772 [Eh]
	 SCS Total Energy          =    -889.9336521556840580 [Eh]
	-----------------------------------------------------------

  Dipole Moment: [D]
     X:     2.7985      Y:     5.7686      Z:     1.9136     Total:     6.6910

*** Psi4 exiting successfully. Buy a developer a beer!
