                               Psi4 1.3.2 release

  ==> Input File <==

--------------------------------------------------------------------------
#psi4
#
memory 32 gb

molecule  {
0 1
  O       -1.2481010    -0.6526680     1.0325150
  O       -1.2449750     2.4828510    -0.6861630
  O       -3.2165300     1.5210990     0.7448870
  O       -2.3570290    -3.0668370     0.0949400
  O        1.3605300     2.2470340    -0.0765420
  N        0.8434040     0.0452230     0.2559430
  N        3.0572260     0.7205030    -0.2937270
  N        4.7164630    -0.8366550    -0.5722980
  C       -1.2894840     1.0784300    -0.5920770
  C       -2.7151710     0.6552070    -0.2573930
  C       -0.5254080     0.4815200     0.6000940
  C       -2.5292560    -0.7168860     0.3610560
  C       -2.5283440    -1.8503930    -0.6392900
  C        1.2197750    -1.2614080     0.3112740
  C        1.7555940     1.0674350    -0.0594030
  C        2.5055002    -1.6319603     0.0507256
  C        3.4119830    -0.5506530    -0.2589250
  H       -0.9376060     0.5914040    -1.5148910
  H       -3.3625820     0.6426650    -1.1464650
  H       -0.4402900     1.2218800     1.4039980
  H       -3.2819570    -0.9087340     1.1307830
  H       -1.7133080    -1.7003050    -1.3694640
  H       -3.4855610    -1.8340040    -1.1841350
  H       -0.2975250     2.7131790    -0.5250000
  H       -2.8475560     2.3997430     0.5086630
  H        0.4467620    -1.9776257     0.5676709
  H       -2.4338740    -3.7984320    -0.5432330
  H        2.8291120    -2.6453980     0.0739220
  H        5.1251800    -1.6708610    -0.1624140
  H        5.3198140    -0.0200540    -0.5682940
units angstrom
no_reorient  #important for SAPT in psi4, default
symmetry c1  #important for SAPT in psi4, default
}

set PROPERTIES_ORIGIN ["COM"]
properties('MP2/aug-cc-pvtz', properties = ['dipole'])
--------------------------------------------------------------------------

    Molecular point group: c1
  Charge       = 0
  Multiplicity = 1
  Basis Set: AUG-CC-PVTZ
    Blend: AUG-CC-PVTZ
  Basis Set: (AUG-CC-PVTZ AUX)
    Blend: AUG-CC-PVTZ-JKFIT

    Orbital Energies [Eh]
    ---------------------

    Doubly Occupied:

       1A    -20.581834     2A    -20.580926     3A    -20.557549
       4A    -20.557148     5A    -20.522763     6A    -15.636584
       7A    -15.600595     8A    -15.554151     9A    -11.388938
      10A    -11.360114    11A    -11.341300    12A    -11.327410
      13A    -11.300767    14A    -11.296486    15A    -11.296368
      16A    -11.292665    17A    -11.248775    18A     -1.428856
      19A     -1.396499    20A     -1.379846    21A     -1.372412
      22A     -1.346129    23A     -1.305432    24A     -1.273543
      25A     -1.182596    26A     -1.081142    27A     -1.067328
      28A     -1.020796    29A     -0.934405    30A     -0.907422
      31A     -0.877742    32A     -0.832520    33A     -0.811303
      34A     -0.766096    35A     -0.752900    36A     -0.736159
      37A     -0.719758    38A     -0.702682    39A     -0.698252
      40A     -0.685988    41A     -0.673602    42A     -0.654670
      43A     -0.653725    44A     -0.638807    45A     -0.618413
      46A     -0.613771    47A     -0.604594    48A     -0.596475
      49A     -0.575235    50A     -0.569134    51A     -0.553794
      52A     -0.545548    53A     -0.537321    54A     -0.531522
      55A     -0.498075    56A     -0.477163    57A     -0.474183
      58A     -0.462127    59A     -0.460299    60A     -0.452577
      61A     -0.440402    62A     -0.433015    63A     -0.395308
      64A     -0.350163

  @DF-RHF Final Energy:  -886.37326794660692

   => Energetics <=

    Nuclear Repulsion Energy =           1323.2223101262934506
    One-Electron Energy =               -3844.1229504848251963
    Two-Electron Energy =                1634.5273724119249437
    Total Energy =                       -886.3732679466068021
  Basis Set: (AUG-CC-PVTZ AUX)
    Blend: AUG-CC-PVTZ-RI
    Molecular point group: c1

    Geometry (in Angstrom), charge = 0, multiplicity = 1:

       Center              X                  Y                   Z               Mass
    ------------   -----------------  -----------------  -----------------  -----------------
         O           -1.247876169986    -0.651482632023     1.032336637467    15.994914619570
         O           -1.244750169986     2.484036367977    -0.686341362533    15.994914619570
         O           -3.216305169986     1.522284367977     0.744708637467    15.994914619570
         O           -2.356804169986    -3.065651632023     0.094761637467    15.994914619570
         O            1.360754830014     2.248219367977    -0.076720362533    15.994914619570
         N            0.843628830014     0.046408367977     0.255764637467    14.003074004430
         N            3.057450830014     0.721688367977    -0.293905362533    14.003074004430
         N            4.716687830014    -0.835469632023    -0.572476362533    14.003074004430
         C           -1.289259169986     1.079615367977    -0.592255362533    12.000000000000
         C           -2.714946169986     0.656392367977    -0.257571362533    12.000000000000
         C           -0.525183169986     0.482705367977     0.599915637467    12.000000000000
         C           -2.529031169986    -0.715700632023     0.360877637467    12.000000000000
         C           -2.528119169986    -1.849207632023    -0.639468362533    12.000000000000
         C            1.219999830014    -1.260222632023     0.311095637467    12.000000000000
         C            1.755818830014     1.068620367977    -0.059581362533    12.000000000000
         C            2.505725030014    -1.630774932023     0.050547237467    12.000000000000
         C            3.412207830014    -0.549467632023    -0.259103362533    12.000000000000
         H           -0.937381169986     0.592589367977    -1.515069362533     1.007825032230
         H           -3.362357169986     0.643850367977    -1.146643362533     1.007825032230
         H           -0.440065169986     1.223065367977     1.403819637467     1.007825032230
         H           -3.281732169986    -0.907548632023     1.130604637467     1.007825032230
         H           -1.713083169986    -1.699119632023    -1.369642362533     1.007825032230
         H           -3.485336169986    -1.832818632023    -1.184313362533     1.007825032230
         H           -0.297300169986     2.714364367977    -0.525178362533     1.007825032230
         H           -2.847331169986     2.400928367977     0.508484637467     1.007825032230
         H            0.446986830014    -1.976440332023     0.567492537467     1.007825032230
         H           -2.433649169986    -3.797246632023    -0.543411362533     1.007825032230
         H            2.829336830014    -2.644212632023     0.073743637467     1.007825032230
         H            5.125404830014    -1.669675632023    -0.162592362533     1.007825032230
         H            5.320038830014    -0.018868632023    -0.568472362533     1.007825032230

  Basis Set: AUG-CC-PVTZ
    Blend: AUG-CC-PVTZ
  Basis Set: (AUG-CC-PVTZ AUX)
    Blend: AUG-CC-PVTZ-JKFIT
	 Reference Energy          =    -886.3732679466069158 [Eh]
	 Singles Energy            =      -0.0000000000000000 [Eh]
	 Same-Spin Energy          =      -0.9008667392153633 [Eh]
	 Opposite-Spin Energy      =      -2.7146648129100965 [Eh]
	 Correlation Energy        =      -3.6155315521254598 [Eh]
	 Total Energy              =    -889.9887994987324191 [Eh]

	 ================> DF-SCS-MP2 Energies <==================
	-----------------------------------------------------------
	 SCS Same-Spin Scale       =       0.3333333333333333 [-]
	 SCS Opposite-Spin Scale   =       1.2000000000000000 [-]
	 SCS Same-Spin Energy      =      -0.3002889130717877 [Eh]
	 SCS Opposite-Spin Energy  =      -3.2575977754921159 [Eh]
	 SCS Correlation Energy    =      -3.5578866885639036 [Eh]
	 SCS Total Energy          =    -889.9311546351708557 [Eh]
	-----------------------------------------------------------

  Dipole Moment: [D]
     X:     1.7826      Y:    -5.9341      Z:    -1.8375     Total:     6.4628

*** Psi4 exiting successfully. Buy a developer a beer!
