                               Psi4 1.3.2 release

  ==> Input File <==

--------------------------------------------------------------------------
#psi4
#
memory 32 gb

molecule  {
0 1
  O       -1.2481010    -0.6526680     1.0325150
  O       -1.2449750     2.4828510    -0.6861630
  O       -3.2165300     1.5210990     0.7448870
  O       -2.3570290    -3.0668370     0.0949400
  O        1.3605300     2.2470340    -0.0765420
  N        0.8434040     0.0452230     0.2559430
  N        3.0572260     0.7205030    -0.2937270
  N        4.7164630    -0.8366550    -0.5722980
  C       -1.2894840     1.0784300    -0.5920770
  C       -2.7151710     0.6552070    -0.2573930
  C       -0.5443840     0.4072156     0.6101282
  C       -2.5292560    -0.7168860     0.3610560
  C       -2.5283440    -1.8503930    -0.6392900
  C        1.2197750    -1.2614080     0.3112740
  C        1.8069010     1.0157352    -0.0699876
  C        2.5111010    -1.6091400     0.0469950
  C        3.4119830    -0.5506530    -0.2589250
  H       -0.9376060     0.5914040    -1.5148910
  H       -3.3625820     0.6426650    -1.1464650
  H       -0.4402900     1.2218800     1.4039980
  H       -3.2819570    -0.9087340     1.1307830
  H       -1.7133080    -1.7003050    -1.3694640
  H       -3.4855610    -1.8340040    -1.1841350
  H       -0.2975250     2.7131790    -0.5250000
  H       -2.8475560     2.3997430     0.5086630
  H        0.4343110    -1.9634370     0.5690680
  H       -2.4338740    -3.7984320    -0.5432330
  H        2.8291120    -2.6453980     0.0739220
  H        5.1251800    -1.6708610    -0.1624140
  H        5.3198140    -0.0200540    -0.5682940
units angstrom
no_reorient  #important for SAPT in psi4, default
symmetry c1  #important for SAPT in psi4, default
}

set PROPERTIES_ORIGIN ["COM"]
properties('MP2/aug-cc-pvtz', properties = ['dipole'])
--------------------------------------------------------------------------

    Molecular point group: c1
  Charge       = 0
  Multiplicity = 1
  Basis Set: AUG-CC-PVTZ
    Blend: AUG-CC-PVTZ
  Basis Set: (AUG-CC-PVTZ AUX)
    Blend: AUG-CC-PVTZ-JKFIT

    Orbital Energies [Eh]
    ---------------------

    Doubly Occupied:

       1A    -20.588708     2A    -20.584736     3A    -20.555905
       4A    -20.552139     5A    -20.501000     6A    -15.639470
       7A    -15.606303     8A    -15.559062     9A    -11.384298
      10A    -11.366331    11A    -11.341994    12A    -11.331019
      13A    -11.304021    14A    -11.301461    15A    -11.293659
      16A    -11.291472    17A    -11.252204    18A     -1.450625
      19A     -1.382675    20A     -1.377811    21A     -1.375935
      22A     -1.342540    23A     -1.294938    24A     -1.270239
      25A     -1.200032    26A     -1.083067    27A     -1.072792
      28A     -1.018529    29A     -0.936836    30A     -0.912046
      31A     -0.885279    32A     -0.832497    33A     -0.816629
      34A     -0.775540    35A     -0.753807    36A     -0.732566
      37A     -0.723157    38A     -0.704393    39A     -0.699129
      40A     -0.690282    41A     -0.676569    42A     -0.655399
      43A     -0.647993    44A     -0.640128    45A     -0.624786
      46A     -0.615181    47A     -0.608030    48A     -0.581714
      49A     -0.577044    50A     -0.571676    51A     -0.554840
      52A     -0.545332    53A     -0.534857    54A     -0.524886
      55A     -0.488680    56A     -0.478984    57A     -0.473349
      58A     -0.463380    59A     -0.451194    60A     -0.450002
      61A     -0.438249    62A     -0.427360    63A     -0.395324
      64A     -0.349107

  @DF-RHF Final Energy:  -886.35710482648074

   => Energetics <=

    Nuclear Repulsion Energy =           1324.1542808699462057
    One-Electron Energy =               -3845.9043843590443430
    Two-Electron Energy =                1635.3929986626176287
    Total Energy =                       -886.3571048264807359
  Basis Set: (AUG-CC-PVTZ AUX)
    Blend: AUG-CC-PVTZ-RI
    Molecular point group: c1

    Geometry (in Angstrom), charge = 0, multiplicity = 1:

       Center              X                  Y                   Z               Mass
    ------------   -----------------  -----------------  -----------------  -----------------
         O           -1.249697064828    -0.646447749360     1.032542178165    15.994914619570
         O           -1.246571064828     2.489071250640    -0.686135821835    15.994914619570
         O           -3.218126064828     1.527319250640     0.744914178165    15.994914619570
         O           -2.358625064828    -3.060616749360     0.094967178165    15.994914619570
         O            1.358933935172     2.253254250640    -0.076514821835    15.994914619570
         N            0.841807935172     0.051443250640     0.255970178165    14.003074004430
         N            3.055629935172     0.726723250640    -0.293699821835    14.003074004430
         N            4.714866935172    -0.830434749360    -0.572270821835    14.003074004430
         C           -1.291080064828     1.084650250640    -0.592049821835    12.000000000000
         C           -2.716767064828     0.661427250640    -0.257365821835    12.000000000000
         C           -0.545980064828     0.413435850640     0.610155378165    12.000000000000
         C           -2.530852064828    -0.710665749360     0.361083178165    12.000000000000
         C           -2.529940064828    -1.844172749360    -0.639262821835    12.000000000000
         C            1.218178935172    -1.255187749360     0.311301178165    12.000000000000
         C            1.805304935172     1.021955450640    -0.069960421835    12.000000000000
         C            2.509504935172    -1.602919749360     0.047022178165    12.000000000000
         C            3.410386935172    -0.544432749360    -0.258897821835    12.000000000000
         H           -0.939202064828     0.597624250640    -1.514863821835     1.007825032230
         H           -3.364178064828     0.648885250640    -1.146437821835     1.007825032230
         H           -0.441886064828     1.228100250640     1.404025178165     1.007825032230
         H           -3.283553064828    -0.902513749360     1.130810178165     1.007825032230
         H           -1.714904064828    -1.694084749360    -1.369436821835     1.007825032230
         H           -3.487157064828    -1.827783749360    -1.184107821835     1.007825032230
         H           -0.299121064828     2.719399250640    -0.524972821835     1.007825032230
         H           -2.849152064828     2.405963250640     0.508690178165     1.007825032230
         H            0.432714935172    -1.957216749360     0.569095178165     1.007825032230
         H           -2.435470064828    -3.792211749360    -0.543205821835     1.007825032230
         H            2.827515935172    -2.639177749360     0.073949178165     1.007825032230
         H            5.123583935172    -1.664640749360    -0.162386821835     1.007825032230
         H            5.318217935172    -0.013833749360    -0.568266821835     1.007825032230

  Basis Set: AUG-CC-PVTZ
    Blend: AUG-CC-PVTZ
  Basis Set: (AUG-CC-PVTZ AUX)
    Blend: AUG-CC-PVTZ-JKFIT
	 Reference Energy          =    -886.3571048264807359 [Eh]
	 Singles Energy            =      -0.0000000000000000 [Eh]
	 Same-Spin Energy          =      -0.9027268142657980 [Eh]
	 Opposite-Spin Energy      =      -2.7158720477303144 [Eh]
	 Correlation Energy        =      -3.6185988619961122 [Eh]
	 Total Energy              =    -889.9757036884768695 [Eh]

	 ================> DF-SCS-MP2 Energies <==================
	-----------------------------------------------------------
	 SCS Same-Spin Scale       =       0.3333333333333333 [-]
	 SCS Opposite-Spin Scale   =       1.2000000000000000 [-]
	 SCS Same-Spin Energy      =      -0.3009089380885993 [Eh]
	 SCS Opposite-Spin Energy  =      -3.2590464572763773 [Eh]
	 SCS Correlation Energy    =      -3.5599553953649767 [Eh]
	 SCS Total Energy          =    -889.9170602218457589 [Eh]
	-----------------------------------------------------------

  Dipole Moment: [D]
     X:     1.9033      Y:    -6.7579      Z:    -1.8383     Total:     7.2575

*** Psi4 exiting successfully. Buy a developer a beer!
