                               Psi4 1.3.2 release

  ==> Input File <==

--------------------------------------------------------------------------
#psi4
#
memory 32 gb

molecule  {
0 1
  O       -1.2481010    -0.6526680     1.0325150
  O       -1.2449750     2.4828510    -0.6861630
  O       -3.2165300     1.5210990     0.7448870
  O       -2.3570290    -3.0668370     0.0949400
  O        1.3605300     2.2470340    -0.0765420
  N        0.8434040     0.0452230     0.2559430
  N        3.0572260     0.7205030    -0.2937270
  N        4.7164630    -0.8366550    -0.5722980
  C       -1.2894840     1.0784300    -0.5920770
  C       -2.7151710     0.6552070    -0.2573930
  C       -0.5254080     0.4815200     0.6000940
  C       -2.5292560    -0.7168860     0.3610560
  C       -2.5283440    -1.8503930    -0.6392900
  C        1.2197750    -1.2614080     0.3112740
  C        1.7555940     1.0674350    -0.0594030
  C        2.5111010    -1.6091400     0.0469950
  C        3.4119830    -0.5506530    -0.2589250
  H       -0.9376060     0.5914040    -1.5148910
  H       -3.4214437     0.6415247    -1.2272982
  H       -0.4402900     1.2218800     1.4039980
  H       -3.2819570    -0.9087340     1.1307830
  H       -1.7133080    -1.7003050    -1.3694640
  H       -3.4855610    -1.8340040    -1.1841350
  H       -0.2975250     2.7131790    -0.5250000
  H       -2.8475560     2.3997430     0.5086630
  H        0.4343110    -1.9634370     0.5690680
  H       -2.4338740    -3.7984320    -0.5432330
  H        2.8291120    -2.6453980     0.0739220
  H        5.1251800    -1.6708610    -0.1624140
  H        5.3198140    -0.0200540    -0.5682940
units angstrom
no_reorient  #important for SAPT in psi4, default
symmetry c1  #important for SAPT in psi4, default
}

set PROPERTIES_ORIGIN ["COM"]
properties('MP2/aug-cc-pvtz', properties = ['dipole'])
--------------------------------------------------------------------------

    Molecular point group: c1
  Charge       = 0
  Multiplicity = 1
  Basis Set: AUG-CC-PVTZ
    Blend: AUG-CC-PVTZ
  Basis Set: (AUG-CC-PVTZ AUX)
    Blend: AUG-CC-PVTZ-JKFIT

    Orbital Energies [Eh]
    ---------------------

    Doubly Occupied:

       1A    -20.582596     2A    -20.581986     3A    -20.560246
       4A    -20.557621     5A    -20.522335     6A    -15.637400
       7A    -15.600096     8A    -15.553641     9A    -11.388622
      10A    -11.358156    11A    -11.342425    12A    -11.328874
      13A    -11.304720    14A    -11.300853    15A    -11.297917
      16A    -11.297688    17A    -11.248883    18A     -1.430176
      19A     -1.396838    20A     -1.380738    21A     -1.372895
      22A     -1.347345    23A     -1.306404    24A     -1.274185
      25A     -1.182552    26A     -1.082366    27A     -1.066165
      28A     -1.021807    29A     -0.934538    30A     -0.909833
      31A     -0.876887    32A     -0.832824    33A     -0.805493
      34A     -0.767128    35A     -0.750969    36A     -0.736602
      37A     -0.718575    38A     -0.703309    39A     -0.699039
      40A     -0.685956    41A     -0.670323    42A     -0.653614
      43A     -0.651767    44A     -0.636526    45A     -0.620855
      46A     -0.613807    47A     -0.607124    48A     -0.593540
      49A     -0.572624    50A     -0.570275    51A     -0.554486
      52A     -0.545742    53A     -0.538175    54A     -0.532000
      55A     -0.498641    56A     -0.477478    57A     -0.474536
      58A     -0.462297    59A     -0.458762    60A     -0.452420
      61A     -0.438652    62A     -0.433497    63A     -0.395393
      64A     -0.350334

  @DF-RHF Final Energy:  -886.36652615113076

   => Energetics <=

    Nuclear Repulsion Energy =           1323.0935879620917603
    One-Electron Energy =               -3843.8211272791413649
    Two-Electron Energy =                1634.3610131659186209
    Total Energy =                       -886.3665261511307563
  Basis Set: (AUG-CC-PVTZ AUX)
    Blend: AUG-CC-PVTZ-RI
    Molecular point group: c1

    Geometry (in Angstrom), charge = 0, multiplicity = 1:

       Center              X                  Y                   Z               Mass
    ------------   -----------------  -----------------  -----------------  -----------------
         O           -1.247856995153    -0.652663262213     1.032850139422    15.994914619570
         O           -1.244730995153     2.482855737787    -0.685827860578    15.994914619570
         O           -3.216285995153     1.521103737787     0.745222139422    15.994914619570
         O           -2.356784995153    -3.066832262213     0.095275139422    15.994914619570
         O            1.360774004847     2.247038737787    -0.076206860578    15.994914619570
         N            0.843648004847     0.045227737787     0.256278139422    14.003074004430
         N            3.057470004847     0.720507737787    -0.293391860578    14.003074004430
         N            4.716707004847    -0.836650262213    -0.571962860578    14.003074004430
         C           -1.289239995153     1.078434737787    -0.591741860578    12.000000000000
         C           -2.714926995153     0.655211737787    -0.257057860578    12.000000000000
         C           -0.525163995153     0.481524737787     0.600429139422    12.000000000000
         C           -2.529011995153    -0.716881262213     0.361391139422    12.000000000000
         C           -2.528099995153    -1.850388262213    -0.638954860578    12.000000000000
         C            1.220019004847    -1.261403262213     0.311609139422    12.000000000000
         C            1.755838004847     1.067439737787    -0.059067860578    12.000000000000
         C            2.511345004847    -1.609135262213     0.047330139422    12.000000000000
         C            3.412227004847    -0.550648262213    -0.258589860578    12.000000000000
         H           -0.937361995153     0.591408737787    -1.514555860578     1.007825032230
         H           -3.421199695153     0.641529437787    -1.226963060578     1.007825032230
         H           -0.440045995153     1.221884737787     1.404333139422     1.007825032230
         H           -3.281712995153    -0.908729262213     1.131118139422     1.007825032230
         H           -1.713063995153    -1.700300262213    -1.369128860578     1.007825032230
         H           -3.485316995153    -1.833999262213    -1.183799860578     1.007825032230
         H           -0.297280995153     2.713183737787    -0.524664860578     1.007825032230
         H           -2.847311995153     2.399747737787     0.508998139422     1.007825032230
         H            0.434555004847    -1.963432262213     0.569403139422     1.007825032230
         H           -2.433629995153    -3.798427262213    -0.542897860578     1.007825032230
         H            2.829356004847    -2.645393262213     0.074257139422     1.007825032230
         H            5.125424004847    -1.670856262213    -0.162078860578     1.007825032230
         H            5.320058004847    -0.020049262213    -0.567958860578     1.007825032230

  Basis Set: AUG-CC-PVTZ
    Blend: AUG-CC-PVTZ
  Basis Set: (AUG-CC-PVTZ AUX)
    Blend: AUG-CC-PVTZ-JKFIT
	 Reference Energy          =    -886.3665261511307563 [Eh]
	 Singles Energy            =      -0.0000000000000000 [Eh]
	 Same-Spin Energy          =      -0.9014705779770771 [Eh]
	 Opposite-Spin Energy      =      -2.7159610750814691 [Eh]
	 Correlation Energy        =      -3.6174316530585462 [Eh]
	 Total Energy              =    -889.9839578041893446 [Eh]

	 ================> DF-SCS-MP2 Energies <==================
	-----------------------------------------------------------
	 SCS Same-Spin Scale       =       0.3333333333333333 [-]
	 SCS Opposite-Spin Scale   =       1.2000000000000000 [-]
	 SCS Same-Spin Energy      =      -0.3004901926590257 [Eh]
	 SCS Opposite-Spin Energy  =      -3.2591532900977627 [Eh]
	 SCS Correlation Energy    =      -3.5596434827567882 [Eh]
	 SCS Total Energy          =    -889.9261696338875254 [Eh]
	-----------------------------------------------------------

  Dipole Moment: [D]
     X:     1.7629      Y:    -5.9254      Z:    -1.7494     Total:     6.4249

*** Psi4 exiting successfully. Buy a developer a beer!
