                               Psi4 1.3.2 release

  ==> Input File <==

--------------------------------------------------------------------------
#psi4
#
memory 32 gb

molecule  {
0 1
  O       -1.2481010    -0.6526680     1.0325150
  O       -1.2449750     2.4828510    -0.6861630
  O       -3.2165300     1.5210990     0.7448870
  O       -2.3570290    -3.0668370     0.0949400
  O        1.3605300     2.2470340    -0.0765420
  N        0.8434040     0.0452230     0.2559430
  N        3.0572260     0.7205030    -0.2937270
  N        4.7164630    -0.8366550    -0.5722980
  C       -1.2894840     1.0784300    -0.5920770
  C       -2.7151710     0.6552070    -0.2573930
  C       -0.5254080     0.4815200     0.6000940
  C       -2.5370380    -0.7220921     0.3517036
  C       -2.5283440    -1.8503930    -0.6392900
  C        1.2197750    -1.2614080     0.3112740
  C        1.7555940     1.0674350    -0.0594030
  C        2.5111010    -1.6091400     0.0469950
  C        3.4119830    -0.5506530    -0.2589250
  H       -0.9376060     0.5914040    -1.5148910
  H       -3.3636823     0.6331812    -1.1454782
  H       -0.4402900     1.2218800     1.4039980
  H       -3.2819570    -0.9087340     1.1307830
  H       -1.7133080    -1.7003050    -1.3694640
  H       -3.4855610    -1.8340040    -1.1841350
  H       -0.2975250     2.7131790    -0.5250000
  H       -2.8475560     2.3997430     0.5086630
  H        0.4343110    -1.9634370     0.5690680
  H       -2.4338740    -3.7984320    -0.5432330
  H        2.8291120    -2.6453980     0.0739220
  H        5.1251800    -1.6708610    -0.1624140
  H        5.3198140    -0.0200540    -0.5682940
units angstrom
no_reorient  #important for SAPT in psi4, default
symmetry c1  #important for SAPT in psi4, default
}

set PROPERTIES_ORIGIN ["COM"]
properties('MP2/aug-cc-pvtz', properties = ['dipole'])
--------------------------------------------------------------------------

    Molecular point group: c1
  Charge       = 0
  Multiplicity = 1
  Basis Set: AUG-CC-PVTZ
    Blend: AUG-CC-PVTZ
  Basis Set: (AUG-CC-PVTZ AUX)
    Blend: AUG-CC-PVTZ-JKFIT

    Orbital Energies [Eh]
    ---------------------

    Doubly Occupied:

       1A    -20.582836     2A    -20.580212     3A    -20.558266
       4A    -20.557159     5A    -20.521747     6A    -15.636539
       7A    -15.599672     8A    -15.553114     9A    -11.387982
      10A    -11.357634    11A    -11.340862    12A    -11.328224
      13A    -11.301663    14A    -11.297274    15A    -11.296705
      16A    -11.293492    17A    -11.248303    18A     -1.427082
      19A     -1.395626    20A     -1.380203    21A     -1.372683
      22A     -1.346380    23A     -1.305710    24A     -1.273286
      25A     -1.181976    26A     -1.081631    27A     -1.069358
      28A     -1.021373    29A     -0.936060    30A     -0.909057
      31A     -0.877349    32A     -0.832036    33A     -0.811234
      34A     -0.766762    35A     -0.751810    36A     -0.736157
      37A     -0.719966    38A     -0.703526    39A     -0.698322
      40A     -0.685335    41A     -0.673113    42A     -0.654421
      43A     -0.651270    44A     -0.637855    45A     -0.620444
      46A     -0.613999    47A     -0.606399    48A     -0.593809
      49A     -0.575699    50A     -0.568507    51A     -0.553966
      52A     -0.546299    53A     -0.536817    54A     -0.531949
      55A     -0.498021    56A     -0.477989    57A     -0.474652
      58A     -0.463119    59A     -0.459905    60A     -0.452547
      61A     -0.440947    62A     -0.432990    63A     -0.395005
      64A     -0.349760

  @DF-RHF Final Energy:  -886.37293977491186

   => Energetics <=

    Nuclear Repulsion Energy =           1323.5608810398000514
    One-Electron Energy =               -3844.7994631969413604
    Two-Electron Energy =                1634.8656423822296802
    Total Energy =                       -886.3729397749118561
  Basis Set: (AUG-CC-PVTZ AUX)
    Blend: AUG-CC-PVTZ-RI
    Molecular point group: c1

    Geometry (in Angstrom), charge = 0, multiplicity = 1:

       Center              X                  Y                   Z               Mass
    ------------   -----------------  -----------------  -----------------  -----------------
         O           -1.247712311031    -0.652371669410     1.032972600669    15.994914619570
         O           -1.244586311031     2.483147330590    -0.685705399331    15.994914619570
         O           -3.216141311031     1.521395330590     0.745344600669    15.994914619570
         O           -2.356640311031    -3.066540669410     0.095397600669    15.994914619570
         O            1.360918688969     2.247330330590    -0.076084399331    15.994914619570
         N            0.843792688969     0.045519330590     0.256400600669    14.003074004430
         N            3.057614688969     0.720799330590    -0.293269399331    14.003074004430
         N            4.716851688969    -0.836358669410    -0.571840399331    14.003074004430
         C           -1.289095311031     1.078726330590    -0.591619399331    12.000000000000
         C           -2.714782311031     0.655503330590    -0.256935399331    12.000000000000
         C           -0.525019311031     0.481816330590     0.600551600669    12.000000000000
         C           -2.536649311031    -0.721795769410     0.352161200669    12.000000000000
         C           -2.527955311031    -1.850096669410    -0.638832399331    12.000000000000
         C            1.220163688969    -1.261111669410     0.311731600669    12.000000000000
         C            1.755982688969     1.067731330590    -0.058945399331    12.000000000000
         C            2.511489688969    -1.608843669410     0.047452600669    12.000000000000
         C            3.412371688969    -0.550356669410    -0.258467399331    12.000000000000
         H           -0.937217311031     0.591700330590    -1.514433399331     1.007825032230
         H           -3.363293611031     0.633477530590    -1.145020599331     1.007825032230
         H           -0.439901311031     1.222176330590     1.404455600669     1.007825032230
         H           -3.281568311031    -0.908437669410     1.131240600669     1.007825032230
         H           -1.712919311031    -1.700008669410    -1.369006399331     1.007825032230
         H           -3.485172311031    -1.833707669410    -1.183677399331     1.007825032230
         H           -0.297136311031     2.713475330590    -0.524542399331     1.007825032230
         H           -2.847167311031     2.400039330590     0.509120600669     1.007825032230
         H            0.434699688969    -1.963140669410     0.569525600669     1.007825032230
         H           -2.433485311031    -3.798135669410    -0.542775399331     1.007825032230
         H            2.829500688969    -2.645101669410     0.074379600669     1.007825032230
         H            5.125568688969    -1.670564669410    -0.161956399331     1.007825032230
         H            5.320202688969    -0.019757669410    -0.567836399331     1.007825032230

  Basis Set: AUG-CC-PVTZ
    Blend: AUG-CC-PVTZ
  Basis Set: (AUG-CC-PVTZ AUX)
    Blend: AUG-CC-PVTZ-JKFIT
	 Reference Energy          =    -886.3729397749118561 [Eh]
	 Singles Energy            =      -0.0000000000000000 [Eh]
	 Same-Spin Energy          =      -0.9013418372026429 [Eh]
	 Opposite-Spin Energy      =      -2.7151514783126007 [Eh]
	 Correlation Energy        =      -3.6164933155152434 [Eh]
	 Total Energy              =    -889.9894330904271555 [Eh]

	 ================> DF-SCS-MP2 Energies <==================
	-----------------------------------------------------------
	 SCS Same-Spin Scale       =       0.3333333333333333 [-]
	 SCS Opposite-Spin Scale   =       1.2000000000000000 [-]
	 SCS Same-Spin Energy      =      -0.3004472790675476 [Eh]
	 SCS Opposite-Spin Energy  =      -3.2581817739751209 [Eh]
	 SCS Correlation Energy    =      -3.5586290530426687 [Eh]
	 SCS Total Energy          =    -889.9315688279544929 [Eh]
	-----------------------------------------------------------

  Dipole Moment: [D]
     X:     1.6654      Y:    -5.9710      Z:    -1.8398     Total:     6.4661

*** Psi4 exiting successfully. Buy a developer a beer!
