                               Psi4 1.4a3.dev225

  ==> Input File <==

--------------------------------------------------------------------------
#psi4
#
memory 32 gb

molecule  {
0 1
  O       -1.3191770     0.6538360    -1.0992360
  O       -1.5735610    -2.4640850     0.5135810
  O       -3.5606630    -1.0699430    -0.4600060
  O       -1.4399290     3.1254620     0.1265180
  O        1.1065530    -2.3833650     0.0076020
  N        0.7686360    -0.1579440    -0.3706350
  N        2.9363770    -0.9938720     0.1460080
  N        4.7058880     0.4431110     0.3611260
  C       -1.3768610    -1.0680440     0.5552780
  C       -2.7379840    -0.3746360     0.4578480
  C       -0.6377490    -0.5042940    -0.6790150
  C       -2.3707440     0.9655450    -0.1585060
  C       -1.8992030     1.9895750     0.8571380
  C        1.2309690     1.1190800    -0.4442230
  C        1.6104480    -1.2470590    -0.0585760
  C        2.5474650     1.3753690    -0.1998620
  C        3.3802090     0.2523040     0.0808410
  H       -0.8441360    -0.7686950     1.4698480
  H       -3.2257400    -0.2778790     1.4400230
  H       -0.6227070    -1.2428120    -1.4883720
  H       -3.1941750     1.3785730    -0.7472070
  H       -1.0952130     1.5703990     1.4802000
  H       -2.7410530     2.2466610     1.5166010
  H       -0.6710550    -2.8260740     0.3542250
  H       -3.3063470    -2.0105220    -0.3629290
  H        0.4929290     1.8778260    -0.6840360
  H       -1.2217078     3.7800041     0.7388452
  H        2.9334840     2.3875570    -0.2389120
  H        5.1589650     1.2712730    -0.0008400
  H        5.2635310    -0.4031270     0.3606700
units angstrom
no_reorient  #important for SAPT in psi4, default
symmetry c1  #important for SAPT in psi4, default
}

set PROPERTIES_ORIGIN ["COM"]
properties('MP2/aug-cc-pvtz', properties = ['dipole'])
--------------------------------------------------------------------------

    Molecular point group: c1
  Charge       = 0
  Multiplicity = 1
  Basis Set: AUG-CC-PVTZ
    Blend: AUG-CC-PVTZ
  Basis Set: (AUG-CC-PVTZ AUX)
    Blend: AUG-CC-PVTZ-JKFIT

    Orbital Energies [Eh]
    ---------------------

    Doubly Occupied:

       1A    -20.582037     2A    -20.581608     3A    -20.559477
       4A    -20.556569     5A    -20.519811     6A    -15.633085
       7A    -15.599732     8A    -15.551845     9A    -11.386058
      10A    -11.358150    11A    -11.339732    12A    -11.325247
      13A    -11.304178    14A    -11.298210    15A    -11.297128
      16A    -11.293650    17A    -11.246668    18A     -1.429797
      19A     -1.397670    20A     -1.389694    21A     -1.377066
      22A     -1.346669    23A     -1.303753    24A     -1.271445
      25A     -1.181281    26A     -1.079550    27A     -1.069249
      28A     -1.018205    29A     -0.938645    30A     -0.907050
      31A     -0.877349    32A     -0.830440    33A     -0.812631
      34A     -0.766619    35A     -0.751271    36A     -0.737597
      37A     -0.724663    38A     -0.712812    39A     -0.703600
      40A     -0.685371    41A     -0.675387    42A     -0.654024
      43A     -0.649202    44A     -0.633727    45A     -0.620626
      46A     -0.615498    47A     -0.608251    48A     -0.593323
      49A     -0.577810    50A     -0.565408    51A     -0.556923
      52A     -0.548795    53A     -0.537187    54A     -0.531799
      55A     -0.495894    56A     -0.482011    57A     -0.474012
      58A     -0.463755    59A     -0.458065    60A     -0.453304
      61A     -0.442303    62A     -0.430389    63A     -0.392336
      64A     -0.348333

  @DF-RHF Final Energy:  -886.37484951897090

   => Energetics <=

    Nuclear Repulsion Energy =           1334.9346852906664935
    One-Electron Energy =               -3867.5111173426689675
    Two-Electron Energy =                1646.2015825330315693
    Total Energy =                       -886.3748495189709047
  Basis Set: (AUG-CC-PVTZ AUX)
    Blend: AUG-CC-PVTZ-RI
    Molecular point group: c1

    Geometry (in Angstrom), charge = 0, multiplicity = 1:

       Center              X                  Y                   Z               Mass
    ------------   -----------------  -----------------  -----------------  -----------------
         O           -1.331871617104     0.682594552874    -1.083318189357    15.994914619570
         O           -1.586255617104    -2.435326447126     0.529498810643    15.994914619570
         O           -3.573357617104    -1.041184447126    -0.444088189357    15.994914619570
         O           -1.452623617104     3.154220552874     0.142435810643    15.994914619570
         O            1.093858382896    -2.354606447126     0.023519810643    15.994914619570
         N            0.755941382896    -0.129185447126    -0.354717189357    14.003074004430
         N            2.923682382896    -0.965113447126     0.161925810643    14.003074004430
         N            4.693193382896     0.471869552874     0.377043810643    14.003074004430
         C           -1.389555617104    -1.039285447126     0.571195810643    12.000000000000
         C           -2.750678617104    -0.345877447126     0.473765810643    12.000000000000
         C           -0.650443617104    -0.475535447126    -0.663097189357    12.000000000000
         C           -2.383438617104     0.994303552874    -0.142588189357    12.000000000000
         C           -1.911897617104     2.018333552874     0.873055810643    12.000000000000
         C            1.218274382896     1.147838552874    -0.428305189357    12.000000000000
         C            1.597753382896    -1.218300447126    -0.042658189357    12.000000000000
         C            2.534770382896     1.404127552874    -0.183944189357    12.000000000000
         C            3.367514382896     0.281062552874     0.096758810643    12.000000000000
         H           -0.856830617104    -0.739936447126     1.485765810643     1.007825032230
         H           -3.238434617104    -0.249120447126     1.455940810643     1.007825032230
         H           -0.635401617104    -1.214053447126    -1.472454189357     1.007825032230
         H           -3.206869617104     1.407331552874    -0.731289189357     1.007825032230
         H           -1.107907617104     1.599157552874     1.496117810643     1.007825032230
         H           -2.753747617104     2.275419552874     1.532518810643     1.007825032230
         H           -0.683749617104    -2.797315447126     0.370142810643     1.007825032230
         H           -3.319041617104    -1.981763447126    -0.347011189357     1.007825032230
         H            0.480234382896     1.906584552874    -0.668118189357     1.007825032230
         H           -1.234402417104     3.808762652874     0.754763010643     1.007825032230
         H            2.920789382896     2.416315552874    -0.222994189357     1.007825032230
         H            5.146270382896     1.300031552874     0.015077810643     1.007825032230
         H            5.250836382896    -0.374368447126     0.376587810643     1.007825032230

  Basis Set: AUG-CC-PVTZ
    Blend: AUG-CC-PVTZ
  Basis Set: (AUG-CC-PVTZ AUX)
    Blend: AUG-CC-PVTZ-JKFIT
	 Reference Energy          =    -886.3748495189709047 [Eh]
	 Singles Energy            =      -0.0000000000000000 [Eh]
	 Same-Spin Energy          =      -0.9012339312973731 [Eh]
	 Opposite-Spin Energy      =      -2.7143743249584071 [Eh]
	 Correlation Energy        =      -3.6156082562557801 [Eh]
	 Total Energy              =    -889.9904577752266732 [Eh]

	 ================> DF-SCS-MP2 Energies <==================
	-----------------------------------------------------------
	 SCS Same-Spin Scale       =       0.3333333333333333 [-]
	 SCS Opposite-Spin Scale   =       1.2000000000000000 [-]
	 SCS Same-Spin Energy      =      -0.3004113104324577 [Eh]
	 SCS Opposite-Spin Energy  =      -3.2572491899500884 [Eh]
	 SCS Correlation Energy    =      -3.5576605003825459 [Eh]
	 SCS Total Energy          =    -889.9325100193534581 [Eh]
	-----------------------------------------------------------

  Dipole Moment: [D]
     X:     2.7277      Y:     5.7570      Z:     1.9258     Total:     6.6553

*** Psi4 exiting successfully. Buy a developer a beer!
