                               Psi4 1.3.2 release

  ==> Input File <==

--------------------------------------------------------------------------
#psi4
#
memory 32 gb

molecule  {
0 1
  O       -1.2481010    -0.6526680     1.0325150
  O       -1.2625716     2.4856177    -0.6403485
  O       -3.2165300     1.5210990     0.7448870
  O       -2.3570290    -3.0668370     0.0949400
  O        1.3605300     2.2470340    -0.0765420
  N        0.8434040     0.0452230     0.2559430
  N        3.0572260     0.7205030    -0.2937270
  N        4.7164630    -0.8366550    -0.5722980
  C       -1.2894840     1.0784300    -0.5920770
  C       -2.7151710     0.6552070    -0.2573930
  C       -0.5254080     0.4815200     0.6000940
  C       -2.5292560    -0.7168860     0.3610560
  C       -2.5283440    -1.8503930    -0.6392900
  C        1.2197750    -1.2614080     0.3112740
  C        1.7555940     1.0674350    -0.0594030
  C        2.5111010    -1.6091400     0.0469950
  C        3.4119830    -0.5506530    -0.2589250
  H       -0.9440979     0.5572337    -1.4985322
  H       -3.3625820     0.6426650    -1.1464650
  H       -0.4402900     1.2218800     1.4039980
  H       -3.2819570    -0.9087340     1.1307830
  H       -1.7133080    -1.7003050    -1.3694640
  H       -3.4855610    -1.8340040    -1.1841350
  H       -0.2975250     2.7131790    -0.5250000
  H       -2.8475560     2.3997430     0.5086630
  H        0.4343110    -1.9634370     0.5690680
  H       -2.4338740    -3.7984320    -0.5432330
  H        2.8291120    -2.6453980     0.0739220
  H        5.1251800    -1.6708610    -0.1624140
  H        5.3198140    -0.0200540    -0.5682940
units angstrom
no_reorient  #important for SAPT in psi4, default
symmetry c1  #important for SAPT in psi4, default
}

set PROPERTIES_ORIGIN ["COM"]
properties('MP2/aug-cc-pvtz', properties = ['dipole'])
--------------------------------------------------------------------------

    Molecular point group: c1
  Charge       = 0
  Multiplicity = 1
  Basis Set: AUG-CC-PVTZ
    Blend: AUG-CC-PVTZ
  Basis Set: (AUG-CC-PVTZ AUX)
    Blend: AUG-CC-PVTZ-JKFIT

    Orbital Energies [Eh]
    ---------------------

    Doubly Occupied:

       1A    -20.582124     2A    -20.580838     3A    -20.559732
       4A    -20.555790     5A    -20.522471     6A    -15.636860
       7A    -15.599972     8A    -15.553539     9A    -11.388532
      10A    -11.357998    11A    -11.340277    12A    -11.328543
      13A    -11.301076    14A    -11.296973    15A    -11.296268
      16A    -11.291960    17A    -11.248638    18A     -1.429038
      19A     -1.396458    20A     -1.380225    21A     -1.372645
      22A     -1.344388    23A     -1.306247    24A     -1.273834
      25A     -1.182383    26A     -1.081961    27A     -1.067456
      28A     -1.021203    29A     -0.935202    30A     -0.909506
      31A     -0.877152    32A     -0.831521    33A     -0.811474
      34A     -0.766977    35A     -0.751670    36A     -0.737572
      37A     -0.720171    38A     -0.702743    39A     -0.697127
      40A     -0.685603    41A     -0.672708    42A     -0.654681
      43A     -0.650801    44A     -0.638319    45A     -0.619775
      46A     -0.614522    47A     -0.606850    48A     -0.594195
      49A     -0.575138    50A     -0.568723    51A     -0.554337
      52A     -0.545281    53A     -0.537437    54A     -0.531499
      55A     -0.497592    56A     -0.476943    57A     -0.475244
      58A     -0.461766    59A     -0.459665    60A     -0.453463
      61A     -0.439875    62A     -0.433217    63A     -0.395265
      64A     -0.350164

  @DF-RHF Final Energy:  -886.37145513776227

   => Energetics <=

    Nuclear Repulsion Energy =           1324.0976443909783029
    One-Electron Energy =               -3845.8749829067583050
    Two-Electron Energy =                1635.4058833780175064
    Total Energy =                       -886.3714551377622684
  Basis Set: (AUG-CC-PVTZ AUX)
    Blend: AUG-CC-PVTZ-RI
    Molecular point group: c1

    Geometry (in Angstrom), charge = 0, multiplicity = 1:

       Center              X                  Y                   Z               Mass
    ------------   -----------------  -----------------  -----------------  -----------------
         O           -1.246916270593    -0.652708368435     1.029432611531    15.994914619570
         O           -1.261386870593     2.485577331565    -0.643430888469    15.994914619570
         O           -3.215345270593     1.521058631565     0.741804611531    15.994914619570
         O           -2.355844270593    -3.066877368435     0.091857611531    15.994914619570
         O            1.361714729407     2.246993631565    -0.079624388469    15.994914619570
         N            0.844588729407     0.045182631565     0.252860611531    14.003074004430
         N            3.058410729407     0.720462631565    -0.296809388469    14.003074004430
         N            4.717647729407    -0.836695368435    -0.575380388469    14.003074004430
         C           -1.288299270593     1.078389631565    -0.595159388469    12.000000000000
         C           -2.713986270593     0.655166631565    -0.260475388469    12.000000000000
         C           -0.524223270593     0.481479631565     0.597011611531    12.000000000000
         C           -2.528071270593    -0.716926368435     0.357973611531    12.000000000000
         C           -2.527159270593    -1.850433368435    -0.642372388469    12.000000000000
         C            1.220959729407    -1.261448368435     0.308191611531    12.000000000000
         C            1.756778729407     1.067394631565    -0.062485388469    12.000000000000
         C            2.512285729407    -1.609180368435     0.043912611531    12.000000000000
         C            3.413167729407    -0.550693368435    -0.262007388469    12.000000000000
         H           -0.942913170593     0.557193331565    -1.501614588469     1.007825032230
         H           -3.361397270593     0.642624631565    -1.149547388469     1.007825032230
         H           -0.439105270593     1.221839631565     1.400915611531     1.007825032230
         H           -3.280772270593    -0.908774368435     1.127700611531     1.007825032230
         H           -1.712123270593    -1.700345368435    -1.372546388469     1.007825032230
         H           -3.484376270593    -1.834044368435    -1.187217388469     1.007825032230
         H           -0.296340270593     2.713138631565    -0.528082388469     1.007825032230
         H           -2.846371270593     2.399702631565     0.505580611531     1.007825032230
         H            0.435495729407    -1.963477368435     0.565985611531     1.007825032230
         H           -2.432689270593    -3.798472368435    -0.546315388469     1.007825032230
         H            2.830296729407    -2.645438368435     0.070839611531     1.007825032230
         H            5.126364729407    -1.670901368435    -0.165496388469     1.007825032230
         H            5.320998729407    -0.020094368435    -0.571376388469     1.007825032230

  Basis Set: AUG-CC-PVTZ
    Blend: AUG-CC-PVTZ
  Basis Set: (AUG-CC-PVTZ AUX)
    Blend: AUG-CC-PVTZ-JKFIT
	 Reference Energy          =    -886.3714551377622684 [Eh]
	 Singles Energy            =      -0.0000000000000000 [Eh]
	 Same-Spin Energy          =      -0.9016668246745204 [Eh]
	 Opposite-Spin Energy      =      -2.7155210178626348 [Eh]
	 Correlation Energy        =      -3.6171878425371551 [Eh]
	 Total Energy              =    -889.9886429802994599 [Eh]

	 ================> DF-SCS-MP2 Energies <==================
	-----------------------------------------------------------
	 SCS Same-Spin Scale       =       0.3333333333333333 [-]
	 SCS Opposite-Spin Scale   =       1.2000000000000000 [-]
	 SCS Same-Spin Energy      =      -0.3005556082248401 [Eh]
	 SCS Opposite-Spin Energy  =      -3.2586252214351616 [Eh]
	 SCS Correlation Energy    =      -3.5591808296600016 [Eh]
	 SCS Total Energy          =    -889.9306359674222904 [Eh]
	-----------------------------------------------------------

  Dipole Moment: [D]
     X:     1.7665      Y:    -5.9350      Z:    -1.9129     Total:     6.4811

*** Psi4 exiting successfully. Buy a developer a beer!
