                               Psi4 1.4a3.dev225

  ==> Input File <==

--------------------------------------------------------------------------
#psi4
#
memory 32 gb

molecule  {
0 1
  O       -1.3191770     0.6538360    -1.0992360
  O       -1.5735610    -2.4640850     0.5135810
  O       -3.5606630    -1.0699430    -0.4600060
  O       -1.4399290     3.1254620     0.1265180
  O        1.1065530    -2.3833650     0.0076020
  N        0.7686360    -0.1579440    -0.3706350
  N        2.9363770    -0.9938720     0.1460080
  N        4.7058880     0.4431110     0.3611260
  C       -1.3768610    -1.0680440     0.5552780
  C       -2.7379840    -0.3746360     0.4578480
  C       -0.6377490    -0.5042940    -0.6790150
  C       -2.3707440     0.9655450    -0.1585060
  C       -1.8992030     1.9895750     0.8571380
  C        1.2309690     1.1190800    -0.4442230
  C        1.6104480    -1.2470590    -0.0585760
  C        2.5474650     1.3753690    -0.1998620
  C        3.3802090     0.2523040     0.0808410
  H       -0.8441360    -0.7686950     1.4698480
  H       -3.2257400    -0.2778790     1.4400230
  H       -0.6233934    -1.2091132    -1.4514408
  H       -3.1941750     1.3785730    -0.7472070
  H       -1.0952130     1.5703990     1.4802000
  H       -2.7410530     2.2466610     1.5166010
  H       -0.6710550    -2.8260740     0.3542250
  H       -3.3063470    -2.0105220    -0.3629290
  H        0.4929290     1.8778260    -0.6840360
  H       -1.2098800     3.8154810     0.7720340
  H        2.9334840     2.3875570    -0.2389120
  H        5.1589650     1.2712730    -0.0008400
  H        5.2635310    -0.4031270     0.3606700
units angstrom
no_reorient  #important for SAPT in psi4, default
symmetry c1  #important for SAPT in psi4, default
}

set PROPERTIES_ORIGIN ["COM"]
properties('MP2/aug-cc-pvtz', properties = ['dipole'])
--------------------------------------------------------------------------

    Molecular point group: c1
  Charge       = 0
  Multiplicity = 1
  Basis Set: AUG-CC-PVTZ
    Blend: AUG-CC-PVTZ
  Basis Set: (AUG-CC-PVTZ AUX)
    Blend: AUG-CC-PVTZ-JKFIT

    Orbital Energies [Eh]
    ---------------------

    Doubly Occupied:

       1A    -20.586625     2A    -20.580961     3A    -20.559517
       4A    -20.556506     5A    -20.519788     6A    -15.632594
       7A    -15.599632     8A    -15.551725     9A    -11.386013
      10A    -11.358028    11A    -11.334148    12A    -11.325018
      13A    -11.303425    14A    -11.297754    15A    -11.296646
      16A    -11.293398    17A    -11.246441    18A     -1.429262
      19A     -1.394097    20A     -1.383005    21A     -1.375506
      22A     -1.346657    23A     -1.303628    24A     -1.271284
      25A     -1.181226    26A     -1.079876    27A     -1.067940
      28A     -1.018372    29A     -0.937931    30A     -0.906554
      31A     -0.876800    32A     -0.833397    33A     -0.812296
      34A     -0.766758    35A     -0.750413    36A     -0.737810
      37A     -0.721960    38A     -0.707899    39A     -0.703482
      40A     -0.685344    41A     -0.675705    42A     -0.655359
      43A     -0.649087    44A     -0.633765    45A     -0.620258
      46A     -0.615372    47A     -0.607870    48A     -0.593195
      49A     -0.577093    50A     -0.566330    51A     -0.555805
      52A     -0.549104    53A     -0.536618    54A     -0.532374
      55A     -0.495759    56A     -0.480823    57A     -0.473613
      58A     -0.463775    59A     -0.458132    60A     -0.453029
      61A     -0.442511    62A     -0.430364    63A     -0.392531
      64A     -0.348272

  @DF-RHF Final Energy:  -886.37374023734856

   => Energetics <=

    Nuclear Repulsion Energy =           1334.9168718202899981
    One-Electron Energy =               -3867.5283051999231247
    Two-Electron Energy =                1646.2376931422845701
    Total Energy =                       -886.3737402373485565
  Basis Set: (AUG-CC-PVTZ AUX)
    Blend: AUG-CC-PVTZ-RI
    Molecular point group: c1

    Geometry (in Angstrom), charge = 0, multiplicity = 1:

       Center              X                  Y                   Z               Mass
    ------------   -----------------  -----------------  -----------------  -----------------
         O           -1.331917809003     0.682307752567    -1.083608904704    15.994914619570
         O           -1.586301809003    -2.435613247433     0.529208095296    15.994914619570
         O           -3.573403809003    -1.041471247433    -0.444378904704    15.994914619570
         O           -1.452669809003     3.153933752567     0.142145095296    15.994914619570
         O            1.093812190997    -2.354893247433     0.023229095296    15.994914619570
         N            0.755895190997    -0.129472247433    -0.355007904704    14.003074004430
         N            2.923636190997    -0.965400247433     0.161635095296    14.003074004430
         N            4.693147190997     0.471582752567     0.376753095296    14.003074004430
         C           -1.389601809003    -1.039572247433     0.570905095296    12.000000000000
         C           -2.750724809003    -0.346164247433     0.473475095296    12.000000000000
         C           -0.650489809003    -0.475822247433    -0.663387904704    12.000000000000
         C           -2.383484809003     0.994016752567    -0.142878904704    12.000000000000
         C           -1.911943809003     2.018046752567     0.872765095296    12.000000000000
         C            1.218228190997     1.147551752567    -0.428595904704    12.000000000000
         C            1.597707190997    -1.218587247433    -0.042948904704    12.000000000000
         C            2.534724190997     1.403840752567    -0.184234904704    12.000000000000
         C            3.367468190997     0.280775752567     0.096468095296    12.000000000000
         H           -0.856876809003    -0.740223247433     1.485475095296     1.007825032230
         H           -3.238480809003    -0.249407247433     1.455650095296     1.007825032230
         H           -0.636134209003    -1.180641447433    -1.435813704704     1.007825032230
         H           -3.206915809003     1.407044752567    -0.731579904704     1.007825032230
         H           -1.107953809003     1.598870752567     1.495827095296     1.007825032230
         H           -2.753793809003     2.275132752567     1.532228095296     1.007825032230
         H           -0.683795809003    -2.797602247433     0.369852095296     1.007825032230
         H           -3.319087809003    -1.982050247433    -0.347301904704     1.007825032230
         H            0.480188190997     1.906297752567    -0.668408904704     1.007825032230
         H           -1.222620809003     3.843952752567     0.787661095296     1.007825032230
         H            2.920743190997     2.416028752567    -0.223284904704     1.007825032230
         H            5.146224190997     1.299744752567     0.014787095296     1.007825032230
         H            5.250790190997    -0.374655247433     0.376297095296     1.007825032230

  Basis Set: AUG-CC-PVTZ
    Blend: AUG-CC-PVTZ
  Basis Set: (AUG-CC-PVTZ AUX)
    Blend: AUG-CC-PVTZ-JKFIT
	 Reference Energy          =    -886.3737402373485565 [Eh]
	 Singles Energy            =      -0.0000000000000000 [Eh]
	 Same-Spin Energy          =      -0.9016050695639282 [Eh]
	 Opposite-Spin Energy      =      -2.7153863308302086 [Eh]
	 Correlation Energy        =      -3.6169914003941370 [Eh]
	 Total Energy              =    -889.9907316377426696 [Eh]

	 ================> DF-SCS-MP2 Energies <==================
	-----------------------------------------------------------
	 SCS Same-Spin Scale       =       0.3333333333333333 [-]
	 SCS Opposite-Spin Scale   =       1.2000000000000000 [-]
	 SCS Same-Spin Energy      =      -0.3005350231879760 [Eh]
	 SCS Opposite-Spin Energy  =      -3.2584635969962501 [Eh]
	 SCS Correlation Energy    =      -3.5589986201842261 [Eh]
	 SCS Total Energy          =    -889.9327388575327404 [Eh]
	-----------------------------------------------------------

  Dipole Moment: [D]
     X:     2.7373      Y:     5.7919      Z:     1.9447     Total:     6.6948

*** Psi4 exiting successfully. Buy a developer a beer!
