                               Psi4 1.3.2 release

  ==> Input File <==

--------------------------------------------------------------------------
#psi4
#
memory 32 gb

molecule  {
0 1
  O       -1.2481010    -0.6526680     1.0325150
  O       -1.2449750     2.4828510    -0.6861630
  O       -3.2165300     1.5210990     0.7448870
  O       -2.3570290    -3.0668370     0.0949400
  O        1.3605300     2.2470340    -0.0765420
  N        0.8434040     0.0452230     0.2559430
  N        3.0572260     0.7205030    -0.2937270
  N        4.7164630    -0.8366550    -0.5722980
  C       -1.2894840     1.0784300    -0.5920770
  C       -2.6797699     0.5940662    -0.3281642
  C       -0.5254080     0.4815200     0.6000940
  C       -2.5292560    -0.7168860     0.3610560
  C       -2.5283440    -1.8503930    -0.6392900
  C        1.2197750    -1.2614080     0.3112740
  C        1.7555940     1.0674350    -0.0594030
  C        2.5111010    -1.6091400     0.0469950
  C        3.4119830    -0.5506530    -0.2589250
  H       -0.9376060     0.5914040    -1.5148910
  H       -3.3625820     0.6426650    -1.1464650
  H       -0.4402900     1.2218800     1.4039980
  H       -3.2819570    -0.9087340     1.1307830
  H       -1.7133080    -1.7003050    -1.3694640
  H       -3.4855610    -1.8340040    -1.1841350
  H       -0.2975250     2.7131790    -0.5250000
  H       -2.8475560     2.3997430     0.5086630
  H        0.4343110    -1.9634370     0.5690680
  H       -2.4338740    -3.7984320    -0.5432330
  H        2.8291120    -2.6453980     0.0739220
  H        5.1251800    -1.6708610    -0.1624140
  H        5.3198140    -0.0200540    -0.5682940
units angstrom
no_reorient  #important for SAPT in psi4, default
symmetry c1  #important for SAPT in psi4, default
}

set PROPERTIES_ORIGIN ["COM"]
properties('MP2/aug-cc-pvtz', properties = ['dipole'])
--------------------------------------------------------------------------

    Molecular point group: c1
  Charge       = 0
  Multiplicity = 1
  Basis Set: AUG-CC-PVTZ
    Blend: AUG-CC-PVTZ
  Basis Set: (AUG-CC-PVTZ AUX)
    Blend: AUG-CC-PVTZ-JKFIT

    Orbital Energies [Eh]
    ---------------------

    Doubly Occupied:

       1A    -20.583672     2A    -20.583248     3A    -20.558139
       4A    -20.547797     5A    -20.522540     6A    -15.637734
       7A    -15.600344     8A    -15.553910     9A    -11.388884
      10A    -11.358447    11A    -11.343360    12A    -11.329300
      13A    -11.302406    14A    -11.299851    15A    -11.299103
      16A    -11.293544    17A    -11.249266    18A     -1.430049
      19A     -1.396896    20A     -1.376397    21A     -1.370428
      22A     -1.319732    23A     -1.306669    24A     -1.274469
      25A     -1.182849    26A     -1.083006    27A     -1.079933
      28A     -1.025461    29A     -0.937935    30A     -0.910302
      31A     -0.877977    32A     -0.834246    33A     -0.816201
      34A     -0.767650    35A     -0.754440    36A     -0.736924
      37A     -0.722107    38A     -0.702608    39A     -0.692580
      40A     -0.686173    41A     -0.663853    42A     -0.656240
      43A     -0.650565    44A     -0.639949    45A     -0.621104
      46A     -0.616040    47A     -0.604958    48A     -0.594872
      49A     -0.574571    50A     -0.568757    51A     -0.553254
      52A     -0.541709    53A     -0.532764    54A     -0.525221
      55A     -0.499116    56A     -0.483703    57A     -0.477355
      58A     -0.463251    59A     -0.461203    60A     -0.452153
      61A     -0.444013    62A     -0.433851    63A     -0.396052
      64A     -0.350923

  @DF-RHF Final Energy:  -886.36275434494553

   => Energetics <=

    Nuclear Repulsion Energy =           1323.7375940484976127
    One-Electron Energy =               -3845.1165908126495196
    Two-Electron Energy =                1635.0162424192062645
    Total Energy =                       -886.3627543449456425
  Basis Set: (AUG-CC-PVTZ AUX)
    Blend: AUG-CC-PVTZ-RI
    Molecular point group: c1

    Geometry (in Angstrom), charge = 0, multiplicity = 1:

       Center              X                  Y                   Z               Mass
    ------------   -----------------  -----------------  -----------------  -----------------
         O           -1.249848621366    -0.649649753323     1.036008652014    15.994914619570
         O           -1.246722621366     2.485869246677    -0.682669347986    15.994914619570
         O           -3.218277621366     1.524117246677     0.748380652014    15.994914619570
         O           -2.358776621366    -3.063818753323     0.098433652014    15.994914619570
         O            1.358782378634     2.250052246677    -0.073048347986    15.994914619570
         N            0.841656378634     0.048241246677     0.259436652014    14.003074004430
         N            3.055478378634     0.723521246677    -0.290233347986    14.003074004430
         N            4.714715378634    -0.833636753323    -0.568804347986    14.003074004430
         C           -1.291231621366     1.081448246677    -0.588583347986    12.000000000000
         C           -2.681517521366     0.597084446677    -0.324670547986    12.000000000000
         C           -0.527155621366     0.484538246677     0.603587652014    12.000000000000
         C           -2.531003621366    -0.713867753323     0.364549652014    12.000000000000
         C           -2.530091621366    -1.847374753323    -0.635796347986    12.000000000000
         C            1.218027378634    -1.258389753323     0.314767652014    12.000000000000
         C            1.753846378634     1.070453246677    -0.055909347986    12.000000000000
         C            2.509353378634    -1.606121753323     0.050488652014    12.000000000000
         C            3.410235378634    -0.547634753323    -0.255431347986    12.000000000000
         H           -0.939353621366     0.594422246677    -1.511397347986     1.007825032230
         H           -3.364329621366     0.645683246677    -1.142971347986     1.007825032230
         H           -0.442037621366     1.224898246677     1.407491652014     1.007825032230
         H           -3.283704621366    -0.905715753323     1.134276652014     1.007825032230
         H           -1.715055621366    -1.697286753323    -1.365970347986     1.007825032230
         H           -3.487308621366    -1.830985753323    -1.180641347986     1.007825032230
         H           -0.299272621366     2.716197246677    -0.521506347986     1.007825032230
         H           -2.849303621366     2.402761246677     0.512156652014     1.007825032230
         H            0.432563378634    -1.960418753323     0.572561652014     1.007825032230
         H           -2.435621621366    -3.795413753323    -0.539739347986     1.007825032230
         H            2.827364378634    -2.642379753323     0.077415652014     1.007825032230
         H            5.123432378634    -1.667842753323    -0.158920347986     1.007825032230
         H            5.318066378634    -0.017035753323    -0.564800347986     1.007825032230

  Basis Set: AUG-CC-PVTZ
    Blend: AUG-CC-PVTZ
  Basis Set: (AUG-CC-PVTZ AUX)
    Blend: AUG-CC-PVTZ-JKFIT
	 Reference Energy          =    -886.3627543449455288 [Eh]
	 Singles Energy            =      -0.0000000000000000 [Eh]
	 Same-Spin Energy          =      -0.9018134256941438 [Eh]
	 Opposite-Spin Energy      =      -2.7171283798602053 [Eh]
	 Correlation Energy        =      -3.6189418055543490 [Eh]
	 Total Energy              =    -889.9816961504998289 [Eh]

	 ================> DF-SCS-MP2 Energies <==================
	-----------------------------------------------------------
	 SCS Same-Spin Scale       =       0.3333333333333333 [-]
	 SCS Opposite-Spin Scale   =       1.2000000000000000 [-]
	 SCS Same-Spin Energy      =      -0.3006044752313812 [Eh]
	 SCS Opposite-Spin Energy  =      -3.2605540558322463 [Eh]
	 SCS Correlation Energy    =      -3.5611585310636276 [Eh]
	 SCS Total Energy          =    -889.9239128760091262 [Eh]
	-----------------------------------------------------------

  Dipole Moment: [D]
     X:     1.8319      Y:    -6.1673      Z:    -1.9998     Total:     6.7372

*** Psi4 exiting successfully. Buy a developer a beer!
