                               Psi4 1.3.2 release

  ==> Input File <==

--------------------------------------------------------------------------
#psi4
#
memory 32 gb

molecule  {
0 1
  O       -1.2481010    -0.6526680     1.0325150
  O       -1.2449750     2.4828510    -0.6861630
  O       -3.2165300     1.5210990     0.7448870
  O       -2.3570290    -3.0668370     0.0949400
  O        1.3605300     2.2470340    -0.0765420
  N        0.8434040     0.0452230     0.2559430
  N        3.0572260     0.7205030    -0.2937270
  N        4.7164630    -0.8366550    -0.5722980
  C       -1.2894840     1.0784300    -0.5920770
  C       -2.7151710     0.6552070    -0.2573930
  C       -0.5254080     0.4815200     0.6000940
  C       -2.5292560    -0.7168860     0.3610560
  C       -2.5283440    -1.8503930    -0.6392900
  C        1.2197750    -1.2614080     0.3112740
  C        1.7555940     1.0674350    -0.0594030
  C        2.5111010    -1.6091400     0.0469950
  C        3.4119830    -0.5506530    -0.2589250
  H       -0.9376060     0.5914040    -1.5148910
  H       -3.3625820     0.6426650    -1.1464650
  H       -0.4402900     1.2218800     1.4039980
  H       -3.2819570    -0.9087340     1.1307830
  H       -1.7133080    -1.7003050    -1.3694640
  H       -3.4855610    -1.8340040    -1.1841350
  H       -0.2975250     2.7131790    -0.5250000
  H       -2.8099752     2.4892349     0.4846030
  H        0.4343110    -1.9634370     0.5690680
  H       -2.4338740    -3.7984320    -0.5432330
  H        2.8291120    -2.6453980     0.0739220
  H        5.1251800    -1.6708610    -0.1624140
  H        5.3198140    -0.0200540    -0.5682940
units angstrom
no_reorient  #important for SAPT in psi4, default
symmetry c1  #important for SAPT in psi4, default
}

set PROPERTIES_ORIGIN ["COM"]
properties('MP2/aug-cc-pvtz', properties = ['dipole'])
--------------------------------------------------------------------------

    Molecular point group: c1
  Charge       = 0
  Multiplicity = 1
  Basis Set: AUG-CC-PVTZ
    Blend: AUG-CC-PVTZ
  Basis Set: (AUG-CC-PVTZ AUX)
    Blend: AUG-CC-PVTZ-JKFIT

    Orbital Energies [Eh]
    ---------------------

    Doubly Occupied:

       1A    -20.581798     2A    -20.581080     3A    -20.561130
       4A    -20.559607     5A    -20.522279     6A    -15.636915
       7A    -15.599896     8A    -15.553437     9A    -11.388429
      10A    -11.357910    11A    -11.341354    12A    -11.328487
      13A    -11.300642    14A    -11.296466    15A    -11.296063
      16A    -11.291216    17A    -11.248546    18A     -1.428330
      19A     -1.396100    20A     -1.376770    21A     -1.371692
      22A     -1.333286    23A     -1.306141    24A     -1.273722
      25A     -1.182302    26A     -1.081938    27A     -1.064306
      28A     -1.020884    29A     -0.933865    30A     -0.909277
      31A     -0.875948    32A     -0.830477    33A     -0.809649
      34A     -0.766832    35A     -0.752215    36A     -0.736346
      37A     -0.719953    38A     -0.701292    39A     -0.692746
      40A     -0.685558    41A     -0.664809    42A     -0.654391
      43A     -0.649907    44A     -0.637946    45A     -0.620604
      46A     -0.613697    47A     -0.604880    48A     -0.594077
      49A     -0.574165    50A     -0.567910    51A     -0.553036
      52A     -0.544042    53A     -0.534575    54A     -0.529801
      55A     -0.496652    56A     -0.476725    57A     -0.472811
      58A     -0.461816    59A     -0.458699    60A     -0.451717
      61A     -0.439323    62A     -0.433136    63A     -0.395215
      64A     -0.350068

  @DF-RHF Final Energy:  -886.35999630596496

   => Energetics <=

    Nuclear Repulsion Energy =           1323.2002260624778955
    One-Electron Energy =               -3844.1706730459118262
    Two-Electron Energy =                1634.6104506774690890
    Total Energy =                       -886.3599963059650690
  Basis Set: (AUG-CC-PVTZ AUX)
    Blend: AUG-CC-PVTZ-RI
    Molecular point group: c1

    Geometry (in Angstrom), charge = 0, multiplicity = 1:

       Center              X                  Y                   Z               Mass
    ------------   -----------------  -----------------  -----------------  -----------------
         O           -1.248256842768    -0.653039020504     1.032614759495    15.994914619570
         O           -1.245130842768     2.482479979496    -0.686063240505    15.994914619570
         O           -3.216685842768     1.520727979496     0.744986759495    15.994914619570
         O           -2.357184842768    -3.067208020504     0.095039759495    15.994914619570
         O            1.360374157232     2.246662979496    -0.076442240505    15.994914619570
         N            0.843248157232     0.044851979496     0.256042759495    14.003074004430
         N            3.057070157232     0.720131979496    -0.293627240505    14.003074004430
         N            4.716307157232    -0.837026020504    -0.572198240505    14.003074004430
         C           -1.289639842768     1.078058979496    -0.591977240505    12.000000000000
         C           -2.715326842768     0.654835979496    -0.257293240505    12.000000000000
         C           -0.525563842768     0.481148979496     0.600193759495    12.000000000000
         C           -2.529411842768    -0.717257020504     0.361155759495    12.000000000000
         C           -2.528499842768    -1.850764020504    -0.639190240505    12.000000000000
         C            1.219619157232    -1.261779020504     0.311373759495    12.000000000000
         C            1.755438157232     1.067063979496    -0.059303240505    12.000000000000
         C            2.510945157232    -1.609511020504     0.047094759495    12.000000000000
         C            3.411827157232    -0.551024020504    -0.258825240505    12.000000000000
         H           -0.937761842768     0.591032979496    -1.514791240505     1.007825032230
         H           -3.362737842768     0.642293979496    -1.146365240505     1.007825032230
         H           -0.440445842768     1.221508979496     1.404097759495     1.007825032230
         H           -3.282112842768    -0.909105020504     1.130882759495     1.007825032230
         H           -1.713463842768    -1.700676020504    -1.369364240505     1.007825032230
         H           -3.485716842768    -1.834375020504    -1.184035240505     1.007825032230
         H           -0.297680842768     2.712807979496    -0.524900240505     1.007825032230
         H           -2.810131042768     2.488863879496     0.484702759495     1.007825032230
         H            0.434155157232    -1.963808020504     0.569167759495     1.007825032230
         H           -2.434029842768    -3.798803020504    -0.543133240505     1.007825032230
         H            2.828956157232    -2.645769020504     0.074021759495     1.007825032230
         H            5.125024157232    -1.671232020504    -0.162314240505     1.007825032230
         H            5.319658157232    -0.020425020504    -0.568194240505     1.007825032230

  Basis Set: AUG-CC-PVTZ
    Blend: AUG-CC-PVTZ
  Basis Set: (AUG-CC-PVTZ AUX)
    Blend: AUG-CC-PVTZ-JKFIT
	 Reference Energy          =    -886.3599963059649554 [Eh]
	 Singles Energy            =      -0.0000000000000000 [Eh]
	 Same-Spin Energy          =      -0.9027799874821335 [Eh]
	 Opposite-Spin Energy      =      -2.7183300672430346 [Eh]
	 Correlation Energy        =      -3.6211100547251682 [Eh]
	 Total Energy              =    -889.9811063606900916 [Eh]

	 ================> DF-SCS-MP2 Energies <==================
	-----------------------------------------------------------
	 SCS Same-Spin Scale       =       0.3333333333333333 [-]
	 SCS Opposite-Spin Scale   =       1.2000000000000000 [-]
	 SCS Same-Spin Energy      =      -0.3009266624940445 [Eh]
	 SCS Opposite-Spin Energy  =      -3.2619960806916413 [Eh]
	 SCS Correlation Energy    =      -3.5629227431856858 [Eh]
	 SCS Total Energy          =    -889.9229190491506643 [Eh]
	-----------------------------------------------------------

  Dipole Moment: [D]
     X:     1.7924      Y:    -5.8407      Z:    -1.8584     Total:     6.3860

*** Psi4 exiting successfully. Buy a developer a beer!
