                               Psi4 1.3.2 release

  ==> Input File <==

--------------------------------------------------------------------------
#psi4
#
memory 32 gb

molecule  {
0 1
  O       -1.2481010    -0.6526680     1.0325150
  O       -1.2449750     2.4828510    -0.6861630
  O       -3.2165300     1.5210990     0.7448870
  O       -2.3570290    -3.0668370     0.0949400
  O        1.3605300     2.2470340    -0.0765420
  N        0.8434040     0.0452230     0.2559430
  N        3.0572260     0.7205030    -0.2937270
  N        4.7164630    -0.8366550    -0.5722980
  C       -1.2894840     1.0784300    -0.5920770
  C       -2.7151710     0.6552070    -0.2573930
  C       -0.5254080     0.4815200     0.6000940
  C       -2.5292560    -0.7168860     0.3610560
  C       -2.5283440    -1.8503930    -0.6392900
  C        1.2197750    -1.2614080     0.3112740
  C        1.7555940     1.0674350    -0.0594030
  C        2.5111010    -1.6091400     0.0469950
  C        3.4211652    -0.5589152    -0.2602201
  H       -0.9376060     0.5914040    -1.5148910
  H       -3.3625820     0.6426650    -1.1464650
  H       -0.4402900     1.2218800     1.4039980
  H       -3.2819570    -0.9087340     1.1307830
  H       -1.7133080    -1.7003050    -1.3694640
  H       -3.4855610    -1.8340040    -1.1841350
  H       -0.2975250     2.7131790    -0.5250000
  H       -2.8475560     2.3997430     0.5086630
  H        0.4343110    -1.9634370     0.5690680
  H       -2.4338740    -3.7984320    -0.5432330
  H        2.8379019    -2.6427159     0.0716688
  H        5.1251800    -1.6708610    -0.1624140
  H        5.3198140    -0.0200540    -0.5682940
units angstrom
no_reorient  #important for SAPT in psi4, default
symmetry c1  #important for SAPT in psi4, default
}

set PROPERTIES_ORIGIN ["COM"]
properties('MP2/aug-cc-pvtz', properties = ['dipole'])
--------------------------------------------------------------------------

    Molecular point group: c1
  Charge       = 0
  Multiplicity = 1
  Basis Set: AUG-CC-PVTZ
    Blend: AUG-CC-PVTZ
  Basis Set: (AUG-CC-PVTZ AUX)
    Blend: AUG-CC-PVTZ-JKFIT

    Orbital Energies [Eh]
    ---------------------

    Doubly Occupied:

       1A    -20.582104     2A    -20.581322     3A    -20.557524
       4A    -20.556812     5A    -20.520735     6A    -15.636435
       7A    -15.602077     8A    -15.552256     9A    -11.387034
      10A    -11.358345    11A    -11.341153    12A    -11.328866
      13A    -11.301005    14A    -11.296691    15A    -11.296292
      16A    -11.292691    17A    -11.248523    18A     -1.428917
      19A     -1.395257    20A     -1.379802    21A     -1.372592
      22A     -1.345929    23A     -1.305824    24A     -1.275173
      25A     -1.181331    26A     -1.081488    27A     -1.067469
      28A     -1.021129    29A     -0.935383    30A     -0.909167
      31A     -0.876545    32A     -0.832146    33A     -0.811637
      34A     -0.767693    35A     -0.751894    36A     -0.735880
      37A     -0.722138    38A     -0.703137    39A     -0.698253
      40A     -0.686051    41A     -0.673161    42A     -0.654056
      43A     -0.650884    44A     -0.637582    45A     -0.620562
      46A     -0.614051    47A     -0.607120    48A     -0.593306
      49A     -0.575519    50A     -0.569737    51A     -0.553937
      52A     -0.545860    53A     -0.537478    54A     -0.532279
      55A     -0.497555    56A     -0.477278    57A     -0.474113
      58A     -0.461786    59A     -0.458565    60A     -0.452495
      61A     -0.440338    62A     -0.431771    63A     -0.393653
      64A     -0.349689

  @DF-RHF Final Energy:  -886.37300555051468

   => Energetics <=

    Nuclear Repulsion Energy =           1323.5251739079558320
    One-Electron Energy =               -3844.7414080803500838
    Two-Electron Energy =                1634.8432286218794616
    Total Energy =                       -886.3730055505147902
  Basis Set: (AUG-CC-PVTZ AUX)
    Blend: AUG-CC-PVTZ-RI
    Molecular point group: c1

    Geometry (in Angstrom), charge = 0, multiplicity = 1:

       Center              X                  Y                   Z               Mass
    ------------   -----------------  -----------------  -----------------  -----------------
         O           -1.248590759038    -0.652271243431     1.032588282233    15.994914619570
         O           -1.245464759038     2.483247756569    -0.686089717767    15.994914619570
         O           -3.217019759038     1.521495756569     0.744960282233    15.994914619570
         O           -2.357518759038    -3.066440243431     0.095013282233    15.994914619570
         O            1.360040240962     2.247430756569    -0.076468717767    15.994914619570
         N            0.842914240962     0.045619756569     0.256016282233    14.003074004430
         N            3.056736240962     0.720899756569    -0.293653717767    14.003074004430
         N            4.715973240962    -0.836258243431    -0.572224717767    14.003074004430
         C           -1.289973759038     1.078826756569    -0.592003717767    12.000000000000
         C           -2.715660759038     0.655603756569    -0.257319717767    12.000000000000
         C           -0.525897759038     0.481916756569     0.600167282233    12.000000000000
         C           -2.529745759038    -0.716489243431     0.361129282233    12.000000000000
         C           -2.528833759038    -1.849996243431    -0.639216717767    12.000000000000
         C            1.219285240962    -1.261011243431     0.311347282233    12.000000000000
         C            1.755104240962     1.067831756569    -0.059329717767    12.000000000000
         C            2.510611240962    -1.608743243431     0.047068282233    12.000000000000
         C            3.420675440962    -0.558518443431    -0.260146817767    12.000000000000
         H           -0.938095759038     0.591800756569    -1.514817717767     1.007825032230
         H           -3.363071759038     0.643061756569    -1.146391717767     1.007825032230
         H           -0.440779759038     1.222276756569     1.404071282233     1.007825032230
         H           -3.282446759038    -0.908337243431     1.130856282233     1.007825032230
         H           -1.713797759038    -1.699908243431    -1.369390717767     1.007825032230
         H           -3.486050759038    -1.833607243431    -1.184061717767     1.007825032230
         H           -0.298014759038     2.713575756569    -0.524926717767     1.007825032230
         H           -2.848045759038     2.400139756569     0.508736282233     1.007825032230
         H            0.433821240962    -1.963040243431     0.569141282233     1.007825032230
         H           -2.434363759038    -3.798035243431    -0.543159717767     1.007825032230
         H            2.837412140962    -2.642319143431     0.071742082233     1.007825032230
         H            5.124690240962    -1.670464243431    -0.162340717767     1.007825032230
         H            5.319324240962    -0.019657243431    -0.568220717767     1.007825032230

  Basis Set: AUG-CC-PVTZ
    Blend: AUG-CC-PVTZ
  Basis Set: (AUG-CC-PVTZ AUX)
    Blend: AUG-CC-PVTZ-JKFIT
	 Reference Energy          =    -886.3730055505146765 [Eh]
	 Singles Energy            =      -0.0000000000000000 [Eh]
	 Same-Spin Energy          =      -0.9013470505242921 [Eh]
	 Opposite-Spin Energy      =      -2.7150414231499882 [Eh]
	 Correlation Energy        =      -3.6163884736742804 [Eh]
	 Total Energy              =    -889.9893940241889823 [Eh]

	 ================> DF-SCS-MP2 Energies <==================
	-----------------------------------------------------------
	 SCS Same-Spin Scale       =       0.3333333333333333 [-]
	 SCS Opposite-Spin Scale   =       1.2000000000000000 [-]
	 SCS Same-Spin Energy      =      -0.3004490168414307 [Eh]
	 SCS Opposite-Spin Energy  =      -3.2580497077799859 [Eh]
	 SCS Correlation Energy    =      -3.5584987246214164 [Eh]
	 SCS Total Energy          =    -889.9315042751361489 [Eh]
	-----------------------------------------------------------

  Dipole Moment: [D]
     X:     1.8123      Y:    -6.0043      Z:    -1.8405     Total:     6.5363

*** Psi4 exiting successfully. Buy a developer a beer!
