                               Psi4 1.3.2 release

  ==> Input File <==

--------------------------------------------------------------------------
#psi4
#
memory 32 gb

molecule  {
0 1
  O       -1.2481010    -0.6526680     1.0325150
  O       -1.2449750     2.4828510    -0.6861630
  O       -3.2165300     1.5210990     0.7448870
  O       -2.3570290    -3.0668370     0.0949400
  O        1.3605300     2.2470340    -0.0765420
  N        0.8434040     0.0452230     0.2559430
  N        3.0572260     0.7205030    -0.2937270
  N        4.7164630    -0.8366550    -0.5722980
  C       -1.2894840     1.0784300    -0.5920770
  C       -2.7151710     0.6552070    -0.2573930
  C       -0.5254080     0.4815200     0.6000940
  C       -2.5292560    -0.7168860     0.3610560
  C       -2.5283440    -1.8503930    -0.6392900
  C        1.2197750    -1.2614080     0.3112740
  C        1.7741097     1.1359281    -0.0688937
  C        2.5111010    -1.6091400     0.0469950
  C        3.4766322    -0.5311345    -0.2736451
  H       -0.9376060     0.5914040    -1.5148910
  H       -3.3625820     0.6426650    -1.1464650
  H       -0.4402900     1.2218800     1.4039980
  H       -3.2819570    -0.9087340     1.1307830
  H       -1.7133080    -1.7003050    -1.3694640
  H       -3.4855610    -1.8340040    -1.1841350
  H       -0.2975250     2.7131790    -0.5250000
  H       -2.8475560     2.3997430     0.5086630
  H        0.4343110    -1.9634370     0.5690680
  H       -2.4338740    -3.7984320    -0.5432330
  H        2.8291120    -2.6453980     0.0739220
  H        5.1251800    -1.6708610    -0.1624140
  H        5.3198140    -0.0200540    -0.5682940
units angstrom
no_reorient  #important for SAPT in psi4, default
symmetry c1  #important for SAPT in psi4, default
}

set PROPERTIES_ORIGIN ["COM"]
properties('MP2/aug-cc-pvtz', properties = ['dipole'])
--------------------------------------------------------------------------

    Molecular point group: c1
  Charge       = 0
  Multiplicity = 1
  Basis Set: AUG-CC-PVTZ
    Blend: AUG-CC-PVTZ
  Basis Set: (AUG-CC-PVTZ AUX)
    Blend: AUG-CC-PVTZ-JKFIT

    Orbital Energies [Eh]
    ---------------------

    Doubly Occupied:

       1A    -20.578934     2A    -20.576073     3A    -20.558897
       4A    -20.555947     5A    -20.537399     6A    -15.619476
       7A    -15.608532     8A    -15.544372     9A    -11.391597
      10A    -11.359690    11A    -11.334339    12A    -11.316414
      13A    -11.297777    14A    -11.293467    15A    -11.293249
      16A    -11.290305    17A    -11.241035    18A     -1.436110
      19A     -1.415063    20A     -1.378677    21A     -1.369832
      22A     -1.346333    23A     -1.316754    24A     -1.271525
      25A     -1.184940    26A     -1.066307    27A     -1.064141
      28A     -1.011859    29A     -0.929633    30A     -0.888914
      31A     -0.879523    32A     -0.828940    33A     -0.808464
      34A     -0.766528    35A     -0.748279    36A     -0.734675
      37A     -0.730325    38A     -0.702059    39A     -0.695952
      40A     -0.687119    41A     -0.673348    42A     -0.664219
      43A     -0.648084    44A     -0.632699    45A     -0.617578
      46A     -0.612412    47A     -0.604032    48A     -0.593505
      49A     -0.572976    50A     -0.568811    51A     -0.554790
      52A     -0.550509    53A     -0.541769    54A     -0.530994
      55A     -0.501219    56A     -0.476507    57A     -0.473518
      58A     -0.470278    59A     -0.456370    60A     -0.451191
      61A     -0.436993    62A     -0.414286    63A     -0.394723
      64A     -0.338227

  @DF-RHF Final Energy:  -886.36377112769674

   => Energetics <=

    Nuclear Repulsion Energy =           1322.3171754951963521
    One-Electron Energy =               -3842.4849127886523092
    Two-Electron Energy =                1633.8039661657592205
    Total Energy =                       -886.3637711276967366
  Basis Set: (AUG-CC-PVTZ AUX)
    Blend: AUG-CC-PVTZ-RI
    Molecular point group: c1

    Geometry (in Angstrom), charge = 0, multiplicity = 1:

       Center              X                  Y                   Z               Mass
    ------------   -----------------  -----------------  -----------------  -----------------
         O           -1.252206497716    -0.657012712647     1.033710181917    15.994914619570
         O           -1.249080497716     2.478506287353    -0.684967818083    15.994914619570
         O           -3.220635497716     1.516754287353     0.746082181917    15.994914619570
         O           -2.361134497716    -3.071181712647     0.096135181917    15.994914619570
         O            1.356424502284     2.242689287353    -0.075346818083    15.994914619570
         N            0.839298502284     0.040878287353     0.257138181917    14.003074004430
         N            3.053120502284     0.716158287353    -0.292531818083    14.003074004430
         N            4.712357502284    -0.840999712647    -0.571102818083    14.003074004430
         C           -1.293589497716     1.074085287353    -0.590881818083    12.000000000000
         C           -2.719276497716     0.650862287353    -0.256197818083    12.000000000000
         C           -0.529513497716     0.477175287353     0.601289181917    12.000000000000
         C           -2.533361497716    -0.721230712647     0.362251181917    12.000000000000
         C           -2.532449497716    -1.854737712647    -0.638094818083    12.000000000000
         C            1.215669502284    -1.265752712647     0.312469181917    12.000000000000
         C            1.770004202284     1.131583387353    -0.067698518083    12.000000000000
         C            2.506995502284    -1.613484712647     0.048190181917    12.000000000000
         C            3.472526702284    -0.535479212647    -0.272449918083    12.000000000000
         H           -0.941711497716     0.587059287353    -1.513695818083     1.007825032230
         H           -3.366687497716     0.638320287353    -1.145269818083     1.007825032230
         H           -0.444395497716     1.217535287353     1.405193181917     1.007825032230
         H           -3.286062497716    -0.913078712647     1.131978181917     1.007825032230
         H           -1.717413497716    -1.704649712647    -1.368268818083     1.007825032230
         H           -3.489666497716    -1.838348712647    -1.182939818083     1.007825032230
         H           -0.301630497716     2.708834287353    -0.523804818083     1.007825032230
         H           -2.851661497716     2.395398287353     0.509858181917     1.007825032230
         H            0.430205502284    -1.967781712647     0.570263181917     1.007825032230
         H           -2.437979497716    -3.802776712647    -0.542037818083     1.007825032230
         H            2.825006502284    -2.649742712647     0.075117181917     1.007825032230
         H            5.121074502284    -1.675205712647    -0.161218818083     1.007825032230
         H            5.315708502284    -0.024398712647    -0.567098818083     1.007825032230

  Basis Set: AUG-CC-PVTZ
    Blend: AUG-CC-PVTZ
  Basis Set: (AUG-CC-PVTZ AUX)
    Blend: AUG-CC-PVTZ-JKFIT
	 Reference Energy          =    -886.3637711276967366 [Eh]
	 Singles Energy            =      -0.0000000000000000 [Eh]
	 Same-Spin Energy          =      -0.9001119808861375 [Eh]
	 Opposite-Spin Energy      =      -2.7131585052845058 [Eh]
	 Correlation Energy        =      -3.6132704861706433 [Eh]
	 Total Energy              =    -889.9770416138674136 [Eh]

	 ================> DF-SCS-MP2 Energies <==================
	-----------------------------------------------------------
	 SCS Same-Spin Scale       =       0.3333333333333333 [-]
	 SCS Opposite-Spin Scale   =       1.2000000000000000 [-]
	 SCS Same-Spin Energy      =      -0.3000373269620458 [Eh]
	 SCS Opposite-Spin Energy  =      -3.2557902063414068 [Eh]
	 SCS Correlation Energy    =      -3.5558275333034528 [Eh]
	 SCS Total Energy          =    -889.9195986610002365 [Eh]
	-----------------------------------------------------------

  Dipole Moment: [D]
     X:     2.3371      Y:    -5.3418      Z:    -2.0132     Total:     6.1685

*** Psi4 exiting successfully. Buy a developer a beer!
