                               Psi4 1.3.2 release

  ==> Input File <==

--------------------------------------------------------------------------
#psi4
#
memory 32 gb

molecule  {
0 1
  O       -1.2481010    -0.6526680     1.0325150
  O       -1.2449750     2.4828510    -0.6861630
  O       -3.2165300     1.5210990     0.7448870
  O       -2.3570290    -3.0668370     0.0949400
  O        1.3605300     2.2470340    -0.0765420
  N        0.8434040     0.0452230     0.2559430
  N        3.0572260     0.7205030    -0.2937270
  N        4.7164630    -0.8366550    -0.5722980
  C       -1.2894840     1.0784300    -0.5920770
  C       -2.7151710     0.6552070    -0.2573930
  C       -0.5254080     0.4815200     0.6000940
  C       -2.4407707    -0.7124507     0.4074315
  C       -2.5283440    -1.8503930    -0.6392900
  C        1.2197750    -1.2614080     0.3112740
  C        1.7555940     1.0674350    -0.0594030
  C        2.5111010    -1.6091400     0.0469950
  C        3.4119830    -0.5506530    -0.2589250
  H       -0.9376060     0.5914040    -1.5148910
  H       -3.3625820     0.6426650    -1.1464650
  H       -0.4402900     1.2218800     1.4039980
  H       -3.2819570    -0.9087340     1.1307830
  H       -1.7133080    -1.7003050    -1.3694640
  H       -3.4855610    -1.8340040    -1.1841350
  H       -0.2975250     2.7131790    -0.5250000
  H       -2.8475560     2.3997430     0.5086630
  H        0.4343110    -1.9634370     0.5690680
  H       -2.4338740    -3.7984320    -0.5432330
  H        2.8291120    -2.6453980     0.0739220
  H        5.1251800    -1.6708610    -0.1624140
  H        5.3198140    -0.0200540    -0.5682940
units angstrom
no_reorient  #important for SAPT in psi4, default
symmetry c1  #important for SAPT in psi4, default
}

set PROPERTIES_ORIGIN ["COM"]
properties('MP2/aug-cc-pvtz', properties = ['dipole'])
--------------------------------------------------------------------------

    Molecular point group: c1
  Charge       = 0
  Multiplicity = 1
  Basis Set: AUG-CC-PVTZ
    Blend: AUG-CC-PVTZ
  Basis Set: (AUG-CC-PVTZ AUX)
    Blend: AUG-CC-PVTZ-JKFIT

    Orbital Energies [Eh]
    ---------------------

    Doubly Occupied:

       1A    -20.592064     2A    -20.578288     3A    -20.557583
       4A    -20.555824     5A    -20.524167     6A    -15.640245
       7A    -15.601534     8A    -15.555441     9A    -11.390726
      10A    -11.359931    11A    -11.347810    12A    -11.331295
      13A    -11.296508    14A    -11.296451    15A    -11.295158
      16A    -11.290342    17A    -11.250949    18A     -1.457119
      19A     -1.402526    20A     -1.380778    21A     -1.371383
      22A     -1.345388    23A     -1.309180    24A     -1.278146
      25A     -1.184756    26A     -1.085786    27A     -1.057600
      28A     -1.024311    29A     -0.933360    30A     -0.913781
      31A     -0.876139    32A     -0.833058    33A     -0.815501
      34A     -0.768761    35A     -0.757465    36A     -0.737701
      37A     -0.722657    38A     -0.701203    39A     -0.699402
      40A     -0.688669    41A     -0.672591    42A     -0.659501
      43A     -0.652559    44A     -0.642315    45A     -0.622932
      46A     -0.622394    47A     -0.610707    48A     -0.594836
      49A     -0.585448    50A     -0.568670    51A     -0.553627
      52A     -0.542755    53A     -0.541436    54A     -0.533409
      55A     -0.497949    56A     -0.474775    57A     -0.464440
      58A     -0.459412    59A     -0.457627    60A     -0.451798
      61A     -0.439129    62A     -0.431618    63A     -0.397043
      64A     -0.352325

  @DF-RHF Final Energy:  -886.36612359782282

   => Energetics <=

    Nuclear Repulsion Energy =           1325.3276921283647880
    One-Electron Energy =               -3848.1110648144613151
    Two-Electron Energy =                1636.4172490882735929
    Total Energy =                       -886.3661235978227069
  Basis Set: (AUG-CC-PVTZ AUX)
    Blend: AUG-CC-PVTZ-RI
    Molecular point group: c1

    Geometry (in Angstrom), charge = 0, multiplicity = 1:

       Center              X                  Y                   Z               Mass
    ------------   -----------------  -----------------  -----------------  -----------------
         O           -1.252469141085    -0.652886939965     1.030225665035    15.994914619570
         O           -1.249343141085     2.482632060035    -0.688452334965    15.994914619570
         O           -3.220898141085     1.520880060035     0.742597665035    15.994914619570
         O           -2.361397141085    -3.067055939965     0.092650665035    15.994914619570
         O            1.356161858915     2.246815060035    -0.078831334965    15.994914619570
         N            0.839035858915     0.045004060035     0.253653665035    14.003074004430
         N            3.052857858915     0.720284060035    -0.296016334965    14.003074004430
         N            4.712094858915    -0.836873939965    -0.574587334965    14.003074004430
         C           -1.293852141085     1.078211060035    -0.594366334965    12.000000000000
         C           -2.719539141085     0.654988060035    -0.259682334965    12.000000000000
         C           -0.529776141085     0.481301060035     0.597804665035    12.000000000000
         C           -2.445138841085    -0.712669639965     0.405142165035    12.000000000000
         C           -2.532712141085    -1.850611939965    -0.641579334965    12.000000000000
         C            1.215406858915    -1.261626939965     0.308984665035    12.000000000000
         C            1.751225858915     1.067216060035    -0.061692334965    12.000000000000
         C            2.506732858915    -1.609358939965     0.044705665035    12.000000000000
         C            3.407614858915    -0.550871939965    -0.261214334965    12.000000000000
         H           -0.941974141085     0.591185060035    -1.517180334965     1.007825032230
         H           -3.366950141085     0.642446060035    -1.148754334965     1.007825032230
         H           -0.444658141085     1.221661060035     1.401708665035     1.007825032230
         H           -3.286325141085    -0.908952939965     1.128493665035     1.007825032230
         H           -1.717676141085    -1.700523939965    -1.371753334965     1.007825032230
         H           -3.489929141085    -1.834222939965    -1.186424334965     1.007825032230
         H           -0.301893141085     2.712960060035    -0.527289334965     1.007825032230
         H           -2.851924141085     2.399524060035     0.506373665035     1.007825032230
         H            0.429942858915    -1.963655939965     0.566778665035     1.007825032230
         H           -2.438242141085    -3.798650939965    -0.545522334965     1.007825032230
         H            2.824743858915    -2.645616939965     0.071632665035     1.007825032230
         H            5.120811858915    -1.671079939965    -0.164703334965     1.007825032230
         H            5.315445858915    -0.020272939965    -0.570583334965     1.007825032230

  Basis Set: AUG-CC-PVTZ
    Blend: AUG-CC-PVTZ
  Basis Set: (AUG-CC-PVTZ AUX)
    Blend: AUG-CC-PVTZ-JKFIT
	 Reference Energy          =    -886.3661235978228206 [Eh]
	 Singles Energy            =      -0.0000000000000000 [Eh]
	 Same-Spin Energy          =      -0.9012756050670160 [Eh]
	 Opposite-Spin Energy      =      -2.7142646643599360 [Eh]
	 Correlation Energy        =      -3.6155402694269521 [Eh]
	 Total Energy              =    -889.9816638672497220 [Eh]

	 ================> DF-SCS-MP2 Energies <==================
	-----------------------------------------------------------
	 SCS Same-Spin Scale       =       0.3333333333333333 [-]
	 SCS Opposite-Spin Scale   =       1.2000000000000000 [-]
	 SCS Same-Spin Energy      =      -0.3004252016890053 [Eh]
	 SCS Opposite-Spin Energy  =      -3.2571175972319231 [Eh]
	 SCS Correlation Energy    =      -3.5575427989209283 [Eh]
	 SCS Total Energy          =    -889.9236663967437835 [Eh]
	-----------------------------------------------------------

  Dipole Moment: [D]
     X:     2.1248      Y:    -5.8199      Z:    -1.7054     Total:     6.4260

*** Psi4 exiting successfully. Buy a developer a beer!
