                               Psi4 1.4a3.dev225

  ==> Input File <==

--------------------------------------------------------------------------
#psi4
#
memory 32 gb

molecule  {
0 1
  O       -1.3191770     0.6538360    -1.0992360
  O       -1.5735610    -2.4640850     0.5135810
  O       -3.5606630    -1.0699430    -0.4600060
  O       -1.4399290     3.1254620     0.1265180
  O        1.1065530    -2.3833650     0.0076020
  N        0.7686360    -0.1579440    -0.3706350
  N        2.9363770    -0.9938720     0.1460080
  N        4.7058880     0.4431110     0.3611260
  C       -1.3768610    -1.0680440     0.5552780
  C       -2.7263574    -0.3648095     0.4708196
  C       -0.6377490    -0.5042940    -0.6790150
  C       -2.3707440     0.9655450    -0.1585060
  C       -1.8992030     1.9895750     0.8571380
  C        1.2309690     1.1190800    -0.4442230
  C        1.6104480    -1.2470590    -0.0585760
  C        2.5474650     1.3753690    -0.1998620
  C        3.3802090     0.2523040     0.0808410
  H       -0.8441360    -0.7686950     1.4698480
  H       -3.2257400    -0.2778790     1.4400230
  H       -0.6227070    -1.2428120    -1.4883720
  H       -3.1941750     1.3785730    -0.7472070
  H       -1.0952130     1.5703990     1.4802000
  H       -2.7410530     2.2466610     1.5166010
  H       -0.6710550    -2.8260740     0.3542250
  H       -3.3063470    -2.0105220    -0.3629290
  H        0.4929290     1.8778260    -0.6840360
  H       -1.2098800     3.8154810     0.7720340
  H        2.9334840     2.3875570    -0.2389120
  H        5.1589650     1.2712730    -0.0008400
  H        5.2635310    -0.4031270     0.3606700
units angstrom
no_reorient  #important for SAPT in psi4, default
symmetry c1  #important for SAPT in psi4, default
}

set PROPERTIES_ORIGIN ["COM"]
properties('MP2/aug-cc-pvtz', properties = ['dipole'])
--------------------------------------------------------------------------

    Molecular point group: c1
  Charge       = 0
  Multiplicity = 1
  Basis Set: AUG-CC-PVTZ
    Blend: AUG-CC-PVTZ
  Basis Set: (AUG-CC-PVTZ AUX)
    Blend: AUG-CC-PVTZ-JKFIT

    Orbital Energies [Eh]
    ---------------------

    Doubly Occupied:

       1A    -20.586913     2A    -20.581826     3A    -20.559522
       4A    -20.554436     5A    -20.519818     6A    -15.633128
       7A    -15.599761     8A    -15.551862     9A    -11.386077
      10A    -11.358174    11A    -11.339962    12A    -11.325264
      13A    -11.303765    14A    -11.298509    15A    -11.297385
      16A    -11.293315    17A    -11.246690    18A     -1.429255
      19A     -1.394182    20A     -1.382206    21A     -1.374155
      22A     -1.341488    23A     -1.303771    24A     -1.271465
      25A     -1.181306    26A     -1.079540    27A     -1.070538
      28A     -1.018136    29A     -0.937019    30A     -0.906820
      31A     -0.876932    32A     -0.830336    33A     -0.813080
      34A     -0.766588    35A     -0.750762    36A     -0.735217
      37A     -0.722273    38A     -0.708048    39A     -0.701658
      40A     -0.685163    41A     -0.673566    42A     -0.653604
      43A     -0.648907    44A     -0.633548    45A     -0.620472
      46A     -0.615046    47A     -0.607170    48A     -0.593278
      49A     -0.576168    50A     -0.564583    51A     -0.555760
      52A     -0.545371    53A     -0.536524    54A     -0.531190
      55A     -0.495984    56A     -0.481072    57A     -0.475801
      58A     -0.463707    59A     -0.458195    60A     -0.453396
      61A     -0.443063    62A     -0.430400    63A     -0.392421
      64A     -0.348399

  @DF-RHF Final Energy:  -886.37344581787568

   => Energetics <=

    Nuclear Repulsion Energy =           1334.6034241906784246
    One-Electron Energy =               -3866.9257978448754329
    Two-Electron Energy =                1645.9489278363209905
    Total Energy =                       -886.3734458178757905
  Basis Set: (AUG-CC-PVTZ AUX)
    Blend: AUG-CC-PVTZ-RI
    Molecular point group: c1

    Geometry (in Angstrom), charge = 0, multiplicity = 1:

       Center              X                  Y                   Z               Mass
    ------------   -----------------  -----------------  -----------------  -----------------
         O           -1.332494605889     0.681962378208    -1.084096136571    15.994914619570
         O           -1.586878605889    -2.435958621792     0.528720863429    15.994914619570
         O           -3.573980605889    -1.041816621792    -0.444866136571    15.994914619570
         O           -1.453246605889     3.153588378208     0.141657863429    15.994914619570
         O            1.093235394111    -2.355238621792     0.022741863429    15.994914619570
         N            0.755318394111    -0.129817621792    -0.355495136571    14.003074004430
         N            2.923059394111    -0.965745621792     0.161147863429    14.003074004430
         N            4.692570394111     0.471237378208     0.376265863429    14.003074004430
         C           -1.390178605889    -1.039917621792     0.570417863429    12.000000000000
         C           -2.739675005889    -0.336683121792     0.485959463429    12.000000000000
         C           -0.651066605889    -0.476167621792    -0.663875136571    12.000000000000
         C           -2.384061605889     0.993671378208    -0.143366136571    12.000000000000
         C           -1.912520605889     2.017701378208     0.872277863429    12.000000000000
         C            1.217651394111     1.147206378208    -0.429083136571    12.000000000000
         C            1.597130394111    -1.218932621792    -0.043436136571    12.000000000000
         C            2.534147394111     1.403495378208    -0.184722136571    12.000000000000
         C            3.366891394111     0.280430378208     0.095980863429    12.000000000000
         H           -0.857453605889    -0.740568621792     1.484987863429     1.007825032230
         H           -3.239057605889    -0.249752621792     1.455162863429     1.007825032230
         H           -0.636024605889    -1.214685621792    -1.473232136571     1.007825032230
         H           -3.207492605889     1.406699378208    -0.732067136571     1.007825032230
         H           -1.108530605889     1.598525378208     1.495339863429     1.007825032230
         H           -2.754370605889     2.274787378208     1.531740863429     1.007825032230
         H           -0.684372605889    -2.797947621792     0.369364863429     1.007825032230
         H           -3.319664605889    -1.982395621792    -0.347789136571     1.007825032230
         H            0.479611394111     1.905952378208    -0.668896136571     1.007825032230
         H           -1.223197605889     3.843607378208     0.787173863429     1.007825032230
         H            2.920166394111     2.415683378208    -0.223772136571     1.007825032230
         H            5.145647394111     1.299399378208     0.014299863429     1.007825032230
         H            5.250213394111    -0.375000621792     0.375809863429     1.007825032230

  Basis Set: AUG-CC-PVTZ
    Blend: AUG-CC-PVTZ
  Basis Set: (AUG-CC-PVTZ AUX)
    Blend: AUG-CC-PVTZ-JKFIT
	 Reference Energy          =    -886.3734458178756768 [Eh]
	 Singles Energy            =      -0.0000000000000000 [Eh]
	 Same-Spin Energy          =      -0.9018683432744861 [Eh]
	 Opposite-Spin Energy      =      -2.7162436849604306 [Eh]
	 Correlation Energy        =      -3.6181120282349166 [Eh]
	 Total Energy              =    -889.9915578461105952 [Eh]

	 ================> DF-SCS-MP2 Energies <==================
	-----------------------------------------------------------
	 SCS Same-Spin Scale       =       0.3333333333333333 [-]
	 SCS Opposite-Spin Scale   =       1.2000000000000000 [-]
	 SCS Same-Spin Energy      =      -0.3006227810914953 [Eh]
	 SCS Opposite-Spin Energy  =      -3.2594924219525168 [Eh]
	 SCS Correlation Energy    =      -3.5601152030440120 [Eh]
	 SCS Total Energy          =    -889.9335610209196830 [Eh]
	-----------------------------------------------------------

  Dipole Moment: [D]
     X:     2.7770      Y:     5.8396      Z:     1.9843     Total:     6.7639

*** Psi4 exiting successfully. Buy a developer a beer!
