                               Psi4 1.3.2 release

  ==> Input File <==

--------------------------------------------------------------------------
#psi4
#
memory 32 gb

molecule  {
0 1
  O       -1.2481010    -0.6526680     1.0325150
  O       -1.2449750     2.4828510    -0.6861630
  O       -3.2165300     1.5210990     0.7448870
  O       -2.3570290    -3.0668370     0.0949400
  O        1.3605300     2.2470340    -0.0765420
  N        0.8434040     0.0452230     0.2559430
  N        3.0572260     0.7205030    -0.2937270
  N        4.7164630    -0.8366550    -0.5722980
  C       -1.2894840     1.0784300    -0.5920770
  C       -2.7270252     0.6363308    -0.2467103
  C       -0.5254080     0.4815200     0.6000940
  C       -2.5292560    -0.7168860     0.3610560
  C       -2.5283440    -1.8503930    -0.6392900
  C        1.2197750    -1.2614080     0.3112740
  C        1.7555940     1.0674350    -0.0594030
  C        2.5111010    -1.6091400     0.0469950
  C        3.4119830    -0.5506530    -0.2589250
  H       -0.9376060     0.5914040    -1.5148910
  H       -3.3625820     0.6426650    -1.1464650
  H       -0.4402900     1.2218800     1.4039980
  H       -3.2819570    -0.9087340     1.1307830
  H       -1.7133080    -1.7003050    -1.3694640
  H       -3.4855610    -1.8340040    -1.1841350
  H       -0.2975250     2.7131790    -0.5250000
  H       -2.8554861     2.4065561     0.5222397
  H        0.4343110    -1.9634370     0.5690680
  H       -2.4338740    -3.7984320    -0.5432330
  H        2.8291120    -2.6453980     0.0739220
  H        5.1251800    -1.6708610    -0.1624140
  H        5.3198140    -0.0200540    -0.5682940
units angstrom
no_reorient  #important for SAPT in psi4, default
symmetry c1  #important for SAPT in psi4, default
}

set PROPERTIES_ORIGIN ["COM"]
properties('MP2/aug-cc-pvtz', properties = ['dipole'])
--------------------------------------------------------------------------

    Molecular point group: c1
  Charge       = 0
  Multiplicity = 1
  Basis Set: AUG-CC-PVTZ
    Blend: AUG-CC-PVTZ
  Basis Set: (AUG-CC-PVTZ AUX)
    Blend: AUG-CC-PVTZ-JKFIT

    Orbital Energies [Eh]
    ---------------------

    Doubly Occupied:

       1A    -20.582537     2A    -20.581826     3A    -20.557072
       4A    -20.556742     5A    -20.521739     6A    -15.636708
       7A    -15.599719     8A    -15.553183     9A    -11.388043
      10A    -11.357697    11A    -11.341135    12A    -11.328379
      13A    -11.301754    14A    -11.296897    15A    -11.296679
      16A    -11.293431    17A    -11.248409    18A     -1.429380
      19A     -1.396291    20A     -1.379076    21A     -1.372700
      22A     -1.345580    23A     -1.305886    24A     -1.273657
      25A     -1.182102    26A     -1.081802    27A     -1.069697
      28A     -1.019833    29A     -0.935132    30A     -0.909500
      31A     -0.878129    32A     -0.832732    33A     -0.811622
      34A     -0.766837    35A     -0.752049    36A     -0.734954
      37A     -0.720250    38A     -0.703793    39A     -0.698885
      40A     -0.685532    41A     -0.673626    42A     -0.654396
      43A     -0.651153    44A     -0.638359    45A     -0.620418
      46A     -0.614434    47A     -0.606930    48A     -0.593632
      49A     -0.574853    50A     -0.569463    51A     -0.555358
      52A     -0.545885    53A     -0.536629    54A     -0.531692
      55A     -0.497727    56A     -0.477608    57A     -0.474634
      58A     -0.462134    59A     -0.459804    60A     -0.451387
      61A     -0.439876    62A     -0.433029    63A     -0.394941
      64A     -0.349715

  @DF-RHF Final Energy:  -886.37301439672444

   => Energetics <=

    Nuclear Repulsion Energy =           1323.5908643604411736
    One-Electron Energy =               -3844.8576591951400587
    Two-Electron Energy =                1634.8937804379745558
    Total Energy =                       -886.3730143967243293
  Basis Set: (AUG-CC-PVTZ AUX)
    Blend: AUG-CC-PVTZ-RI
    Molecular point group: c1

    Geometry (in Angstrom), charge = 0, multiplicity = 1:

       Center              X                  Y                   Z               Mass
    ------------   -----------------  -----------------  -----------------  -----------------
         O           -1.247482969343    -0.651764406683     1.031931363758    15.994914619570
         O           -1.244356969343     2.483754593317    -0.686746636242    15.994914619570
         O           -3.215911969343     1.522002593317     0.744303363758    15.994914619570
         O           -2.356410969343    -3.065933406683     0.094356363758    15.994914619570
         O            1.361148030657     2.247937593317    -0.077125636242    15.994914619570
         N            0.844022030657     0.046126593317     0.255359363758    14.003074004430
         N            3.057844030657     0.721406593317    -0.294310636242    14.003074004430
         N            4.717081030657    -0.835751406683    -0.572881636242    14.003074004430
         C           -1.288865969343     1.079333593317    -0.592660636242    12.000000000000
         C           -2.726407169343     0.637234393317    -0.247293936242    12.000000000000
         C           -0.524789969343     0.482423593317     0.599510363758    12.000000000000
         C           -2.528637969343    -0.715982406683     0.360472363758    12.000000000000
         C           -2.527725969343    -1.849489406683    -0.639873636242    12.000000000000
         C            1.220393030657    -1.260504406683     0.310690363758    12.000000000000
         C            1.756212030657     1.068338593317    -0.059986636242    12.000000000000
         C            2.511719030657    -1.608236406683     0.046411363758    12.000000000000
         C            3.412601030657    -0.549749406683    -0.259508636242    12.000000000000
         H           -0.936987969343     0.592307593317    -1.515474636242     1.007825032230
         H           -3.361963969343     0.643568593317    -1.147048636242     1.007825032230
         H           -0.439671969343     1.222783593317     1.403414363758     1.007825032230
         H           -3.281338969343    -0.907830406683     1.130199363758     1.007825032230
         H           -1.712689969343    -1.699401406683    -1.370047636242     1.007825032230
         H           -3.484942969343    -1.833100406683    -1.184718636242     1.007825032230
         H           -0.296906969343     2.714082593317    -0.525583636242     1.007825032230
         H           -2.854868069343     2.407459693317     0.521656063758     1.007825032230
         H            0.434929030657    -1.962533406683     0.568484363758     1.007825032230
         H           -2.433255969343    -3.797528406683    -0.543816636242     1.007825032230
         H            2.829730030657    -2.644494406683     0.073338363758     1.007825032230
         H            5.125798030657    -1.669957406683    -0.162997636242     1.007825032230
         H            5.320432030657    -0.019150406683    -0.568877636242     1.007825032230

  Basis Set: AUG-CC-PVTZ
    Blend: AUG-CC-PVTZ
  Basis Set: (AUG-CC-PVTZ AUX)
    Blend: AUG-CC-PVTZ-JKFIT
	 Reference Energy          =    -886.3730143967244430 [Eh]
	 Singles Energy            =      -0.0000000000000000 [Eh]
	 Same-Spin Energy          =      -0.9012468956435484 [Eh]
	 Opposite-Spin Energy      =      -2.7148664933770790 [Eh]
	 Correlation Energy        =      -3.6161133890206276 [Eh]
	 Total Energy              =    -889.9891277857450405 [Eh]

	 ================> DF-SCS-MP2 Energies <==================
	-----------------------------------------------------------
	 SCS Same-Spin Scale       =       0.3333333333333333 [-]
	 SCS Opposite-Spin Scale   =       1.2000000000000000 [-]
	 SCS Same-Spin Energy      =      -0.3004156318811828 [Eh]
	 SCS Opposite-Spin Energy  =      -3.2578397920524949 [Eh]
	 SCS Correlation Energy    =      -3.5582554239336774 [Eh]
	 SCS Total Energy          =    -889.9312698206581445 [Eh]
	-----------------------------------------------------------

  Dipole Moment: [D]
     X:     1.6745      Y:    -5.9525      Z:    -1.8070     Total:     6.4422

*** Psi4 exiting successfully. Buy a developer a beer!
