                               Psi4 1.3.2 release

  ==> Input File <==

--------------------------------------------------------------------------
#psi4
#
memory 32 gb

molecule  {
0 1
  O       -1.2481010    -0.6526680     1.0325150
  O       -1.2449750     2.4828510    -0.6861630
  O       -3.2165300     1.5210990     0.7448870
  O       -2.3570290    -3.0668370     0.0949400
  O        1.3605300     2.2470340    -0.0765420
  N        0.8434040     0.0452230     0.2559430
  N        3.0572260     0.7205030    -0.2937270
  N        4.7164630    -0.8366550    -0.5722980
  C       -1.2894840     1.0784300    -0.5920770
  C       -2.6734738     0.6457684    -0.2886031
  C       -0.5254080     0.4815200     0.6000940
  C       -2.5292560    -0.7168860     0.3610560
  C       -2.5283440    -1.8503930    -0.6392900
  C        1.2197750    -1.2614080     0.3112740
  C        1.7555940     1.0674350    -0.0594030
  C        2.5111010    -1.6091400     0.0469950
  C        3.4119830    -0.5506530    -0.2589250
  H       -0.9376060     0.5914040    -1.5148910
  H       -3.3625820     0.6426650    -1.1464650
  H       -0.4402900     1.2218800     1.4039980
  H       -3.2662985    -0.9430559     1.1365943
  H       -1.7133080    -1.7003050    -1.3694640
  H       -3.4855610    -1.8340040    -1.1841350
  H       -0.2975250     2.7131790    -0.5250000
  H       -2.8475560     2.3997430     0.5086630
  H        0.4343110    -1.9634370     0.5690680
  H       -2.4338740    -3.7984320    -0.5432330
  H        2.8291120    -2.6453980     0.0739220
  H        5.1251800    -1.6708610    -0.1624140
  H        5.3198140    -0.0200540    -0.5682940
units angstrom
no_reorient  #important for SAPT in psi4, default
symmetry c1  #important for SAPT in psi4, default
}

set PROPERTIES_ORIGIN ["COM"]
properties('MP2/aug-cc-pvtz', properties = ['dipole'])
--------------------------------------------------------------------------

    Molecular point group: c1
  Charge       = 0
  Multiplicity = 1
  Basis Set: AUG-CC-PVTZ
    Blend: AUG-CC-PVTZ
  Basis Set: (AUG-CC-PVTZ AUX)
    Blend: AUG-CC-PVTZ-JKFIT

    Orbital Energies [Eh]
    ---------------------

    Doubly Occupied:

       1A    -20.582734     2A    -20.581708     3A    -20.558076
       4A    -20.554146     5A    -20.522426     6A    -15.637376
       7A    -15.600158     8A    -15.553703     9A    -11.388680
      10A    -11.358222    11A    -11.342546    12A    -11.328936
      13A    -11.301062    14A    -11.298426    15A    -11.296921
      16A    -11.293365    17A    -11.248953    18A     -1.429786
      19A     -1.396622    20A     -1.377750    21A     -1.372445
      22A     -1.335954    23A     -1.306464    24A     -1.274201
      25A     -1.182616    26A     -1.082809    27A     -1.073024
      28A     -1.025912    29A     -0.937394    30A     -0.909810
      31A     -0.876623    32A     -0.832828    33A     -0.812518
      34A     -0.767391    35A     -0.753623    36A     -0.738207
      37A     -0.720972    38A     -0.702108    39A     -0.695157
      40A     -0.685938    41A     -0.668350    42A     -0.655124
      43A     -0.651781    44A     -0.638470    45A     -0.621190
      46A     -0.614803    47A     -0.605541    48A     -0.594175
      49A     -0.574429    50A     -0.569409    51A     -0.552489
      52A     -0.541601    53A     -0.535014    54A     -0.532099
      55A     -0.500117    56A     -0.482635    57A     -0.476975
      58A     -0.462588    59A     -0.460315    60A     -0.454100
      61A     -0.441845    62A     -0.433355    63A     -0.395699
      64A     -0.350587

  @DF-RHF Final Energy:  -886.36932314345722

   => Energetics <=

    Nuclear Repulsion Energy =           1324.1913991133239961
    One-Electron Energy =               -3846.0208808305205821
    Two-Electron Energy =                1635.4601585737391360
    Total Energy =                       -886.3693231434572226
  Basis Set: (AUG-CC-PVTZ AUX)
    Blend: AUG-CC-PVTZ-RI
    Molecular point group: c1

    Geometry (in Angstrom), charge = 0, multiplicity = 1:

       Center              X                  Y                   Z               Mass
    ------------   -----------------  -----------------  -----------------  -----------------
         O           -1.250224350155    -0.652059752605     1.034031611290    15.994914619570
         O           -1.247098350155     2.483459247395    -0.684646388710    15.994914619570
         O           -3.218653350155     1.521707247395     0.746403611290    15.994914619570
         O           -2.359152350155    -3.066228752605     0.096456611290    15.994914619570
         O            1.358406649845     2.247642247395    -0.075025388710    15.994914619570
         N            0.841280649845     0.045831247395     0.257459611290    14.003074004430
         N            3.055102649845     0.721111247395    -0.292210388710    14.003074004430
         N            4.714339649845    -0.836046752605    -0.570781388710    14.003074004430
         C           -1.291607350155     1.079038247395    -0.590560388710    12.000000000000
         C           -2.675597150155     0.646376647395    -0.287086488710    12.000000000000
         C           -0.527531350155     0.482128247395     0.601610611290    12.000000000000
         C           -2.531379350155    -0.716277752605     0.362572611290    12.000000000000
         C           -2.530467350155    -1.849784752605    -0.637773388710    12.000000000000
         C            1.217651649845    -1.260799752605     0.312790611290    12.000000000000
         C            1.753470649845     1.068043247395    -0.057886388710    12.000000000000
         C            2.508977649845    -1.608531752605     0.048511611290    12.000000000000
         C            3.409859649845    -0.550044752605    -0.257408388710    12.000000000000
         H           -0.939729350155     0.592012247395    -1.513374388710     1.007825032230
         H           -3.364705350155     0.643273247395    -1.144948388710     1.007825032230
         H           -0.442413350155     1.222488247395     1.405514611290     1.007825032230
         H           -3.268421850155    -0.942447652605     1.138110911290     1.007825032230
         H           -1.715431350155    -1.699696752605    -1.367947388710     1.007825032230
         H           -3.487684350155    -1.833395752605    -1.182618388710     1.007825032230
         H           -0.299648350155     2.713787247395    -0.523483388710     1.007825032230
         H           -2.849679350155     2.400351247395     0.510179611290     1.007825032230
         H            0.432187649845    -1.962828752605     0.570584611290     1.007825032230
         H           -2.435997350155    -3.797823752605    -0.541716388710     1.007825032230
         H            2.826988649845    -2.644789752605     0.075438611290     1.007825032230
         H            5.123056649845    -1.670252752605    -0.160897388710     1.007825032230
         H            5.317690649845    -0.019445752605    -0.566777388710     1.007825032230

  Basis Set: AUG-CC-PVTZ
    Blend: AUG-CC-PVTZ
  Basis Set: (AUG-CC-PVTZ AUX)
    Blend: AUG-CC-PVTZ-JKFIT
	 Reference Energy          =    -886.3693231434572226 [Eh]
	 Singles Energy            =      -0.0000000000000000 [Eh]
	 Same-Spin Energy          =      -0.9015326356100450 [Eh]
	 Opposite-Spin Energy      =      -2.7159064774824797 [Eh]
	 Correlation Energy        =      -3.6174391130925247 [Eh]
	 Total Energy              =    -889.9867622565496958 [Eh]

	 ================> DF-SCS-MP2 Energies <==================
	-----------------------------------------------------------
	 SCS Same-Spin Scale       =       0.3333333333333333 [-]
	 SCS Opposite-Spin Scale   =       1.2000000000000000 [-]
	 SCS Same-Spin Energy      =      -0.3005108785366817 [Eh]
	 SCS Opposite-Spin Energy  =      -3.2590877729789756 [Eh]
	 SCS Correlation Energy    =      -3.5595986515156572 [Eh]
	 SCS Total Energy          =    -889.9289217949728936 [Eh]
	-----------------------------------------------------------

  Dipole Moment: [D]
     X:     1.7998      Y:    -6.0501      Z:    -1.8858     Total:     6.5878

*** Psi4 exiting successfully. Buy a developer a beer!
