                               Psi4 1.3.2 release

  ==> Input File <==

--------------------------------------------------------------------------
#psi4
#
memory 32 gb

molecule  {
0 1
  O       -1.2481010    -0.6526680     1.0325150
  O       -1.2449750     2.4828510    -0.6861630
  O       -3.2165300     1.5210990     0.7448870
  O       -2.3570290    -3.0668370     0.0949400
  O        1.3605300     2.2470340    -0.0765420
  N        0.8434040     0.0452230     0.2559430
  N        3.0572260     0.7205030    -0.2937270
  N        4.7164630    -0.8366550    -0.5722980
  C       -1.2894840     1.0784300    -0.5920770
  C       -2.7151710     0.6552070    -0.2573930
  C       -0.5254080     0.4815200     0.6000940
  C       -2.5292560    -0.7168860     0.3610560
  C       -2.5312950    -1.8636991    -0.6602216
  C        1.2197750    -1.2614080     0.3112740
  C        1.7555940     1.0674350    -0.0594030
  C        2.5111010    -1.6091400     0.0469950
  C        3.4119830    -0.5506530    -0.2589250
  H       -0.9376060     0.5914040    -1.5148910
  H       -3.3625820     0.6426650    -1.1464650
  H       -0.4402900     1.2218800     1.4039980
  H       -3.2819570    -0.9087340     1.1307830
  H       -1.7133080    -1.7003050    -1.3694640
  H       -3.4855610    -1.8340040    -1.1841350
  H       -0.2975250     2.7131790    -0.5250000
  H       -2.8475560     2.3997430     0.5086630
  H        0.4343110    -1.9634370     0.5690680
  H       -2.4364010    -3.7871228    -0.5556672
  H        2.8291120    -2.6453980     0.0739220
  H        5.1251800    -1.6708610    -0.1624140
  H        5.3198140    -0.0200540    -0.5682940
units angstrom
no_reorient  #important for SAPT in psi4, default
symmetry c1  #important for SAPT in psi4, default
}

set PROPERTIES_ORIGIN ["COM"]
properties('MP2/aug-cc-pvtz', properties = ['dipole'])
--------------------------------------------------------------------------

    Molecular point group: c1
  Charge       = 0
  Multiplicity = 1
  Basis Set: AUG-CC-PVTZ
    Blend: AUG-CC-PVTZ
  Basis Set: (AUG-CC-PVTZ AUX)
    Blend: AUG-CC-PVTZ-JKFIT

    Orbital Energies [Eh]
    ---------------------

    Doubly Occupied:

       1A    -20.583388     2A    -20.581658     3A    -20.557412
       4A    -20.557121     5A    -20.521978     6A    -15.636919
       7A    -15.599868     8A    -15.553359     9A    -11.388256
      10A    -11.357875    11A    -11.341464    12A    -11.328550
      13A    -11.300255    14A    -11.297488    15A    -11.296517
      16A    -11.292315    17A    -11.248589    18A     -1.428995
      19A     -1.396287    20A     -1.380287    21A     -1.373730
      22A     -1.346049    23A     -1.306053    24A     -1.273763
      25A     -1.182239    26A     -1.081837    27A     -1.065120
      28A     -1.019952    29A     -0.935246    30A     -0.909685
      31A     -0.877550    32A     -0.832104    33A     -0.811790
      34A     -0.766996    35A     -0.752378    36A     -0.735674
      37A     -0.720116    38A     -0.701775    39A     -0.698288
      40A     -0.685706    41A     -0.672727    42A     -0.655456
      43A     -0.651799    44A     -0.638282    45A     -0.621398
      46A     -0.613662    47A     -0.606025    48A     -0.593817
      49A     -0.576254    50A     -0.570416    51A     -0.555031
      52A     -0.544631    53A     -0.537461    54A     -0.531429
      55A     -0.498096    56A     -0.480040    57A     -0.474175
      58A     -0.460664    59A     -0.459838    60A     -0.452837
      61A     -0.440203    62A     -0.432835    63A     -0.395184
      64A     -0.350009

  @DF-RHF Final Energy:  -886.37261886615806

   => Energetics <=

    Nuclear Repulsion Energy =           1323.2542761682773289
    One-Electron Energy =               -3844.1799834685743917
    Two-Electron Energy =                1634.5530884341392266
    Total Energy =                       -886.3726188661580636
  Basis Set: (AUG-CC-PVTZ AUX)
    Blend: AUG-CC-PVTZ-RI
    Molecular point group: c1

    Geometry (in Angstrom), charge = 0, multiplicity = 1:

       Center              X                  Y                   Z               Mass
    ------------   -----------------  -----------------  -----------------  -----------------
         O           -1.247944879947    -0.652058017269     1.033599854893    15.994914619570
         O           -1.244818879947     2.483460982731    -0.685078145107    15.994914619570
         O           -3.216373879947     1.521708982731     0.745971854893    15.994914619570
         O           -2.356872879947    -3.066227017269     0.096024854893    15.994914619570
         O            1.360686120053     2.247643982731    -0.075457145107    15.994914619570
         N            0.843560120053     0.045832982731     0.257027854893    14.003074004430
         N            3.057382120053     0.721112982731    -0.292642145107    14.003074004430
         N            4.716619120053    -0.836045017269    -0.571213145107    14.003074004430
         C           -1.289327879947     1.079039982731    -0.590992145107    12.000000000000
         C           -2.715014879947     0.655816982731    -0.256308145107    12.000000000000
         C           -0.525251879947     0.482129982731     0.601178854893    12.000000000000
         C           -2.529099879947    -0.716276017269     0.362140854893    12.000000000000
         C           -2.531138879947    -1.863089117269    -0.659136745107    12.000000000000
         C            1.219931120053    -1.260798017269     0.312358854893    12.000000000000
         C            1.755750120053     1.068044982731    -0.058318145107    12.000000000000
         C            2.511257120053    -1.608530017269     0.048079854893    12.000000000000
         C            3.412139120053    -0.550043017269    -0.257840145107    12.000000000000
         H           -0.937449879947     0.592013982731    -1.513806145107     1.007825032230
         H           -3.362425879947     0.643274982731    -1.145380145107     1.007825032230
         H           -0.440133879947     1.222489982731     1.405082854893     1.007825032230
         H           -3.281800879947    -0.908124017269     1.131867854893     1.007825032230
         H           -1.713151879947    -1.699695017269    -1.368379145107     1.007825032230
         H           -3.485404879947    -1.833394017269    -1.183050145107     1.007825032230
         H           -0.297368879947     2.713788982731    -0.523915145107     1.007825032230
         H           -2.847399879947     2.400352982731     0.509747854893     1.007825032230
         H            0.434467120053    -1.962827017269     0.570152854893     1.007825032230
         H           -2.436244879947    -3.786512817269    -0.554582345107     1.007825032230
         H            2.829268120053    -2.644788017269     0.075006854893     1.007825032230
         H            5.125336120053    -1.670251017269    -0.161329145107     1.007825032230
         H            5.319970120053    -0.019444017269    -0.567209145107     1.007825032230

  Basis Set: AUG-CC-PVTZ
    Blend: AUG-CC-PVTZ
  Basis Set: (AUG-CC-PVTZ AUX)
    Blend: AUG-CC-PVTZ-JKFIT
	 Reference Energy          =    -886.3726188661580636 [Eh]
	 Singles Energy            =      -0.0000000000000000 [Eh]
	 Same-Spin Energy          =      -0.9012228052112982 [Eh]
	 Opposite-Spin Energy      =      -2.7151068811806844 [Eh]
	 Correlation Energy        =      -3.6163296863919827 [Eh]
	 Total Energy              =    -889.9889485525500277 [Eh]

	 ================> DF-SCS-MP2 Energies <==================
	-----------------------------------------------------------
	 SCS Same-Spin Scale       =       0.3333333333333333 [-]
	 SCS Opposite-Spin Scale   =       1.2000000000000000 [-]
	 SCS Same-Spin Energy      =      -0.3004076017370994 [Eh]
	 SCS Opposite-Spin Energy  =      -3.2581282574168213 [Eh]
	 SCS Correlation Energy    =      -3.5585358591539205 [Eh]
	 SCS Total Energy          =    -889.9311547253120125 [Eh]
	-----------------------------------------------------------

  Dipole Moment: [D]
     X:     1.7081      Y:    -5.9520      Z:    -1.8413     Total:     6.4602

*** Psi4 exiting successfully. Buy a developer a beer!
