                               Psi4 1.3.2 release

  ==> Input File <==

--------------------------------------------------------------------------
#psi4
#
memory 32 gb

molecule  {
0 1
  O       -1.2327064    -0.6921777     1.0050186
  O       -1.2449750     2.4828510    -0.6861630
  O       -3.2165300     1.5210990     0.7448870
  O       -2.3570290    -3.0668370     0.0949400
  O        1.3605300     2.2470340    -0.0765420
  N        0.8434040     0.0452230     0.2559430
  N        3.0572260     0.7205030    -0.2937270
  N        4.7164630    -0.8366550    -0.5722980
  C       -1.2894840     1.0784300    -0.5920770
  C       -2.7151710     0.6552070    -0.2573930
  C       -0.5254080     0.4815200     0.6000940
  C       -2.5292560    -0.7168860     0.3610560
  C       -2.4786978    -1.8614968    -0.6252710
  C        1.2197750    -1.2614080     0.3112740
  C        1.7555940     1.0674350    -0.0594030
  C        2.5111010    -1.6091400     0.0469950
  C        3.4119830    -0.5506530    -0.2589250
  H       -0.9376060     0.5914040    -1.5148910
  H       -3.3625820     0.6426650    -1.1464650
  H       -0.4402900     1.2218800     1.4039980
  H       -3.2819570    -0.9087340     1.1307830
  H       -1.7133080    -1.7003050    -1.3694640
  H       -3.4855610    -1.8340040    -1.1841350
  H       -0.2975250     2.7131790    -0.5250000
  H       -2.8475560     2.3997430     0.5086630
  H        0.4343110    -1.9634370     0.5690680
  H       -2.4338740    -3.7984320    -0.5432330
  H        2.8291120    -2.6453980     0.0739220
  H        5.1251800    -1.6708610    -0.1624140
  H        5.3198140    -0.0200540    -0.5682940
units angstrom
no_reorient  #important for SAPT in psi4, default
symmetry c1  #important for SAPT in psi4, default
}

set PROPERTIES_ORIGIN ["COM"]
properties('MP2/aug-cc-pvtz', properties = ['dipole'])
--------------------------------------------------------------------------

    Molecular point group: c1
  Charge       = 0
  Multiplicity = 1
  Basis Set: AUG-CC-PVTZ
    Blend: AUG-CC-PVTZ
  Basis Set: (AUG-CC-PVTZ AUX)
    Blend: AUG-CC-PVTZ-JKFIT

    Orbital Energies [Eh]
    ---------------------

    Doubly Occupied:

       1A    -20.583357     2A    -20.581053     3A    -20.558619
       4A    -20.557966     5A    -20.522318     6A    -15.637028
       7A    -15.599851     8A    -15.553315     9A    -11.388325
      10A    -11.357822    11A    -11.343484    12A    -11.327996
      13A    -11.300786    14A    -11.297423    15A    -11.296089
      16A    -11.293741    17A    -11.248346    18A     -1.427344
      19A     -1.396710    20A     -1.383932    21A     -1.375650
      22A     -1.347044    23A     -1.306029    24A     -1.273681
      25A     -1.182289    26A     -1.082110    27A     -1.065810
      28A     -1.021621    29A     -0.933905    30A     -0.908948
      31A     -0.877349    32A     -0.833987    33A     -0.810281
      34A     -0.766385    35A     -0.752184    36A     -0.738228
      37A     -0.721347    38A     -0.706278    39A     -0.696096
      40A     -0.686150    41A     -0.672982    42A     -0.654837
      43A     -0.650009    44A     -0.639015    45A     -0.620389
      46A     -0.613538    47A     -0.607842    48A     -0.593950
      49A     -0.576563    50A     -0.571327    51A     -0.555506
      52A     -0.544239    53A     -0.538151    54A     -0.531322
      55A     -0.498264    56A     -0.476616    57A     -0.471572
      58A     -0.462206    59A     -0.460319    60A     -0.454015
      61A     -0.438614    62A     -0.433080    63A     -0.395351
      64A     -0.350110

  @DF-RHF Final Energy:  -886.36888451269328

   => Energetics <=

    Nuclear Repulsion Energy =           1324.4077071459716990
    One-Electron Energy =               -3846.4517977847526709
    Two-Electron Energy =                1635.6752061260879145
    Total Energy =                       -886.3688845126932847
  Basis Set: (AUG-CC-PVTZ AUX)
    Blend: AUG-CC-PVTZ-RI
    Molecular point group: c1

    Geometry (in Angstrom), charge = 0, multiplicity = 1:

       Center              X                  Y                   Z               Mass
    ------------   -----------------  -----------------  -----------------  -----------------
         O           -1.236170193155    -0.689029827017     1.006135805123    15.994914619570
         O           -1.248438793155     2.485998872983    -0.685045794877    15.994914619570
         O           -3.219993793155     1.524246872983     0.746004205123    15.994914619570
         O           -2.360492793155    -3.063689127017     0.096057205123    15.994914619570
         O            1.357066206845     2.250181872983    -0.075424794877    15.994914619570
         N            0.839940206845     0.048370872983     0.257060205123    14.003074004430
         N            3.053762206845     0.723650872983    -0.292609794877    14.003074004430
         N            4.712999206845    -0.833507127017    -0.571180794877    14.003074004430
         C           -1.292947793155     1.081577872983    -0.590959794877    12.000000000000
         C           -2.718634793155     0.658354872983    -0.256275794877    12.000000000000
         C           -0.528871793155     0.484667872983     0.601211205123    12.000000000000
         C           -2.532719793155    -0.713738127017     0.362173205123    12.000000000000
         C           -2.482161593155    -1.858348927017    -0.624153794877    12.000000000000
         C            1.216311206845    -1.258260127017     0.312391205123    12.000000000000
         C            1.752130206845     1.070582872983    -0.058285794877    12.000000000000
         C            2.507637206845    -1.605992127017     0.048112205123    12.000000000000
         C            3.408519206845    -0.547505127017    -0.257807794877    12.000000000000
         H           -0.941069793155     0.594551872983    -1.513773794877     1.007825032230
         H           -3.366045793155     0.645812872983    -1.145347794877     1.007825032230
         H           -0.443753793155     1.225027872983     1.405115205123     1.007825032230
         H           -3.285420793155    -0.905586127017     1.131900205123     1.007825032230
         H           -1.716771793155    -1.697157127017    -1.368346794877     1.007825032230
         H           -3.489024793155    -1.830856127017    -1.183017794877     1.007825032230
         H           -0.300988793155     2.716326872983    -0.523882794877     1.007825032230
         H           -2.851019793155     2.402890872983     0.509780205123     1.007825032230
         H            0.430847206845    -1.960289127017     0.570185205123     1.007825032230
         H           -2.437337793155    -3.795284127017    -0.542115794877     1.007825032230
         H            2.825648206845    -2.642250127017     0.075039205123     1.007825032230
         H            5.121716206845    -1.667713127017    -0.161296794877     1.007825032230
         H            5.316350206845    -0.016906127017    -0.567176794877     1.007825032230

  Basis Set: AUG-CC-PVTZ
    Blend: AUG-CC-PVTZ
  Basis Set: (AUG-CC-PVTZ AUX)
    Blend: AUG-CC-PVTZ-JKFIT
	 Reference Energy          =    -886.3688845126932847 [Eh]
	 Singles Energy            =      -0.0000000000000000 [Eh]
	 Same-Spin Energy          =      -0.9014966412593965 [Eh]
	 Opposite-Spin Energy      =      -2.7153710806380946 [Eh]
	 Correlation Energy        =      -3.6168677218974912 [Eh]
	 Total Energy              =    -889.9857522345907910 [Eh]

	 ================> DF-SCS-MP2 Energies <==================
	-----------------------------------------------------------
	 SCS Same-Spin Scale       =       0.3333333333333333 [-]
	 SCS Opposite-Spin Scale   =       1.2000000000000000 [-]
	 SCS Same-Spin Energy      =      -0.3004988804197988 [Eh]
	 SCS Opposite-Spin Energy  =      -3.2584452967657134 [Eh]
	 SCS Correlation Energy    =      -3.5589441771855124 [Eh]
	 SCS Total Energy          =    -889.9278286898787655 [Eh]
	-----------------------------------------------------------

  Dipole Moment: [D]
     X:     1.7854      Y:    -5.9141      Z:    -1.7367     Total:     6.4172

*** Psi4 exiting successfully. Buy a developer a beer!
