                               Psi4 1.3.2 release

  ==> Input File <==

--------------------------------------------------------------------------
#psi4
#
memory 32 gb

molecule  {
0 1
  O       -1.2481010    -0.6526680     1.0325150
  O       -1.2449750     2.4828510    -0.6861630
  O       -3.2165300     1.5210990     0.7448870
  O       -2.3570290    -3.0668370     0.0949400
  O        1.3605300     2.2470340    -0.0765420
  N        0.8434040     0.0452230     0.2559430
  N        3.0572260     0.7205030    -0.2937270
  N        4.7164630    -0.8366550    -0.5722980
  C       -1.2894840     1.0784300    -0.5920770
  C       -2.7317652     0.6793097    -0.3018315
  C       -0.4798888     0.5010024     0.5794683
  C       -2.5292560    -0.7168860     0.3610560
  C       -2.5283440    -1.8503930    -0.6392900
  C        1.2197750    -1.2614080     0.3112740
  C        1.7555940     1.0674350    -0.0594030
  C        2.5111010    -1.6091400     0.0469950
  C        3.4119830    -0.5506530    -0.2589250
  H       -0.9376060     0.5914040    -1.5148910
  H       -3.3625820     0.6426650    -1.1464650
  H       -0.4402900     1.2218800     1.4039980
  H       -3.2819570    -0.9087340     1.1307830
  H       -1.7133080    -1.7003050    -1.3694640
  H       -3.4855610    -1.8340040    -1.1841350
  H       -0.2975250     2.7131790    -0.5250000
  H       -2.8475560     2.3997430     0.5086630
  H        0.4343110    -1.9634370     0.5690680
  H       -2.4338740    -3.7984320    -0.5432330
  H        2.8291120    -2.6453980     0.0739220
  H        5.1251800    -1.6708610    -0.1624140
  H        5.3198140    -0.0200540    -0.5682940
units angstrom
no_reorient  #important for SAPT in psi4, default
symmetry c1  #important for SAPT in psi4, default
}

set PROPERTIES_ORIGIN ["COM"]
properties('MP2/aug-cc-pvtz', properties = ['dipole'])
--------------------------------------------------------------------------

    Molecular point group: c1
  Charge       = 0
  Multiplicity = 1
  Basis Set: AUG-CC-PVTZ
    Blend: AUG-CC-PVTZ
  Basis Set: (AUG-CC-PVTZ AUX)
    Blend: AUG-CC-PVTZ-JKFIT

    Orbital Energies [Eh]
    ---------------------

    Doubly Occupied:

       1A    -20.579534     2A    -20.575536     3A    -20.555981
       4A    -20.555688     5A    -20.525094     6A    -15.641036
       7A    -15.601853     8A    -15.555554     9A    -11.391040
      10A    -11.360307    11A    -11.341159    12A    -11.331530
      13A    -11.297577    14A    -11.296832    15A    -11.294275
      16A    -11.290932    17A    -11.251317    18A     -1.421844
      19A     -1.394067    20A     -1.377036    21A     -1.367373
      22A     -1.342634    23A     -1.309137    24A     -1.279128
      25A     -1.185567    26A     -1.086675    27A     -1.058535
      28A     -1.018947    29A     -0.938420    30A     -0.911560
      31A     -0.877734    32A     -0.830273    33A     -0.812548
      34A     -0.769807    35A     -0.755075    36A     -0.735675
      37A     -0.721139    38A     -0.701078    39A     -0.692282
      40A     -0.686366    41A     -0.672782    42A     -0.653669
      43A     -0.651496    44A     -0.638637    45A     -0.620228
      46A     -0.612647    47A     -0.603601    48A     -0.599236
      49A     -0.575028    50A     -0.566157    51A     -0.550984
      52A     -0.543995    53A     -0.535826    54A     -0.529619
      55A     -0.498772    56A     -0.474509    57A     -0.468918
      58A     -0.462263    59A     -0.461182    60A     -0.448664
      61A     -0.442510    62A     -0.435182    63A     -0.397209
      64A     -0.353024

  @DF-RHF Final Energy:  -886.36641252938045

   => Energetics <=

    Nuclear Repulsion Energy =           1322.8138484779483406
    One-Electron Energy =               -3843.3319595849579855
    Two-Electron Energy =                1634.1516985776293041
    Total Energy =                       -886.3664125293803409
  Basis Set: (AUG-CC-PVTZ AUX)
    Blend: AUG-CC-PVTZ-RI
    Molecular point group: c1

    Geometry (in Angstrom), charge = 0, multiplicity = 1:

       Center              X                  Y                   Z               Mass
    ------------   -----------------  -----------------  -----------------  -----------------
         O           -1.249528926471    -0.654819583255     1.035726924004    15.994914619570
         O           -1.246402926471     2.480699416745    -0.682951075996    15.994914619570
         O           -3.217957926471     1.518947416745     0.748098924004    15.994914619570
         O           -2.358456926471    -3.068988583255     0.098151924004    15.994914619570
         O            1.359102073529     2.244882416745    -0.073330075996    15.994914619570
         N            0.841976073529     0.043071416745     0.259154924004    14.003074004430
         N            3.055798073529     0.718351416745    -0.290515075996    14.003074004430
         N            4.715035073529    -0.838806583255    -0.569086075996    14.003074004430
         C           -1.290911926471     1.076278416745    -0.588865075996    12.000000000000
         C           -2.733193126471     0.677158116745    -0.298619575996    12.000000000000
         C           -0.481316726471     0.498850816745     0.582680224004    12.000000000000
         C           -2.530683926471    -0.719037583255     0.364267924004    12.000000000000
         C           -2.529771926471    -1.852544583255    -0.636078075996    12.000000000000
         C            1.218347073529    -1.263559583255     0.314485924004    12.000000000000
         C            1.754166073529     1.065283416745    -0.056191075996    12.000000000000
         C            2.509673073529    -1.611291583255     0.050206924004    12.000000000000
         C            3.410555073529    -0.552804583255    -0.255713075996    12.000000000000
         H           -0.939033926471     0.589252416745    -1.511679075996     1.007825032230
         H           -3.364009926471     0.640513416745    -1.143253075996     1.007825032230
         H           -0.441717926471     1.219728416745     1.407209924004     1.007825032230
         H           -3.283384926471    -0.910885583255     1.133994924004     1.007825032230
         H           -1.714735926471    -1.702456583255    -1.366252075996     1.007825032230
         H           -3.486988926471    -1.836155583255    -1.180923075996     1.007825032230
         H           -0.298952926471     2.711027416745    -0.521788075996     1.007825032230
         H           -2.848983926471     2.397591416745     0.511874924004     1.007825032230
         H            0.432883073529    -1.965588583255     0.572279924004     1.007825032230
         H           -2.435301926471    -3.800583583255    -0.540021075996     1.007825032230
         H            2.827684073529    -2.647549583255     0.077133924004     1.007825032230
         H            5.123752073529    -1.673012583255    -0.159202075996     1.007825032230
         H            5.318386073529    -0.022205583255    -0.565082075996     1.007825032230

  Basis Set: AUG-CC-PVTZ
    Blend: AUG-CC-PVTZ
  Basis Set: (AUG-CC-PVTZ AUX)
    Blend: AUG-CC-PVTZ-JKFIT
	 Reference Energy          =    -886.3664125293804545 [Eh]
	 Singles Energy            =      -0.0000000000000000 [Eh]
	 Same-Spin Energy          =      -0.9013088012272642 [Eh]
	 Opposite-Spin Energy      =      -2.7161140042337903 [Eh]
	 Correlation Energy        =      -3.6174228054610547 [Eh]
	 Total Energy              =    -889.9838353348415012 [Eh]

	 ================> DF-SCS-MP2 Energies <==================
	-----------------------------------------------------------
	 SCS Same-Spin Scale       =       0.3333333333333333 [-]
	 SCS Opposite-Spin Scale   =       1.2000000000000000 [-]
	 SCS Same-Spin Energy      =      -0.3004362670757547 [Eh]
	 SCS Opposite-Spin Energy  =      -3.2593368050805482 [Eh]
	 SCS Correlation Energy    =      -3.5597730721563030 [Eh]
	 SCS Total Energy          =    -889.9261856015367584 [Eh]
	-----------------------------------------------------------

  Dipole Moment: [D]
     X:     2.0359      Y:    -5.8682      Z:    -1.9236     Total:     6.5024

*** Psi4 exiting successfully. Buy a developer a beer!
