                               Psi4 1.3.2 release

  ==> Input File <==

--------------------------------------------------------------------------
#psi4
#
memory 32 gb

molecule  {
0 1
  O       -1.2078135    -0.6801062     1.0250678
  O       -1.2449750     2.4828510    -0.6861630
  O       -3.2165300     1.5210990     0.7448870
  O       -2.3570290    -3.0668370     0.0949400
  O        1.3605300     2.2470340    -0.0765420
  N        0.8303214    -0.0029559     0.2688508
  N        3.0572260     0.7205030    -0.2937270
  N        4.7164630    -0.8366550    -0.5722980
  C       -1.2894840     1.0784300    -0.5920770
  C       -2.7151710     0.6552070    -0.2573930
  C       -0.5254080     0.4815200     0.6000940
  C       -2.5292560    -0.7168860     0.3610560
  C       -2.5283440    -1.8503930    -0.6392900
  C        1.2197750    -1.2614080     0.3112740
  C        1.7555940     1.0674350    -0.0594030
  C        2.5111010    -1.6091400     0.0469950
  C        3.4119830    -0.5506530    -0.2589250
  H       -0.9376060     0.5914040    -1.5148910
  H       -3.3625820     0.6426650    -1.1464650
  H       -0.4402900     1.2218800     1.4039980
  H       -3.2819570    -0.9087340     1.1307830
  H       -1.7133080    -1.7003050    -1.3694640
  H       -3.4855610    -1.8340040    -1.1841350
  H       -0.2975250     2.7131790    -0.5250000
  H       -2.8475560     2.3997430     0.5086630
  H        0.4343110    -1.9634370     0.5690680
  H       -2.4338740    -3.7984320    -0.5432330
  H        2.8291120    -2.6453980     0.0739220
  H        5.1251800    -1.6708610    -0.1624140
  H        5.3198140    -0.0200540    -0.5682940
units angstrom
no_reorient  #important for SAPT in psi4, default
symmetry c1  #important for SAPT in psi4, default
}

set PROPERTIES_ORIGIN ["COM"]
properties('MP2/aug-cc-pvtz', properties = ['dipole'])
--------------------------------------------------------------------------

    Molecular point group: c1
  Charge       = 0
  Multiplicity = 1
  Basis Set: AUG-CC-PVTZ
    Blend: AUG-CC-PVTZ
  Basis Set: (AUG-CC-PVTZ AUX)
    Blend: AUG-CC-PVTZ-JKFIT

    Orbital Energies [Eh]
    ---------------------

    Doubly Occupied:

       1A    -20.582470     2A    -20.581443     3A    -20.560064
       4A    -20.559757     5A    -20.528444     6A    -15.636459
       7A    -15.597277     8A    -15.552014     9A    -11.393187
      10A    -11.355042    11A    -11.342546    12A    -11.321957
      13A    -11.302420    14A    -11.300263    15A    -11.299402
      16A    -11.296250    17A    -11.240876    18A     -1.426443
      19A     -1.394196    20A     -1.381886    21A     -1.373043
      22A     -1.348675    23A     -1.307959    24A     -1.275087
      25A     -1.181187    26A     -1.078449    27A     -1.070953
      28A     -1.019098    29A     -0.936409    30A     -0.903089
      31A     -0.877595    32A     -0.833538    33A     -0.811843
      34A     -0.764132    35A     -0.754036    36A     -0.738008
      37A     -0.718479    38A     -0.703035    39A     -0.698841
      40A     -0.683423    41A     -0.671825    42A     -0.654419
      43A     -0.650537    44A     -0.636816    45A     -0.620125
      46A     -0.610511    47A     -0.604650    48A     -0.597974
      49A     -0.575673    50A     -0.568511    51A     -0.555875
      52A     -0.546113    53A     -0.537380    54A     -0.530618
      55A     -0.504926    56A     -0.480648    57A     -0.476618
      58A     -0.466121    59A     -0.461810    60A     -0.455292
      61A     -0.441204    62A     -0.430187    63A     -0.395094
      64A     -0.344165

  @DF-RHF Final Energy:  -886.36662304756533

   => Energetics <=

    Nuclear Repulsion Energy =           1323.3859759623360333
    One-Electron Energy =               -3844.4124705951512624
    Two-Electron Energy =                1634.6598715852499026
    Total Energy =                       -886.3666230475653265
  Basis Set: (AUG-CC-PVTZ AUX)
    Blend: AUG-CC-PVTZ-RI
    Molecular point group: c1

    Geometry (in Angstrom), charge = 0, multiplicity = 1:

       Center              X                  Y                   Z               Mass
    ------------   -----------------  -----------------  -----------------  -----------------
         O           -1.209710802460    -0.675525397200     1.024814268930    15.994914619570
         O           -1.246872302460     2.487431802800    -0.686416531070    15.994914619570
         O           -3.218427302460     1.525679802800     0.744633468930    15.994914619570
         O           -2.358926302460    -3.062256197200     0.094686468930    15.994914619570
         O            1.358632697540     2.251614802800    -0.076795531070    15.994914619570
         N            0.828424097540     0.001624902800     0.268597268930    14.003074004430
         N            3.055328697540     0.725083802800    -0.293980531070    14.003074004430
         N            4.714565697540    -0.832074197200    -0.572551531070    14.003074004430
         C           -1.291381302460     1.083010802800    -0.592330531070    12.000000000000
         C           -2.717068302460     0.659787802800    -0.257646531070    12.000000000000
         C           -0.527305302460     0.486100802800     0.599840468930    12.000000000000
         C           -2.531153302460    -0.712305197200     0.360802468930    12.000000000000
         C           -2.530241302460    -1.845812197200    -0.639543531070    12.000000000000
         C            1.217877697540    -1.256827197200     0.311020468930    12.000000000000
         C            1.753696697540     1.072015802800    -0.059656531070    12.000000000000
         C            2.509203697540    -1.604559197200     0.046741468930    12.000000000000
         C            3.410085697540    -0.546072197200    -0.259178531070    12.000000000000
         H           -0.939503302460     0.595984802800    -1.515144531070     1.007825032230
         H           -3.364479302460     0.647245802800    -1.146718531070     1.007825032230
         H           -0.442187302460     1.226460802800     1.403744468930     1.007825032230
         H           -3.283854302460    -0.904153197200     1.130529468930     1.007825032230
         H           -1.715205302460    -1.695724197200    -1.369717531070     1.007825032230
         H           -3.487458302460    -1.829423197200    -1.184388531070     1.007825032230
         H           -0.299422302460     2.717759802800    -0.525253531070     1.007825032230
         H           -2.849453302460     2.404323802800     0.508409468930     1.007825032230
         H            0.432413697540    -1.958856197200     0.568814468930     1.007825032230
         H           -2.435771302460    -3.793851197200    -0.543486531070     1.007825032230
         H            2.827214697540    -2.640817197200     0.073668468930     1.007825032230
         H            5.123282697540    -1.666280197200    -0.162667531070     1.007825032230
         H            5.317916697540    -0.015473197200    -0.568547531070     1.007825032230

  Basis Set: AUG-CC-PVTZ
    Blend: AUG-CC-PVTZ
  Basis Set: (AUG-CC-PVTZ AUX)
    Blend: AUG-CC-PVTZ-JKFIT
	 Reference Energy          =    -886.3666230475653265 [Eh]
	 Singles Energy            =      -0.0000000000000000 [Eh]
	 Same-Spin Energy          =      -0.9020347708030823 [Eh]
	 Opposite-Spin Energy      =      -2.7163718806068311 [Eh]
	 Correlation Energy        =      -3.6184066514099134 [Eh]
	 Total Energy              =    -889.9850296989752678 [Eh]

	 ================> DF-SCS-MP2 Energies <==================
	-----------------------------------------------------------
	 SCS Same-Spin Scale       =       0.3333333333333333 [-]
	 SCS Opposite-Spin Scale   =       1.2000000000000000 [-]
	 SCS Same-Spin Energy      =      -0.3006782569343607 [Eh]
	 SCS Opposite-Spin Energy  =      -3.2596462567281974 [Eh]
	 SCS Correlation Energy    =      -3.5603245136625583 [Eh]
	 SCS Total Energy          =    -889.9269475612278484 [Eh]
	-----------------------------------------------------------

  Dipole Moment: [D]
     X:     1.4146      Y:    -5.6611      Z:    -1.8392     Total:     6.1182

*** Psi4 exiting successfully. Buy a developer a beer!
