                               Psi4 1.3.2 release

  ==> Input File <==

--------------------------------------------------------------------------
#psi4
#
memory 32 gb

molecule  {
0 1
  O       -1.2481010    -0.6526680     1.0325150
  O       -1.2449750     2.4828510    -0.6861630
  O       -3.2165300     1.5210990     0.7448870
  O       -2.3570290    -3.0668370     0.0949400
  O        1.3605300     2.2470340    -0.0765420
  N        0.8434040     0.0452230     0.2559430
  N        3.0572260     0.7205030    -0.2937270
  N        4.7067747    -0.8831854    -0.5665035
  C       -1.2894840     1.0784300    -0.5920770
  C       -2.7151710     0.6552070    -0.2573930
  C       -0.5254080     0.4815200     0.6000940
  C       -2.5292560    -0.7168860     0.3610560
  C       -2.5283440    -1.8503930    -0.6392900
  C        1.2197750    -1.2614080     0.3112740
  C        1.7555940     1.0674350    -0.0594030
  C        2.5480880    -1.6415221     0.0398394
  C        3.4119830    -0.5506530    -0.2589250
  H       -0.9376060     0.5914040    -1.5148910
  H       -3.3625820     0.6426650    -1.1464650
  H       -0.4402900     1.2218800     1.4039980
  H       -3.2819570    -0.9087340     1.1307830
  H       -1.7133080    -1.7003050    -1.3694640
  H       -3.4855610    -1.8340040    -1.1841350
  H       -0.2975250     2.7131790    -0.5250000
  H       -2.8475560     2.3997430     0.5086630
  H        0.4343110    -1.9634370     0.5690680
  H       -2.4338740    -3.7984320    -0.5432330
  H        2.8291120    -2.6453980     0.0739220
  H        5.1251800    -1.6708610    -0.1624140
  H        5.3198140    -0.0200540    -0.5682940
units angstrom
no_reorient  #important for SAPT in psi4, default
symmetry c1  #important for SAPT in psi4, default
}

set PROPERTIES_ORIGIN ["COM"]
properties('MP2/aug-cc-pvtz', properties = ['dipole'])
--------------------------------------------------------------------------

    Molecular point group: c1
  Charge       = 0
  Multiplicity = 1
  Basis Set: AUG-CC-PVTZ
    Blend: AUG-CC-PVTZ
  Basis Set: (AUG-CC-PVTZ AUX)
    Blend: AUG-CC-PVTZ-JKFIT

    Orbital Energies [Eh]
    ---------------------

    Doubly Occupied:

       1A    -20.582689     2A    -20.582662     3A    -20.558570
       4A    -20.558262     5A    -20.523603     6A    -15.641053
       7A    -15.597199     8A    -15.554689     9A    -11.390197
      10A    -11.357074    11A    -11.343281    12A    -11.335455
      13A    -11.301741    14A    -11.297875    15A    -11.297698
      16A    -11.293849    17A    -11.247542    18A     -1.430552
      19A     -1.397565    20A     -1.380937    21A     -1.373455
      22A     -1.347195    23A     -1.305059    24A     -1.273673
      25A     -1.183611    26A     -1.075000    27A     -1.068589
      28A     -1.021896    29A     -0.936172    30A     -0.911291
      31A     -0.878314    32A     -0.833565    33A     -0.812021
      34A     -0.761845    35A     -0.754567    36A     -0.737582
      37A     -0.723490    38A     -0.703955    39A     -0.699479
      40A     -0.684288    41A     -0.673961    42A     -0.657922
      43A     -0.655575    44A     -0.640344    45A     -0.618714
      46A     -0.613989    47A     -0.601754    48A     -0.593727
      49A     -0.575216    50A     -0.569585    51A     -0.554172
      52A     -0.546487    53A     -0.538570    54A     -0.532338
      55A     -0.497265    56A     -0.478082    57A     -0.475087
      58A     -0.463306    59A     -0.461517    60A     -0.453767
      61A     -0.440544    62A     -0.434438    63A     -0.396293
      64A     -0.345828

  @DF-RHF Final Energy:  -886.36485729688150

   => Energetics <=

    Nuclear Repulsion Energy =           1322.6177852100697692
    One-Electron Energy =               -3842.8132370213470494
    Two-Electron Energy =                1633.8305945143956706
    Total Energy =                       -886.3648572968813824
  Basis Set: (AUG-CC-PVTZ AUX)
    Blend: AUG-CC-PVTZ-RI
    Molecular point group: c1

    Geometry (in Angstrom), charge = 0, multiplicity = 1:

       Center              X                  Y                   Z               Mass
    ------------   -----------------  -----------------  -----------------  -----------------
         O           -1.249368810057    -0.648389027328     1.032534450793    15.994914619570
         O           -1.246242810057     2.487129972672    -0.686143549207    15.994914619570
         O           -3.217797810057     1.525377972672     0.744906450793    15.994914619570
         O           -2.358296810057    -3.062558027328     0.094959450793    15.994914619570
         O            1.359262189943     2.251312972672    -0.076522549207    15.994914619570
         N            0.842136189943     0.049501972672     0.255962450793    14.003074004430
         N            3.055958189943     0.724781972672    -0.293707549207    14.003074004430
         N            4.705506889943    -0.878906427328    -0.566484049207    14.003074004430
         C           -1.290751810057     1.082708972672    -0.592057549207    12.000000000000
         C           -2.716438810057     0.659485972672    -0.257373549207    12.000000000000
         C           -0.526675810057     0.485798972672     0.600113450793    12.000000000000
         C           -2.530523810057    -0.712607027328     0.361075450793    12.000000000000
         C           -2.529611810057    -1.846114027328    -0.639270549207    12.000000000000
         C            1.218507189943    -1.257129027328     0.311293450793    12.000000000000
         C            1.754326189943     1.071713972672    -0.059383549207    12.000000000000
         C            2.546820189943    -1.637243127328     0.039858850793    12.000000000000
         C            3.410715189943    -0.546374027328    -0.258905549207    12.000000000000
         H           -0.938873810057     0.595682972672    -1.514871549207     1.007825032230
         H           -3.363849810057     0.646943972672    -1.146445549207     1.007825032230
         H           -0.441557810057     1.226158972672     1.404017450793     1.007825032230
         H           -3.283224810057    -0.904455027328     1.130802450793     1.007825032230
         H           -1.714575810057    -1.696026027328    -1.369444549207     1.007825032230
         H           -3.486828810057    -1.829725027328    -1.184115549207     1.007825032230
         H           -0.298792810057     2.717457972672    -0.524980549207     1.007825032230
         H           -2.848823810057     2.404021972672     0.508682450793     1.007825032230
         H            0.433043189943    -1.959158027328     0.569087450793     1.007825032230
         H           -2.435141810057    -3.794153027328    -0.543213549207     1.007825032230
         H            2.827844189943    -2.641119027328     0.073941450793     1.007825032230
         H            5.123912189943    -1.666582027328    -0.162394549207     1.007825032230
         H            5.318546189943    -0.015775027328    -0.568274549207     1.007825032230

  Basis Set: AUG-CC-PVTZ
    Blend: AUG-CC-PVTZ
  Basis Set: (AUG-CC-PVTZ AUX)
    Blend: AUG-CC-PVTZ-JKFIT
	 Reference Energy          =    -886.3648572968814960 [Eh]
	 Singles Energy            =      -0.0000000000000000 [Eh]
	 Same-Spin Energy          =      -0.9016494761299735 [Eh]
	 Opposite-Spin Energy      =      -2.7158581037241727 [Eh]
	 Correlation Energy        =      -3.6175075798541463 [Eh]
	 Total Energy              =    -889.9823648767356872 [Eh]

	 ================> DF-SCS-MP2 Energies <==================
	-----------------------------------------------------------
	 SCS Same-Spin Scale       =       0.3333333333333333 [-]
	 SCS Opposite-Spin Scale   =       1.2000000000000000 [-]
	 SCS Same-Spin Energy      =      -0.3005498253766578 [Eh]
	 SCS Opposite-Spin Energy  =      -3.2590297244690070 [Eh]
	 SCS Correlation Energy    =      -3.5595795498456648 [Eh]
	 SCS Total Energy          =    -889.9244368467271897 [Eh]
	-----------------------------------------------------------

  Dipole Moment: [D]
     X:     1.5941      Y:    -5.8664      Z:    -1.8034     Total:     6.3410

*** Psi4 exiting successfully. Buy a developer a beer!
