                               Psi4 1.3.2 release

  ==> Input File <==

--------------------------------------------------------------------------
#psi4
#
memory 32 gb

molecule  {
0 1
  O       -1.2481010    -0.6526680     1.0325150
  O       -1.2449750     2.4828510    -0.6861630
  O       -3.2165300     1.5210990     0.7448870
  O       -2.3570290    -3.0668370     0.0949400
  O        1.3605300     2.2470340    -0.0765420
  N        0.8434040     0.0452230     0.2559430
  N        3.0572260     0.7205030    -0.2937270
  N        4.7164630    -0.8366550    -0.5722980
  C       -1.2894840     1.0784300    -0.5920770
  C       -2.7151710     0.6552070    -0.2573930
  C       -0.5286226     0.4692849     0.6025779
  C       -2.5292560    -0.7168860     0.3610560
  C       -2.5283440    -1.8503930    -0.6392900
  C        1.2088360    -1.2643541     0.3148372
  C        1.7555940     1.0674350    -0.0594030
  C        2.5111010    -1.6091400     0.0469950
  C        3.4119830    -0.5506530    -0.2589250
  H       -0.9376060     0.5914040    -1.5148910
  H       -3.3625820     0.6426650    -1.1464650
  H       -0.4402900     1.2218800     1.4039980
  H       -3.2819570    -0.9087340     1.1307830
  H       -1.7133080    -1.7003050    -1.3694640
  H       -3.4855610    -1.8340040    -1.1841350
  H       -0.2975250     2.7131790    -0.5250000
  H       -2.8475560     2.3997430     0.5086630
  H        0.4343110    -1.9634370     0.5690680
  H       -2.4338740    -3.7984320    -0.5432330
  H        2.8291120    -2.6453980     0.0739220
  H        5.1251800    -1.6708610    -0.1624140
  H        5.3198140    -0.0200540    -0.5682940
units angstrom
no_reorient  #important for SAPT in psi4, default
symmetry c1  #important for SAPT in psi4, default
}

set PROPERTIES_ORIGIN ["COM"]
properties('MP2/aug-cc-pvtz', properties = ['dipole'])
--------------------------------------------------------------------------

    Molecular point group: c1
  Charge       = 0
  Multiplicity = 1
  Basis Set: AUG-CC-PVTZ
    Blend: AUG-CC-PVTZ
  Basis Set: (AUG-CC-PVTZ AUX)
    Blend: AUG-CC-PVTZ-JKFIT

    Orbital Energies [Eh]
    ---------------------

    Doubly Occupied:

       1A    -20.582996     2A    -20.582814     3A    -20.557872
       4A    -20.557358     5A    -20.521854     6A    -15.637372
       7A    -15.599383     8A    -15.553219     9A    -11.388536
      10A    -11.357430    11A    -11.341435    12A    -11.329497
      13A    -11.301843    14A    -11.297919    15A    -11.296605
      16A    -11.293073    17A    -11.249167    18A     -1.432529
      19A     -1.396816    20A     -1.380439    21A     -1.373916
      22A     -1.346300    23A     -1.305704    24A     -1.273962
      25A     -1.182025    26A     -1.079646    27A     -1.068861
      28A     -1.020626    29A     -0.935291    30A     -0.911210
      31A     -0.877007    32A     -0.831689    33A     -0.812773
      34A     -0.766634    35A     -0.752946    36A     -0.735954
      37A     -0.720716    38A     -0.703382    39A     -0.699009
      40A     -0.686899    41A     -0.673521    42A     -0.654949
      43A     -0.651395    44A     -0.638303    45A     -0.621438
      46A     -0.615562    47A     -0.607323    48A     -0.592881
      49A     -0.576709    50A     -0.570163    51A     -0.554328
      52A     -0.545921    53A     -0.537661    54A     -0.531623
      55A     -0.497711    56A     -0.477955    57A     -0.474709
      58A     -0.462784    59A     -0.459938    60A     -0.452993
      61A     -0.439717    62A     -0.433179    63A     -0.394714
      64A     -0.348293

  @DF-RHF Final Energy:  -886.37292711773944

   => Energetics <=

    Nuclear Repulsion Energy =           1323.7290131420427315
    One-Electron Energy =               -3845.0909322712368521
    Two-Electron Energy =                1634.9889920114546840
    Total Energy =                       -886.3729271177394367
  Basis Set: (AUG-CC-PVTZ AUX)
    Blend: AUG-CC-PVTZ-RI
    Molecular point group: c1

    Geometry (in Angstrom), charge = 0, multiplicity = 1:

       Center              X                  Y                   Z               Mass
    ------------   -----------------  -----------------  -----------------  -----------------
         O           -1.247402336623    -0.651918564722     1.032216490318    15.994914619570
         O           -1.244276336623     2.483600435278    -0.686461509682    15.994914619570
         O           -3.215831336623     1.521848435278     0.744588490318    15.994914619570
         O           -2.356330336623    -3.066087564722     0.094641490318    15.994914619570
         O            1.361228663377     2.247783435278    -0.076840509682    15.994914619570
         N            0.844102663377     0.045972435278     0.255644490318    14.003074004430
         N            3.057924663377     0.721252435278    -0.294025509682    14.003074004430
         N            4.717161663377    -0.835905564722    -0.572596509682    14.003074004430
         C           -1.288785336623     1.079179435278    -0.592375509682    12.000000000000
         C           -2.714472336623     0.655956435278    -0.257691509682    12.000000000000
         C           -0.527923936623     0.470034335278     0.602279390318    12.000000000000
         C           -2.528557336623    -0.716136564722     0.360757490318    12.000000000000
         C           -2.527645336623    -1.849643564722    -0.639588509682    12.000000000000
         C            1.209534663377    -1.263604664722     0.314538690318    12.000000000000
         C            1.756292663377     1.068184435278    -0.059701509682    12.000000000000
         C            2.511799663377    -1.608390564722     0.046696490318    12.000000000000
         C            3.412681663377    -0.549903564722    -0.259223509682    12.000000000000
         H           -0.936907336623     0.592153435278    -1.515189509682     1.007825032230
         H           -3.361883336623     0.643414435278    -1.146763509682     1.007825032230
         H           -0.439591336623     1.222629435278     1.403699490318     1.007825032230
         H           -3.281258336623    -0.907984564722     1.130484490318     1.007825032230
         H           -1.712609336623    -1.699555564722    -1.369762509682     1.007825032230
         H           -3.484862336623    -1.833254564722    -1.184433509682     1.007825032230
         H           -0.296826336623     2.713928435278    -0.525298509682     1.007825032230
         H           -2.846857336623     2.400492435278     0.508364490318     1.007825032230
         H            0.435009663377    -1.962687564722     0.568769490318     1.007825032230
         H           -2.433175336623    -3.797682564722    -0.543531509682     1.007825032230
         H            2.829810663377    -2.644648564722     0.073623490318     1.007825032230
         H            5.125878663377    -1.670111564722    -0.162712509682     1.007825032230
         H            5.320512663377    -0.019304564722    -0.568592509682     1.007825032230

  Basis Set: AUG-CC-PVTZ
    Blend: AUG-CC-PVTZ
  Basis Set: (AUG-CC-PVTZ AUX)
    Blend: AUG-CC-PVTZ-JKFIT
	 Reference Energy          =    -886.3729271177394367 [Eh]
	 Singles Energy            =      -0.0000000000000000 [Eh]
	 Same-Spin Energy          =      -0.9013799920105494 [Eh]
	 Opposite-Spin Energy      =      -2.7150220427838176 [Eh]
	 Correlation Energy        =      -3.6164020347943673 [Eh]
	 Total Energy              =    -889.9893291525338554 [Eh]

	 ================> DF-SCS-MP2 Energies <==================
	-----------------------------------------------------------
	 SCS Same-Spin Scale       =       0.3333333333333333 [-]
	 SCS Opposite-Spin Scale   =       1.2000000000000000 [-]
	 SCS Same-Spin Energy      =      -0.3004599973368498 [Eh]
	 SCS Opposite-Spin Energy  =      -3.2580264513405810 [Eh]
	 SCS Correlation Energy    =      -3.5584864486774306 [Eh]
	 SCS Total Energy          =    -889.9314135664168361 [Eh]
	-----------------------------------------------------------

  Dipole Moment: [D]
     X:     1.6505      Y:    -5.9777      Z:    -1.8158     Total:     6.4617

*** Psi4 exiting successfully. Buy a developer a beer!
