                               Psi4 1.3.2 release

  ==> Input File <==

--------------------------------------------------------------------------
#psi4
#
memory 32 gb

molecule  {
0 1
  O       -1.2481010    -0.6526680     1.0325150
  O       -1.2449750     2.4828510    -0.6861630
  O       -3.2165300     1.5210990     0.7448870
  O       -2.3570290    -3.0668370     0.0949400
  O        1.3605300     2.2470340    -0.0765420
  N        0.8434040     0.0452230     0.2559430
  N        3.0572260     0.7205030    -0.2937270
  N        4.7164630    -0.8366550    -0.5722980
  C       -1.2894840     1.0784300    -0.5920770
  C       -2.7151710     0.6552070    -0.2573930
  C       -0.5254080     0.4815200     0.6000940
  C       -2.5292560    -0.7168860     0.3610560
  C       -2.5283440    -1.8503930    -0.6392900
  C        1.2197750    -1.2614080     0.3112740
  C        1.7555940     1.0674350    -0.0594030
  C        2.5111010    -1.6091400     0.0469950
  C        3.4119830    -0.5506530    -0.2589250
  H       -0.9376060     0.5914040    -1.5148910
  H       -3.3625820     0.6426650    -1.1464650
  H       -0.4402900     1.2218800     1.4039980
  H       -3.2819570    -0.9087340     1.1307830
  H       -1.7133080    -1.7003050    -1.3694640
  H       -3.4855610    -1.8340040    -1.1841350
  H       -0.2975250     2.7131790    -0.5250000
  H       -2.7723943     2.5787268     0.4605431
  H        0.4343110    -1.9634370     0.5690680
  H       -2.4338740    -3.7984320    -0.5432330
  H        2.8291120    -2.6453980     0.0739220
  H        5.1251800    -1.6708610    -0.1624140
  H        5.3198140    -0.0200540    -0.5682940
units angstrom
no_reorient  #important for SAPT in psi4, default
symmetry c1  #important for SAPT in psi4, default
}

set PROPERTIES_ORIGIN ["COM"]
properties('MP2/aug-cc-pvtz', properties = ['dipole'])
--------------------------------------------------------------------------

    Molecular point group: c1
  Charge       = 0
  Multiplicity = 1
  Basis Set: AUG-CC-PVTZ
    Blend: AUG-CC-PVTZ
  Basis Set: (AUG-CC-PVTZ AUX)
    Blend: AUG-CC-PVTZ-JKFIT

    Orbital Energies [Eh]
    ---------------------

    Doubly Occupied:

       1A    -20.581330     2A    -20.580545     3A    -20.562527
       4A    -20.561919     5A    -20.522642     6A    -15.636939
       7A    -15.599965     8A    -15.553566     9A    -11.388651
      10A    -11.357993    11A    -11.341186    12A    -11.328470
      13A    -11.300073    14A    -11.296446    15A    -11.295175
      16A    -11.289389    17A    -11.248559    18A     -1.427695
      19A     -1.396049    20A     -1.376199    21A     -1.371606
      22A     -1.320785    23A     -1.306229    24A     -1.273657
      25A     -1.182389    26A     -1.081939    27A     -1.061471
      28A     -1.020505    29A     -0.932651    30A     -0.909129
      31A     -0.874967    32A     -0.829186    33A     -0.807782
      34A     -0.766743    35A     -0.752097    36A     -0.736566
      37A     -0.719717    38A     -0.700864    39A     -0.689942
      40A     -0.685528    41A     -0.658297    42A     -0.654042
      43A     -0.646429    44A     -0.637405    45A     -0.620612
      46A     -0.613046    47A     -0.602914    48A     -0.594347
      49A     -0.572556    50A     -0.566520    51A     -0.551928
      52A     -0.542592    53A     -0.533364    54A     -0.524958
      55A     -0.495011    56A     -0.476383    57A     -0.470229
      58A     -0.462069    59A     -0.456482    60A     -0.450289
      61A     -0.437355    62A     -0.433098    63A     -0.395254
      64A     -0.350168

  @DF-RHF Final Energy:  -886.33840310715891

   => Energetics <=

    Nuclear Repulsion Energy =           1322.7548330930419525
    One-Electron Energy =               -3843.3576350620587618
    Two-Electron Energy =                1634.2643988618576714
    Total Energy =                       -886.3384031071589106
  Basis Set: (AUG-CC-PVTZ AUX)
    Blend: AUG-CC-PVTZ-RI
    Molecular point group: c1

    Geometry (in Angstrom), charge = 0, multiplicity = 1:

       Center              X                  Y                   Z               Mass
    ------------   -----------------  -----------------  -----------------  -----------------
         O           -1.248412652014    -0.653410051147     1.032714511094    15.994914619570
         O           -1.245286652014     2.482108948853    -0.685963488906    15.994914619570
         O           -3.216841652014     1.520356948853     0.745086511094    15.994914619570
         O           -2.357340652014    -3.067579051147     0.095139511094    15.994914619570
         O            1.360218347986     2.246291948853    -0.076342488906    15.994914619570
         N            0.843092347986     0.044480948853     0.256142511094    14.003074004430
         N            3.056914347986     0.719760948853    -0.293527488906    14.003074004430
         N            4.716151347986    -0.837397051147    -0.572098488906    14.003074004430
         C           -1.289795652014     1.077687948853    -0.591877488906    12.000000000000
         C           -2.715482652014     0.654464948853    -0.257193488906    12.000000000000
         C           -0.525719652014     0.480777948853     0.600293511094    12.000000000000
         C           -2.529567652014    -0.717628051147     0.361255511094    12.000000000000
         C           -2.528655652014    -1.851135051147    -0.639090488906    12.000000000000
         C            1.219463347986    -1.262150051147     0.311473511094    12.000000000000
         C            1.755282347986     1.066692948853    -0.059203488906    12.000000000000
         C            2.510789347986    -1.609882051147     0.047194511094    12.000000000000
         C            3.411671347986    -0.551395051147    -0.258725488906    12.000000000000
         H           -0.937917652014     0.590661948853    -1.514691488906     1.007825032230
         H           -3.362893652014     0.641922948853    -1.146265488906     1.007825032230
         H           -0.440601652014     1.221137948853     1.404197511094     1.007825032230
         H           -3.282268652014    -0.909476051147     1.130982511094     1.007825032230
         H           -1.713619652014    -1.701047051147    -1.369264488906     1.007825032230
         H           -3.485872652014    -1.834746051147    -1.183935488906     1.007825032230
         H           -0.297836652014     2.712436948853    -0.524800488906     1.007825032230
         H           -2.772705952014     2.577984748853     0.460742611094     1.007825032230
         H            0.433999347986    -1.964179051147     0.569267511094     1.007825032230
         H           -2.434185652014    -3.799174051147    -0.543033488906     1.007825032230
         H            2.828800347986    -2.646140051147     0.074121511094     1.007825032230
         H            5.124868347986    -1.671603051147    -0.162214488906     1.007825032230
         H            5.319502347986    -0.020796051147    -0.568094488906     1.007825032230

  Basis Set: AUG-CC-PVTZ
    Blend: AUG-CC-PVTZ
  Basis Set: (AUG-CC-PVTZ AUX)
    Blend: AUG-CC-PVTZ-JKFIT
	 Reference Energy          =    -886.3384031071589106 [Eh]
	 Singles Energy            =      -0.0000000000000000 [Eh]
	 Same-Spin Energy          =      -0.9043395338700875 [Eh]
	 Opposite-Spin Energy      =      -2.7219344740105438 [Eh]
	 Correlation Energy        =      -3.6262740078806313 [Eh]
	 Total Energy              =    -889.9646771150395352 [Eh]

	 ================> DF-SCS-MP2 Energies <==================
	-----------------------------------------------------------
	 SCS Same-Spin Scale       =       0.3333333333333333 [-]
	 SCS Opposite-Spin Scale   =       1.2000000000000000 [-]
	 SCS Same-Spin Energy      =      -0.3014465112900291 [Eh]
	 SCS Opposite-Spin Energy  =      -3.2663213688126524 [Eh]
	 SCS Correlation Energy    =      -3.5677678801026818 [Eh]
	 SCS Total Energy          =    -889.9061709872615893 [Eh]
	-----------------------------------------------------------

  Dipole Moment: [D]
     X:     1.8953      Y:    -5.7340      Z:    -1.9057     Total:     6.3327

*** Psi4 exiting successfully. Buy a developer a beer!
