                               Psi4 1.3.2 release

  ==> Input File <==

--------------------------------------------------------------------------
#psi4
#
memory 32 gb

molecule  {
0 1
  O       -1.2387796    -0.6818595     0.9652029
  O       -1.2449750     2.4828510    -0.6861630
  O       -3.2165300     1.5210990     0.7448870
  O       -2.3570290    -3.0668370     0.0949400
  O        1.3605300     2.2470340    -0.0765420
  N        0.8434040     0.0452230     0.2559430
  N        3.0572260     0.7205030    -0.2937270
  N        4.7164630    -0.8366550    -0.5722980
  C       -1.2894840     1.0784300    -0.5920770
  C       -2.7151710     0.6552070    -0.2573930
  C       -0.5254080     0.4815200     0.6000940
  C       -2.5292560    -0.7168860     0.3610560
  C       -2.5283440    -1.8503930    -0.6392900
  C        1.2197750    -1.2614080     0.3112740
  C        1.7555940     1.0674350    -0.0594030
  C        2.5111010    -1.6091400     0.0469950
  C        3.4119830    -0.5506530    -0.2589250
  H       -0.9376060     0.5914040    -1.5148910
  H       -3.3625820     0.6426650    -1.1464650
  H       -0.4106858     1.2553532     1.3679876
  H       -3.2819570    -0.9087340     1.1307830
  H       -1.7133080    -1.7003050    -1.3694640
  H       -3.4855610    -1.8340040    -1.1841350
  H       -0.2975250     2.7131790    -0.5250000
  H       -2.8475560     2.3997430     0.5086630
  H        0.4343110    -1.9634370     0.5690680
  H       -2.4338740    -3.7984320    -0.5432330
  H        2.8291120    -2.6453980     0.0739220
  H        5.1251800    -1.6708610    -0.1624140
  H        5.3198140    -0.0200540    -0.5682940
units angstrom
no_reorient  #important for SAPT in psi4, default
symmetry c1  #important for SAPT in psi4, default
}

set PROPERTIES_ORIGIN ["COM"]
properties('MP2/aug-cc-pvtz', properties = ['dipole'])
--------------------------------------------------------------------------

    Molecular point group: c1
  Charge       = 0
  Multiplicity = 1
  Basis Set: AUG-CC-PVTZ
    Blend: AUG-CC-PVTZ
  Basis Set: (AUG-CC-PVTZ AUX)
    Blend: AUG-CC-PVTZ-JKFIT

    Orbital Energies [Eh]
    ---------------------

    Doubly Occupied:

       1A    -20.583090     2A    -20.581221     3A    -20.558017
       4A    -20.557060     5A    -20.522433     6A    -15.636702
       7A    -15.599705     8A    -15.553259     9A    -11.388325
      10A    -11.357665    11A    -11.343843    12A    -11.327824
      13A    -11.298832    14A    -11.295583    15A    -11.295488
      16A    -11.292373    17A    -11.248165    18A     -1.435300
      19A     -1.397855    20A     -1.380567    21A     -1.372488
      22A     -1.346480    23A     -1.306232    24A     -1.274149
      25A     -1.182362    26A     -1.082523    27A     -1.065880
      28A     -1.023285    29A     -0.935149    30A     -0.909784
      31A     -0.877047    32A     -0.833806    33A     -0.812527
      34A     -0.766188    35A     -0.753093    36A     -0.737150
      37A     -0.720160    38A     -0.702556    39A     -0.698650
      40A     -0.687372    41A     -0.672114    42A     -0.658028
      43A     -0.650961    44A     -0.639400    45A     -0.620248
      46A     -0.614559    47A     -0.607464    48A     -0.593455
      49A     -0.575758    50A     -0.574727    51A     -0.553568
      52A     -0.544143    53A     -0.538681    54A     -0.531963
      55A     -0.498040    56A     -0.476696    57A     -0.473277
      58A     -0.462468    59A     -0.460091    60A     -0.452666
      61A     -0.439837    62A     -0.432755    63A     -0.394998
      64A     -0.349850

  @DF-RHF Final Energy:  -886.37184370059026

   => Energetics <=

    Nuclear Repulsion Energy =           1325.0862655596290551
    One-Electron Energy =               -3847.8043552475655815
    Two-Electron Energy =                1636.3462459873460375
    Total Energy =                       -886.3718437005902615
  Basis Set: (AUG-CC-PVTZ AUX)
    Blend: AUG-CC-PVTZ-RI
    Molecular point group: c1

    Geometry (in Angstrom), charge = 0, multiplicity = 1:

       Center              X                  Y                   Z               Mass
    ------------   -----------------  -----------------  -----------------  -----------------
         O           -1.239515715833    -0.680077481536     0.969781310474    15.994914619570
         O           -1.245711115833     2.484633018464    -0.681584589526    15.994914619570
         O           -3.217266115833     1.522881018464     0.749465410474    15.994914619570
         O           -2.357765115833    -3.065054981536     0.099518410474    15.994914619570
         O            1.359793884167     2.248816018464    -0.071963589526    15.994914619570
         N            0.842667884167     0.047005018464     0.260521410474    14.003074004430
         N            3.056489884167     0.722285018464    -0.289148589526    14.003074004430
         N            4.715726884167    -0.834872981536    -0.567719589526    14.003074004430
         C           -1.290220115833     1.080212018464    -0.587498589526    12.000000000000
         C           -2.715907115833     0.656989018464    -0.252814589526    12.000000000000
         C           -0.526144115833     0.483302018464     0.604672410474    12.000000000000
         C           -2.529992115833    -0.715103981536     0.365634410474    12.000000000000
         C           -2.529080115833    -1.848610981536    -0.634711589526    12.000000000000
         C            1.219038884167    -1.259625981536     0.315852410474    12.000000000000
         C            1.754857884167     1.069217018464    -0.054824589526    12.000000000000
         C            2.510364884167    -1.607357981536     0.051573410474    12.000000000000
         C            3.411246884167    -0.548870981536    -0.254346589526    12.000000000000
         H           -0.938342115833     0.593186018464    -1.510312589526     1.007825032230
         H           -3.363318115833     0.644447018464    -1.141886589526     1.007825032230
         H           -0.411421915833     1.257135218464     1.372566010474     1.007825032230
         H           -3.282693115833    -0.906951981536     1.135361410474     1.007825032230
         H           -1.714044115833    -1.698522981536    -1.364885589526     1.007825032230
         H           -3.486297115833    -1.832221981536    -1.179556589526     1.007825032230
         H           -0.298261115833     2.714961018464    -0.520421589526     1.007825032230
         H           -2.848292115833     2.401525018464     0.513241410474     1.007825032230
         H            0.433574884167    -1.961654981536     0.573646410474     1.007825032230
         H           -2.434610115833    -3.796649981536    -0.538654589526     1.007825032230
         H            2.828375884167    -2.643615981536     0.078500410474     1.007825032230
         H            5.124443884167    -1.669078981536    -0.157835589526     1.007825032230
         H            5.319077884167    -0.018271981536    -0.563715589526     1.007825032230

  Basis Set: AUG-CC-PVTZ
    Blend: AUG-CC-PVTZ
  Basis Set: (AUG-CC-PVTZ AUX)
    Blend: AUG-CC-PVTZ-JKFIT
	 Reference Energy          =    -886.3718437005902615 [Eh]
	 Singles Energy            =      -0.0000000000000000 [Eh]
	 Same-Spin Energy          =      -0.9014241207312925 [Eh]
	 Opposite-Spin Energy      =      -2.7146702449955606 [Eh]
	 Correlation Energy        =      -3.6160943657268532 [Eh]
	 Total Energy              =    -889.9879380663171560 [Eh]

	 ================> DF-SCS-MP2 Energies <==================
	-----------------------------------------------------------
	 SCS Same-Spin Scale       =       0.3333333333333333 [-]
	 SCS Opposite-Spin Scale   =       1.2000000000000000 [-]
	 SCS Same-Spin Energy      =      -0.3004747069104308 [Eh]
	 SCS Opposite-Spin Energy  =      -3.2576042939946728 [Eh]
	 SCS Correlation Energy    =      -3.5580790009051038 [Eh]
	 SCS Total Energy          =    -889.9299227014953431 [Eh]
	-----------------------------------------------------------

  Dipole Moment: [D]
     X:     1.7315      Y:    -5.8910      Z:    -1.7089     Total:     6.3736

*** Psi4 exiting successfully. Buy a developer a beer!
