                               Psi4 1.4a3.dev225

  ==> Input File <==

--------------------------------------------------------------------------
#psi4
#
memory 32 gb

molecule  {
0 1
  O       -1.3191770     0.6538360    -1.0992360
  O       -1.5735610    -2.4640850     0.5135810
  O       -3.5606630    -1.0699430    -0.4600060
  O       -1.4399290     3.1254620     0.1265180
  O        1.1065530    -2.3833650     0.0076020
  N        0.7686360    -0.1579440    -0.3706350
  N        2.9363770    -0.9938720     0.1460080
  N        4.7058880     0.4431110     0.3611260
  C       -1.3768610    -1.0680440     0.5552780
  C       -2.7379840    -0.3746360     0.4578480
  C       -0.6377490    -0.5042940    -0.6790150
  C       -2.3707440     0.9655450    -0.1585060
  C       -1.8992030     1.9895750     0.8571380
  C        1.2309690     1.1190800    -0.4442230
  C        1.6104480    -1.2470590    -0.0585760
  C        2.5474650     1.3753690    -0.1998620
  C        3.3802090     0.2523040     0.0808410
  H       -0.8199197    -0.7550874     1.5114220
  H       -3.2257400    -0.2778790     1.4400230
  H       -0.6227070    -1.2428120    -1.4883720
  H       -3.1941750     1.3785730    -0.7472070
  H       -1.0952130     1.5703990     1.4802000
  H       -2.7410530     2.2466610     1.5166010
  H       -0.6710550    -2.8260740     0.3542250
  H       -3.3063470    -2.0105220    -0.3629290
  H        0.4929290     1.8778260    -0.6840360
  H       -1.2098800     3.8154810     0.7720340
  H        2.9334840     2.3875570    -0.2389120
  H        5.1589650     1.2712730    -0.0008400
  H        5.2635310    -0.4031270     0.3606700
units angstrom
no_reorient  #important for SAPT in psi4, default
symmetry c1  #important for SAPT in psi4, default
}

set PROPERTIES_ORIGIN ["COM"]
properties('MP2/aug-cc-pvtz', properties = ['dipole'])
--------------------------------------------------------------------------

    Molecular point group: c1
  Charge       = 0
  Multiplicity = 1
  Basis Set: AUG-CC-PVTZ
    Blend: AUG-CC-PVTZ
  Basis Set: (AUG-CC-PVTZ AUX)
    Blend: AUG-CC-PVTZ-JKFIT

    Orbital Energies [Eh]
    ---------------------

    Doubly Occupied:

       1A    -20.586538     2A    -20.581655     3A    -20.560476
       4A    -20.556865     5A    -20.519622     6A    -15.632859
       7A    -15.599577     8A    -15.551653     9A    -11.385858
      10A    -11.357960    11A    -11.340209    12A    -11.325023
      13A    -11.303265    14A    -11.302870    15A    -11.298029
      16A    -11.293946    17A    -11.246443    18A     -1.429398
      19A     -1.394016    20A     -1.383109    21A     -1.375838
      22A     -1.347054    23A     -1.303555    24A     -1.271232
      25A     -1.181096    26A     -1.079174    27A     -1.067573
      28A     -1.016236    29A     -0.936483    30A     -0.906491
      31A     -0.876468    32A     -0.827989    33A     -0.811953
      34A     -0.766284    35A     -0.750232    36A     -0.734190
      37A     -0.721108    38A     -0.707592    39A     -0.701892
      40A     -0.684697    41A     -0.674441    42A     -0.653148
      43A     -0.649077    44A     -0.632314    45A     -0.620338
      46A     -0.614749    47A     -0.607453    48A     -0.593036
      49A     -0.577017    50A     -0.565103    51A     -0.555974
      52A     -0.547749    53A     -0.536748    54A     -0.531060
      55A     -0.495640    56A     -0.480570    57A     -0.473011
      58A     -0.463318    59A     -0.457948    60A     -0.451837
      61A     -0.441656    62A     -0.430176    63A     -0.392212
      64A     -0.348157

  @DF-RHF Final Energy:  -886.37173382724120

   => Energetics <=

    Nuclear Repulsion Energy =           1334.2991003256677232
    One-Electron Energy =               -3866.3231912363480660
    Two-Electron Energy =                1645.6523570834394832
    Total Energy =                       -886.3717338272410871
  Basis Set: (AUG-CC-PVTZ AUX)
    Blend: AUG-CC-PVTZ-RI
    Molecular point group: c1

    Geometry (in Angstrom), charge = 0, multiplicity = 1:

       Center              X                  Y                   Z               Mass
    ------------   -----------------  -----------------  -----------------  -----------------
         O           -1.332021054826     0.682391050059    -1.083628153609    15.994914619570
         O           -1.586405054826    -2.435529949941     0.529188846391    15.994914619570
         O           -3.573507054826    -1.041387949941    -0.444398153609    15.994914619570
         O           -1.452773054826     3.154017050059     0.142125846391    15.994914619570
         O            1.093708945174    -2.354809949941     0.023209846391    15.994914619570
         N            0.755791945174    -0.129388949941    -0.355027153609    14.003074004430
         N            2.923532945174    -0.965316949941     0.161615846391    14.003074004430
         N            4.693043945174     0.471666050059     0.376733846391    14.003074004430
         C           -1.389705054826    -1.039488949941     0.570885846391    12.000000000000
         C           -2.750828054826    -0.346080949941     0.473455846391    12.000000000000
         C           -0.650593054826    -0.475738949941    -0.663407153609    12.000000000000
         C           -2.383588054826     0.994100050059    -0.142898153609    12.000000000000
         C           -1.912047054826     2.018130050059     0.872745846391    12.000000000000
         C            1.218124945174     1.147635050059    -0.428615153609    12.000000000000
         C            1.597603945174    -1.218503949941    -0.042968153609    12.000000000000
         C            2.534620945174     1.403924050059    -0.184254153609    12.000000000000
         C            3.367364945174     0.280859050059     0.096448846391    12.000000000000
         H           -0.832763754826    -0.726532349941     1.527029846391     1.007825032230
         H           -3.238584054826    -0.249323949941     1.455630846391     1.007825032230
         H           -0.635551054826    -1.214256949941    -1.472764153609     1.007825032230
         H           -3.207019054826     1.407128050059    -0.731599153609     1.007825032230
         H           -1.108057054826     1.598954050059     1.495807846391     1.007825032230
         H           -2.753897054826     2.275216050059     1.532208846391     1.007825032230
         H           -0.683899054826    -2.797518949941     0.369832846391     1.007825032230
         H           -3.319191054826    -1.981966949941    -0.347321153609     1.007825032230
         H            0.480084945174     1.906381050059    -0.668428153609     1.007825032230
         H           -1.222724054826     3.844036050059     0.787641846391     1.007825032230
         H            2.920639945174     2.416112050059    -0.223304153609     1.007825032230
         H            5.146120945174     1.299828050059     0.014767846391     1.007825032230
         H            5.250686945174    -0.374571949941     0.376277846391     1.007825032230

  Basis Set: AUG-CC-PVTZ
    Blend: AUG-CC-PVTZ
  Basis Set: (AUG-CC-PVTZ AUX)
    Blend: AUG-CC-PVTZ-JKFIT
	 Reference Energy          =    -886.3717338272412007 [Eh]
	 Singles Energy            =      -0.0000000000000000 [Eh]
	 Same-Spin Energy          =      -0.9019755944098053 [Eh]
	 Opposite-Spin Energy      =      -2.7164452691989140 [Eh]
	 Correlation Energy        =      -3.6184208636087192 [Eh]
	 Total Energy              =    -889.9901546908499768 [Eh]

	 ================> DF-SCS-MP2 Energies <==================
	-----------------------------------------------------------
	 SCS Same-Spin Scale       =       0.3333333333333333 [-]
	 SCS Opposite-Spin Scale   =       1.2000000000000000 [-]
	 SCS Same-Spin Energy      =      -0.3006585314699351 [Eh]
	 SCS Opposite-Spin Energy  =      -3.2597343230386966 [Eh]
	 SCS Correlation Energy    =      -3.5603928545086316 [Eh]
	 SCS Total Energy          =    -889.9321266817498781 [Eh]
	-----------------------------------------------------------

  Dipole Moment: [D]
     X:     2.7179      Y:     5.7744      Z:     1.9258     Total:     6.6663

*** Psi4 exiting successfully. Buy a developer a beer!
