                               Psi4 1.3.2 release

  ==> Input File <==

--------------------------------------------------------------------------
#psi4
#
memory 32 gb

molecule  {
0 1
  O       -1.2481010    -0.6526680     1.0325150
  O       -1.2449750     2.4828510    -0.6861630
  O       -3.2165300     1.5210990     0.7448870
  O       -2.3570290    -3.0668370     0.0949400
  O        1.3605300     2.2470340    -0.0765420
  N        0.8434040     0.0452230     0.2559430
  N        3.0572260     0.7205030    -0.2937270
  N        4.7164630    -0.8366550    -0.5722980
  C       -1.2803822     1.0082462    -0.6303364
  C       -2.7151710     0.6552070    -0.2573930
  C       -0.5254080     0.4815200     0.6000940
  C       -2.5292560    -0.7168860     0.3610560
  C       -2.5283440    -1.8503930    -0.6392900
  C        1.2197750    -1.2614080     0.3112740
  C        1.7555940     1.0674350    -0.0594030
  C        2.5111010    -1.6091400     0.0469950
  C        3.4119830    -0.5506530    -0.2589250
  H       -0.9376060     0.5914040    -1.5148910
  H       -3.3625820     0.6426650    -1.1464650
  H       -0.4116508     1.1828687     1.4348448
  H       -3.2819570    -0.9087340     1.1307830
  H       -1.7133080    -1.7003050    -1.3694640
  H       -3.4855610    -1.8340040    -1.1841350
  H       -0.2975250     2.7131790    -0.5250000
  H       -2.8475560     2.3997430     0.5086630
  H        0.4343110    -1.9634370     0.5690680
  H       -2.4338740    -3.7984320    -0.5432330
  H        2.8291120    -2.6453980     0.0739220
  H        5.1251800    -1.6708610    -0.1624140
  H        5.3198140    -0.0200540    -0.5682940
units angstrom
no_reorient  #important for SAPT in psi4, default
symmetry c1  #important for SAPT in psi4, default
}

set PROPERTIES_ORIGIN ["COM"]
properties('MP2/aug-cc-pvtz', properties = ['dipole'])
--------------------------------------------------------------------------

    Molecular point group: c1
  Charge       = 0
  Multiplicity = 1
  Basis Set: AUG-CC-PVTZ
    Blend: AUG-CC-PVTZ
  Basis Set: (AUG-CC-PVTZ AUX)
    Blend: AUG-CC-PVTZ-JKFIT

    Orbital Energies [Eh]
    ---------------------

    Doubly Occupied:

       1A    -20.582995     2A    -20.581022     3A    -20.559416
       4A    -20.551136     5A    -20.520841     6A    -15.635893
       7A    -15.599742     8A    -15.553105     9A    -11.387579
      10A    -11.357673    11A    -11.343719    12A    -11.328415
      13A    -11.302277    14A    -11.296986    15A    -11.296234
      16A    -11.295018    17A    -11.248517    18A     -1.429240
      19A     -1.395921    20A     -1.376406    21A     -1.368147
      22A     -1.330324    23A     -1.305502    24A     -1.273836
      25A     -1.182107    26A     -1.082360    27A     -1.071412
      28A     -1.023248    29A     -0.936173    30A     -0.909718
      31A     -0.877734    32A     -0.836862    33A     -0.812124
      34A     -0.767247    35A     -0.751732    36A     -0.732538
      37A     -0.721606    38A     -0.701681    39A     -0.700984
      40A     -0.685217    41A     -0.671563    42A     -0.656407
      43A     -0.650145    44A     -0.638583    45A     -0.619392
      46A     -0.611180    47A     -0.606221    48A     -0.590300
      49A     -0.575267    50A     -0.569229    51A     -0.550756
      52A     -0.546686    53A     -0.533379    54A     -0.526183
      55A     -0.496995    56A     -0.478465    57A     -0.476614
      58A     -0.462936    59A     -0.459437    60A     -0.457319
      61A     -0.443569    62A     -0.432968    63A     -0.395432
      64A     -0.349870

  @DF-RHF Final Energy:  -886.36436120825033

   => Energetics <=

    Nuclear Repulsion Energy =           1323.3878524574483890
    One-Electron Energy =               -3844.4812575634600762
    Two-Electron Energy =                1634.7290438977613576
    Total Energy =                       -886.3643612082503296
  Basis Set: (AUG-CC-PVTZ AUX)
    Blend: AUG-CC-PVTZ-RI
    Molecular point group: c1

    Geometry (in Angstrom), charge = 0, multiplicity = 1:

       Center              X                  Y                   Z               Mass
    ------------   -----------------  -----------------  -----------------  -----------------
         O           -1.248669084647    -0.649041602889     1.034275805993    15.994914619570
         O           -1.245543084647     2.486477397111    -0.684402194007    15.994914619570
         O           -3.217098084647     1.524725397111     0.746647805993    15.994914619570
         O           -2.357597084647    -3.063210602889     0.096700805993    15.994914619570
         O            1.359961915353     2.250660397111    -0.074781194007    15.994914619570
         N            0.842835915353     0.048849397111     0.257703805993    14.003074004430
         N            3.056657915353     0.724129397111    -0.291966194007    14.003074004430
         N            4.715894915353    -0.833028602889    -0.570537194007    14.003074004430
         C           -1.280950284647     1.011872597111    -0.628575594007    12.000000000000
         C           -2.715739084647     0.658833397111    -0.255632194007    12.000000000000
         C           -0.525976084647     0.485146397111     0.601854805993    12.000000000000
         C           -2.529824084647    -0.713259602889     0.362816805993    12.000000000000
         C           -2.528912084647    -1.846766602889    -0.637529194007    12.000000000000
         C            1.219206915353    -1.257781602889     0.313034805993    12.000000000000
         C            1.755025915353     1.071061397111    -0.057642194007    12.000000000000
         C            2.510532915353    -1.605513602889     0.048755805993    12.000000000000
         C            3.411414915353    -0.547026602889    -0.257164194007    12.000000000000
         H           -0.938174084647     0.595030397111    -1.513130194007     1.007825032230
         H           -3.363150084647     0.646291397111    -1.144704194007     1.007825032230
         H           -0.412218884647     1.186495097111     1.436605605993     1.007825032230
         H           -3.282525084647    -0.905107602889     1.132543805993     1.007825032230
         H           -1.713876084647    -1.696678602889    -1.367703194007     1.007825032230
         H           -3.486129084647    -1.830377602889    -1.182374194007     1.007825032230
         H           -0.298093084647     2.716805397111    -0.523239194007     1.007825032230
         H           -2.848124084647     2.403369397111     0.510423805993     1.007825032230
         H            0.433742915353    -1.959810602889     0.570828805993     1.007825032230
         H           -2.434442084647    -3.794805602889    -0.541472194007     1.007825032230
         H            2.828543915353    -2.641771602889     0.075682805993     1.007825032230
         H            5.124611915353    -1.667234602889    -0.160653194007     1.007825032230
         H            5.319245915353    -0.016427602889    -0.566533194007     1.007825032230

  Basis Set: AUG-CC-PVTZ
    Blend: AUG-CC-PVTZ
  Basis Set: (AUG-CC-PVTZ AUX)
    Blend: AUG-CC-PVTZ-JKFIT
	 Reference Energy          =    -886.3643612082503296 [Eh]
	 Singles Energy            =      -0.0000000000000000 [Eh]
	 Same-Spin Energy          =      -0.9014944961752883 [Eh]
	 Opposite-Spin Energy      =      -2.7164716957122543 [Eh]
	 Correlation Energy        =      -3.6179661918875428 [Eh]
	 Total Energy              =    -889.9823274001378195 [Eh]

	 ================> DF-SCS-MP2 Energies <==================
	-----------------------------------------------------------
	 SCS Same-Spin Scale       =       0.3333333333333333 [-]
	 SCS Opposite-Spin Scale   =       1.2000000000000000 [-]
	 SCS Same-Spin Energy      =      -0.3004981653917628 [Eh]
	 SCS Opposite-Spin Energy  =      -3.2597660348547053 [Eh]
	 SCS Correlation Energy    =      -3.5602642002464679 [Eh]
	 SCS Total Energy          =    -889.9246254084968086 [Eh]
	-----------------------------------------------------------

  Dipole Moment: [D]
     X:     1.6749      Y:    -6.1214      Z:    -1.8240     Total:     6.6033

*** Psi4 exiting successfully. Buy a developer a beer!
