                               Psi4 1.3.2 release

  ==> Input File <==

--------------------------------------------------------------------------
#psi4
#
memory 32 gb

molecule  {
0 1
  O       -1.2481010    -0.6526680     1.0325150
  O       -1.2449750     2.4828510    -0.6861630
  O       -3.2165300     1.5210990     0.7448870
  O       -2.3570290    -3.0668370     0.0949400
  O        1.3605300     2.2470340    -0.0765420
  N        0.8434040     0.0452230     0.2559430
  N        3.0572260     0.7205030    -0.2937270
  N        4.7164630    -0.8366550    -0.5722980
  C       -1.2831629     1.2778830    -0.6054389
  C       -2.7151710     0.6552070    -0.2573930
  C       -0.5254080     0.4815200     0.6000940
  C       -2.5292560    -0.7168860     0.3610560
  C       -2.5283440    -1.8503930    -0.6392900
  C        1.2197750    -1.2614080     0.3112740
  C        1.7555940     1.0674350    -0.0594030
  C        2.5111010    -1.6091400     0.0469950
  C        3.4119830    -0.5506530    -0.2589250
  H       -0.9376060     0.5914040    -1.5148910
  H       -3.3625820     0.6426650    -1.1464650
  H       -0.4402900     1.2218800     1.4039980
  H       -3.2819570    -0.9087340     1.1307830
  H       -1.7133080    -1.7003050    -1.3694640
  H       -3.4855610    -1.8340040    -1.1841350
  H       -0.2975250     2.7131790    -0.5250000
  H       -2.8475560     2.3997430     0.5086630
  H        0.4343110    -1.9634370     0.5690680
  H       -2.4338740    -3.7984320    -0.5432330
  H        2.8291120    -2.6453980     0.0739220
  H        5.1251800    -1.6708610    -0.1624140
  H        5.3198140    -0.0200540    -0.5682940
units angstrom
no_reorient  #important for SAPT in psi4, default
symmetry c1  #important for SAPT in psi4, default
}

set PROPERTIES_ORIGIN ["COM"]
properties('MP2/aug-cc-pvtz', properties = ['dipole'])
--------------------------------------------------------------------------

    Molecular point group: c1
  Charge       = 0
  Multiplicity = 1
  Basis Set: AUG-CC-PVTZ
    Blend: AUG-CC-PVTZ
  Basis Set: (AUG-CC-PVTZ AUX)
    Blend: AUG-CC-PVTZ-JKFIT

    Orbital Energies [Eh]
    ---------------------

    Doubly Occupied:

       1A    -20.580890     2A    -20.580458     3A    -20.579666
       4A    -20.555712     5A    -20.524826     6A    -15.635152
       7A    -15.598674     8A    -15.552751     9A    -11.388658
      10A    -11.356536    11A    -11.335420    12A    -11.326084
      13A    -11.309117    14A    -11.297656    15A    -11.295417
      16A    -11.289111    17A    -11.246436    18A     -1.482979
      19A     -1.417280    20A     -1.396002    21A     -1.371953
      22A     -1.357828    23A     -1.305639    24A     -1.271590
      25A     -1.181081    26A     -1.077963    27A     -1.055521
      28A     -0.999942    29A     -0.930231    30A     -0.906881
      31A     -0.877204    32A     -0.842012    33A     -0.806260
      34A     -0.768939    35A     -0.761065    36A     -0.743137
      37A     -0.719546    38A     -0.713526    39A     -0.706242
      40A     -0.685289    41A     -0.674395    42A     -0.658525
      43A     -0.653458    44A     -0.644002    45A     -0.633494
      46A     -0.623531    47A     -0.609369    48A     -0.599441
      49A     -0.579967    50A     -0.570805    51A     -0.560631
      52A     -0.551129    53A     -0.543180    54A     -0.530499
      55A     -0.499573    56A     -0.473758    57A     -0.465955
      58A     -0.462052    59A     -0.457589    60A     -0.433687
      61A     -0.421878    62A     -0.414636    63A     -0.388705
      64A     -0.345114

  @DF-RHF Final Energy:  -886.32349294388450

   => Energetics <=

    Nuclear Repulsion Energy =           1322.9855731598031525
    One-Electron Energy =               -3843.3660366709304981
    Two-Electron Energy =                1634.0569705672428427
    Total Energy =                       -886.3234929438845029
  Basis Set: (AUG-CC-PVTZ AUX)
    Blend: AUG-CC-PVTZ-RI
    Molecular point group: c1

    Geometry (in Angstrom), charge = 0, multiplicity = 1:

       Center              X                  Y                   Z               Mass
    ------------   -----------------  -----------------  -----------------  -----------------
         O           -1.248413077203    -0.662514055537     1.033174622252    15.994914619570
         O           -1.245287077203     2.473004944463    -0.685503377748    15.994914619570
         O           -3.216842077203     1.511252944463     0.745546622252    15.994914619570
         O           -2.357341077203    -3.076683055537     0.095599622252    15.994914619570
         O            1.360217922797     2.237187944463    -0.075882377748    15.994914619570
         N            0.843091922797     0.035376944463     0.256602622252    14.003074004430
         N            3.056913922797     0.710656944463    -0.293067377748    14.003074004430
         N            4.716150922797    -0.846501055537    -0.571638377748    14.003074004430
         C           -1.283474977203     1.268036944463    -0.604779277748    12.000000000000
         C           -2.715483077203     0.645360944463    -0.256733377748    12.000000000000
         C           -0.525720077203     0.471673944463     0.600753622252    12.000000000000
         C           -2.529568077203    -0.726732055537     0.361715622252    12.000000000000
         C           -2.528656077203    -1.860239055537    -0.638630377748    12.000000000000
         C            1.219462922797    -1.271254055537     0.311933622252    12.000000000000
         C            1.755281922797     1.057588944463    -0.058743377748    12.000000000000
         C            2.510788922797    -1.618986055537     0.047654622252    12.000000000000
         C            3.411670922797    -0.560499055537    -0.258265377748    12.000000000000
         H           -0.937918077203     0.581557944463    -1.514231377748     1.007825032230
         H           -3.362894077203     0.632818944463    -1.145805377748     1.007825032230
         H           -0.440602077203     1.212033944463     1.404657622252     1.007825032230
         H           -3.282269077203    -0.918580055537     1.131442622252     1.007825032230
         H           -1.713620077203    -1.710151055537    -1.368804377748     1.007825032230
         H           -3.485873077203    -1.843850055537    -1.183475377748     1.007825032230
         H           -0.297837077203     2.703332944463    -0.524340377748     1.007825032230
         H           -2.847868077203     2.389896944463     0.509322622252     1.007825032230
         H            0.433998922797    -1.973283055537     0.569727622252     1.007825032230
         H           -2.434186077203    -3.808278055537    -0.542573377748     1.007825032230
         H            2.828799922797    -2.655244055537     0.074581622252     1.007825032230
         H            5.124867922797    -1.680707055537    -0.161754377748     1.007825032230
         H            5.319501922797    -0.029900055537    -0.567634377748     1.007825032230

  Basis Set: AUG-CC-PVTZ
    Blend: AUG-CC-PVTZ
  Basis Set: (AUG-CC-PVTZ AUX)
    Blend: AUG-CC-PVTZ-JKFIT
	 Reference Energy          =    -886.3234929438845029 [Eh]
	 Singles Energy            =      -0.0000000000000000 [Eh]
	 Same-Spin Energy          =      -0.9026211452899302 [Eh]
	 Opposite-Spin Energy      =      -2.7148886967389436 [Eh]
	 Correlation Energy        =      -3.6175098420288738 [Eh]
	 Total Energy              =    -889.9410027859133834 [Eh]

	 ================> DF-SCS-MP2 Energies <==================
	-----------------------------------------------------------
	 SCS Same-Spin Scale       =       0.3333333333333333 [-]
	 SCS Opposite-Spin Scale   =       1.2000000000000000 [-]
	 SCS Same-Spin Energy      =      -0.3008737150966434 [Eh]
	 SCS Opposite-Spin Energy  =      -3.2578664360867324 [Eh]
	 SCS Correlation Energy    =      -3.5587401511833758 [Eh]
	 SCS Total Energy          =    -889.8822330950679316 [Eh]
	-----------------------------------------------------------

  Dipole Moment: [D]
     X:     1.6885      Y:    -5.1658      Z:    -1.8383     Total:     5.7372

*** Psi4 exiting successfully. Buy a developer a beer!
