                               Psi4 1.3.2 release

  ==> Input File <==

--------------------------------------------------------------------------
#psi4
#
memory 32 gb

molecule  {
0 1
  O       -1.2481010    -0.6526680     1.0325150
  O       -1.2449750     2.4828510    -0.6861630
  O       -3.2165300     1.5210990     0.7448870
  O       -2.3570290    -3.0668370     0.0949400
  O        1.3605300     2.2470340    -0.0765420
  N        0.8434040     0.0452230     0.2559430
  N        3.0572260     0.7205030    -0.2937270
  N        4.7164630    -0.8366550    -0.5722980
  C       -1.2894840     1.0784300    -0.5920770
  C       -2.6943476     0.6506960    -0.2730946
  C       -0.5254080     0.4815200     0.6000940
  C       -2.5292560    -0.7168860     0.3610560
  C       -2.5283440    -1.8503930    -0.6392900
  C        1.2197750    -1.2614080     0.3112740
  C        1.7555940     1.0674350    -0.0594030
  C        2.5111010    -1.6091400     0.0469950
  C        3.4119830    -0.5506530    -0.2589250
  H       -0.9376060     0.5914040    -1.5148910
  H       -3.3625820     0.6426650    -1.1464650
  H       -0.4402900     1.2218800     1.4039980
  H       -3.2742412    -0.9259268     1.1338063
  H       -1.7133080    -1.7003050    -1.3694640
  H       -3.4855610    -1.8340040    -1.1841350
  H       -0.2975250     2.7131790    -0.5250000
  H       -2.8475560     2.3997430     0.5086630
  H        0.4343110    -1.9634370     0.5690680
  H       -2.4338740    -3.7984320    -0.5432330
  H        2.8291120    -2.6453980     0.0739220
  H        5.1251800    -1.6708610    -0.1624140
  H        5.3198140    -0.0200540    -0.5682940
units angstrom
no_reorient  #important for SAPT in psi4, default
symmetry c1  #important for SAPT in psi4, default
}

set PROPERTIES_ORIGIN ["COM"]
properties('MP2/aug-cc-pvtz', properties = ['dipole'])
--------------------------------------------------------------------------

    Molecular point group: c1
  Charge       = 0
  Multiplicity = 1
  Basis Set: AUG-CC-PVTZ
    Blend: AUG-CC-PVTZ
  Basis Set: (AUG-CC-PVTZ AUX)
    Blend: AUG-CC-PVTZ-JKFIT

    Orbital Energies [Eh]
    ---------------------

    Doubly Occupied:

       1A    -20.582485     2A    -20.581661     3A    -20.557646
       4A    -20.555972     5A    -20.522214     6A    -15.637158
       7A    -15.600011     8A    -15.553531     9A    -11.388478
      10A    -11.358047    11A    -11.342054    12A    -11.328739
      13A    -11.301112    14A    -11.297639    15A    -11.296839
      16A    -11.293058    17A    -11.248763    18A     -1.429522
      19A     -1.396470    20A     -1.378537    21A     -1.372621
      22A     -1.341443    23A     -1.306270    24A     -1.274008
      25A     -1.182439    26A     -1.082350    27A     -1.070261
      28A     -1.023664    29A     -0.936413    30A     -0.909647
      31A     -0.876946    32A     -0.832531    33A     -0.812212
      34A     -0.767182    35A     -0.752995    36A     -0.737175
      37A     -0.720592    38A     -0.702178    39A     -0.696828
      40A     -0.685789    41A     -0.670713    42A     -0.654825
      43A     -0.651667    44A     -0.638459    45A     -0.620902
      46A     -0.614609    47A     -0.606062    48A     -0.594008
      49A     -0.574915    50A     -0.569557    51A     -0.553000
      52A     -0.543228    53A     -0.537090    54A     -0.531986
      55A     -0.499005    56A     -0.479624    57A     -0.476376
      58A     -0.462398    59A     -0.460221    60A     -0.453698
      61A     -0.441420    62A     -0.433259    63A     -0.395466
      64A     -0.350312

  @DF-RHF Final Energy:  -886.37215375296637

   => Energetics <=

    Nuclear Repulsion Energy =           1323.9467158968302556
    One-Electron Energy =               -3845.5451815649698801
    Two-Electron Energy =                1635.2263119151730280
    Total Energy =                       -886.3721537529663692
  Basis Set: (AUG-CC-PVTZ AUX)
    Blend: AUG-CC-PVTZ-RI
    Molecular point group: c1

    Geometry (in Angstrom), charge = 0, multiplicity = 1:

       Center              X                  Y                   Z               Mass
    ------------   -----------------  -----------------  -----------------  -----------------
         O           -1.249160977679    -0.652374021985     1.033277587836    15.994914619570
         O           -1.246034977679     2.483144978015    -0.685400412164    15.994914619570
         O           -3.217589977679     1.521392978015     0.745649587836    15.994914619570
         O           -2.358088977679    -3.066543021985     0.095702587836    15.994914619570
         O            1.359470022321     2.247327978015    -0.075779412164    15.994914619570
         N            0.842344022321     0.045516978015     0.256705587836    14.003074004430
         N            3.056166022321     0.720796978015    -0.292964412164    14.003074004430
         N            4.715403022321    -0.836361021985    -0.571535412164    14.003074004430
         C           -1.290543977679     1.078723978015    -0.591314412164    12.000000000000
         C           -2.695407577679     0.650989978015    -0.272332012164    12.000000000000
         C           -0.526467977679     0.481813978015     0.600856587836    12.000000000000
         C           -2.530315977679    -0.716592021985     0.361818587836    12.000000000000
         C           -2.529403977679    -1.850099021985    -0.638527412164    12.000000000000
         C            1.218715022321    -1.261114021985     0.312036587836    12.000000000000
         C            1.754534022321     1.067728978015    -0.058640412164    12.000000000000
         C            2.510041022321    -1.608846021985     0.047757587836    12.000000000000
         C            3.410923022321    -0.550359021985    -0.258162412164    12.000000000000
         H           -0.938665977679     0.591697978015    -1.514128412164     1.007825032230
         H           -3.363641977679     0.642958978015    -1.145702412164     1.007825032230
         H           -0.441349977679     1.222173978015     1.404760587836     1.007825032230
         H           -3.275301177679    -0.925632821985     1.134568887836     1.007825032230
         H           -1.714367977679    -1.700011021985    -1.368701412164     1.007825032230
         H           -3.486620977679    -1.833710021985    -1.183372412164     1.007825032230
         H           -0.298584977679     2.713472978015    -0.524237412164     1.007825032230
         H           -2.848615977679     2.400036978015     0.509425587836     1.007825032230
         H            0.433251022321    -1.963143021985     0.569830587836     1.007825032230
         H           -2.434933977679    -3.798138021985    -0.542470412164     1.007825032230
         H            2.828052022321    -2.645104021985     0.074684587836     1.007825032230
         H            5.124120022321    -1.670567021985    -0.161651412164     1.007825032230
         H            5.318754022321    -0.019760021985    -0.567531412164     1.007825032230

  Basis Set: AUG-CC-PVTZ
    Blend: AUG-CC-PVTZ
  Basis Set: (AUG-CC-PVTZ AUX)
    Blend: AUG-CC-PVTZ-JKFIT
	 Reference Energy          =    -886.3721537529663692 [Eh]
	 Singles Energy            =      -0.0000000000000000 [Eh]
	 Same-Spin Energy          =      -0.9013465040637820 [Eh]
	 Opposite-Spin Energy      =      -2.7153607775306963 [Eh]
	 Correlation Energy        =      -3.6167072815944783 [Eh]
	 Total Energy              =    -889.9888610345608413 [Eh]

	 ================> DF-SCS-MP2 Energies <==================
	-----------------------------------------------------------
	 SCS Same-Spin Scale       =       0.3333333333333333 [-]
	 SCS Opposite-Spin Scale   =       1.2000000000000000 [-]
	 SCS Same-Spin Energy      =      -0.3004488346879273 [Eh]
	 SCS Opposite-Spin Energy  =      -3.2584329330368353 [Eh]
	 SCS Correlation Energy    =      -3.5588817677247628 [Eh]
	 SCS Total Energy          =    -889.9310355206911254 [Eh]
	-----------------------------------------------------------

  Dipole Moment: [D]
     X:     1.7554      Y:    -6.0010      Z:    -1.8551     Total:     6.5219

*** Psi4 exiting successfully. Buy a developer a beer!
