                               Psi4 1.4a3.dev225

  ==> Input File <==

--------------------------------------------------------------------------
#psi4
#
memory 32 gb

molecule  {
0 1
  O       -1.3191770     0.6538360    -1.0992360
  O       -1.5735610    -2.4640850     0.5135810
  O       -3.5606630    -1.0699430    -0.4600060
  O       -1.4399290     3.1254620     0.1265180
  O        1.1065530    -2.3833650     0.0076020
  N        0.7686360    -0.1579440    -0.3706350
  N        2.9363770    -0.9938720     0.1460080
  N        4.7058880     0.4431110     0.3611260
  C       -1.3768610    -1.0680440     0.5552780
  C       -2.7379840    -0.3746360     0.4578480
  C       -0.6377490    -0.5042940    -0.6790150
  C       -2.3707440     0.9655450    -0.1585060
  C       -1.8992030     1.9895750     0.8571380
  C        1.2309690     1.1190800    -0.4442230
  C        1.6104480    -1.2470590    -0.0585760
  C        2.5474650     1.3753690    -0.1998620
  C        3.3802090     0.2523040     0.0808410
  H       -0.8441360    -0.7686950     1.4698480
  H       -3.2257400    -0.2778790     1.4400230
  H       -0.6227070    -1.2428120    -1.4883720
  H       -3.1941750     1.3785730    -0.7472070
  H       -1.0952130     1.5703990     1.4802000
  H       -2.7410530     2.2466610     1.5166010
  H       -0.6527368    -2.8334213     0.3509905
  H       -3.3063470    -2.0105220    -0.3629290
  H        0.4929290     1.8778260    -0.6840360
  H       -1.2098800     3.8154810     0.7720340
  H        2.9334840     2.3875570    -0.2389120
  H        5.1589650     1.2712730    -0.0008400
  H        5.2635310    -0.4031270     0.3606700
units angstrom
no_reorient  #important for SAPT in psi4, default
symmetry c1  #important for SAPT in psi4, default
}

set PROPERTIES_ORIGIN ["COM"]
properties('MP2/aug-cc-pvtz', properties = ['dipole'])
--------------------------------------------------------------------------

    Molecular point group: c1
  Charge       = 0
  Multiplicity = 1
  Basis Set: AUG-CC-PVTZ
    Blend: AUG-CC-PVTZ
  Basis Set: (AUG-CC-PVTZ AUX)
    Blend: AUG-CC-PVTZ-JKFIT

    Orbital Energies [Eh]
    ---------------------

    Doubly Occupied:

       1A    -20.586623     2A    -20.581229     3A    -20.559411
       4A    -20.556019     5A    -20.520492     6A    -15.633177
       7A    -15.599871     8A    -15.552103     9A    -11.386561
      10A    -11.358328    11A    -11.339351    12A    -11.325269
      13A    -11.303399    14A    -11.297700    15A    -11.296368
      16A    -11.293107    17A    -11.246739    18A     -1.428935
      19A     -1.394532    20A     -1.382371    21A     -1.373666
      22A     -1.343961    23A     -1.304044    24A     -1.271541
      25A     -1.181465    26A     -1.079437    27A     -1.067588
      28A     -1.016541    29A     -0.936393    30A     -0.906814
      31A     -0.876847    32A     -0.829095    33A     -0.812109
      34A     -0.766687    35A     -0.750261    36A     -0.733428
      37A     -0.722103    38A     -0.707164    39A     -0.702855
      40A     -0.685194    41A     -0.674409    42A     -0.653327
      43A     -0.649366    44A     -0.633374    45A     -0.619347
      46A     -0.615081    47A     -0.607627    48A     -0.592992
      49A     -0.576533    50A     -0.564709    51A     -0.554976
      52A     -0.547736    53A     -0.536147    54A     -0.531043
      55A     -0.495912    56A     -0.480460    57A     -0.473095
      58A     -0.463023    59A     -0.458326    60A     -0.452215
      61A     -0.441476    62A     -0.430587    63A     -0.392534
      64A     -0.348509

  @DF-RHF Final Energy:  -886.37265164463645

   => Energetics <=

    Nuclear Repulsion Energy =           1334.4840426996429414
    One-Electron Energy =               -3866.7102179557468844
    Two-Electron Energy =                1645.8535236114676081
    Total Energy =                       -886.3726516446363348
  Basis Set: (AUG-CC-PVTZ AUX)
    Blend: AUG-CC-PVTZ-RI
    Molecular point group: c1

    Geometry (in Angstrom), charge = 0, multiplicity = 1:

       Center              X                  Y                   Z               Mass
    ------------   -----------------  -----------------  -----------------  -----------------
         O           -1.331996601486     0.682477928425    -1.083442378957    15.994914619570
         O           -1.586380601486    -2.435443071575     0.529374621043    15.994914619570
         O           -3.573482601486    -1.041301071575    -0.444212378957    15.994914619570
         O           -1.452748601486     3.154103928425     0.142311621043    15.994914619570
         O            1.093733398514    -2.354723071575     0.023395621043    15.994914619570
         N            0.755816398514    -0.129302071575    -0.354841378957    14.003074004430
         N            2.923557398514    -0.965230071575     0.161801621043    14.003074004430
         N            4.693068398514     0.471752928425     0.376919621043    14.003074004430
         C           -1.389680601486    -1.039402071575     0.571071621043    12.000000000000
         C           -2.750803601486    -0.345994071575     0.473641621043    12.000000000000
         C           -0.650568601486    -0.475652071575    -0.663221378957    12.000000000000
         C           -2.383563601486     0.994186928425    -0.142712378957    12.000000000000
         C           -1.912022601486     2.018216928425     0.872931621043    12.000000000000
         C            1.218149398514     1.147721928425    -0.428429378957    12.000000000000
         C            1.597628398514    -1.218417071575    -0.042782378957    12.000000000000
         C            2.534645398514     1.404010928425    -0.184068378957    12.000000000000
         C            3.367389398514     0.280945928425     0.096634621043    12.000000000000
         H           -0.856955601486    -0.740053071575     1.485641621043     1.007825032230
         H           -3.238559601486    -0.249237071575     1.455816621043     1.007825032230
         H           -0.635526601486    -1.214170071575    -1.472578378957     1.007825032230
         H           -3.206994601486     1.407214928425    -0.731413378957     1.007825032230
         H           -1.108032601486     1.599040928425     1.495993621043     1.007825032230
         H           -2.753872601486     2.275302928425     1.532394621043     1.007825032230
         H           -0.665556401486    -2.804779371575     0.366784121043     1.007825032230
         H           -3.319166601486    -1.981880071575    -0.347135378957     1.007825032230
         H            0.480109398514     1.906467928425    -0.668242378957     1.007825032230
         H           -1.222699601486     3.844122928425     0.787827621043     1.007825032230
         H            2.920664398514     2.416198928425    -0.223118378957     1.007825032230
         H            5.146145398514     1.299914928425     0.014953621043     1.007825032230
         H            5.250711398514    -0.374485071575     0.376463621043     1.007825032230

  Basis Set: AUG-CC-PVTZ
    Blend: AUG-CC-PVTZ
  Basis Set: (AUG-CC-PVTZ AUX)
    Blend: AUG-CC-PVTZ-JKFIT
	 Reference Energy          =    -886.3726516446364485 [Eh]
	 Singles Energy            =      -0.0000000000000000 [Eh]
	 Same-Spin Energy          =      -0.9021430755269831 [Eh]
	 Opposite-Spin Energy      =      -2.7165128675494294 [Eh]
	 Correlation Energy        =      -3.6186559430764125 [Eh]
	 Total Energy              =    -889.9913075877128676 [Eh]

	 ================> DF-SCS-MP2 Energies <==================
	-----------------------------------------------------------
	 SCS Same-Spin Scale       =       0.3333333333333333 [-]
	 SCS Opposite-Spin Scale   =       1.2000000000000000 [-]
	 SCS Same-Spin Energy      =      -0.3007143585089944 [Eh]
	 SCS Opposite-Spin Energy  =      -3.2598154410593154 [Eh]
	 SCS Correlation Energy    =      -3.5605297995683096 [Eh]
	 SCS Total Energy          =    -889.9331814442047062 [Eh]
	-----------------------------------------------------------

  Dipole Moment: [D]
     X:     2.7942      Y:     5.7995      Z:     1.9381     Total:     6.7229

*** Psi4 exiting successfully. Buy a developer a beer!
