                               Psi4 1.4a3.dev225

  ==> Input File <==

--------------------------------------------------------------------------
#psi4
#
memory 32 gb

molecule  {
0 1
  O       -1.3191770     0.6538360    -1.0992360
  O       -1.5735610    -2.4640850     0.5135810
  O       -3.5606630    -1.0699430    -0.4600060
  O       -1.4399290     3.1254620     0.1265180
  O        1.1065530    -2.3833650     0.0076020
  N        0.7686360    -0.1579440    -0.3706350
  N        2.9363770    -0.9938720     0.1460080
  N        4.7058880     0.4431110     0.3611260
  C       -1.3768610    -1.0680440     0.5552780
  C       -2.7379840    -0.3746360     0.4578480
  C       -0.6377490    -0.5042940    -0.6790150
  C       -2.3707440     0.9655450    -0.1585060
  C       -1.8992030     1.9895750     0.8571380
  C        1.2309690     1.1190800    -0.4442230
  C        1.6104480    -1.2470590    -0.0585760
  C        2.5474650     1.3753690    -0.1998620
  C        3.3995853     0.2550929     0.0849377
  H       -0.8441360    -0.7686950     1.4698480
  H       -3.2257400    -0.2778790     1.4400230
  H       -0.6227070    -1.2428120    -1.4883720
  H       -3.1941750     1.3785730    -0.7472070
  H       -1.0952130     1.5703990     1.4802000
  H       -2.7410530     2.2466610     1.5166010
  H       -0.6710550    -2.8260740     0.3542250
  H       -3.3063470    -2.0105220    -0.3629290
  H        0.4929290     1.8778260    -0.6840360
  H       -1.2098800     3.8154810     0.7720340
  H        2.9334840     2.3875570    -0.2389120
  H        5.1589650     1.2712730    -0.0008400
  H        5.2635310    -0.4031270     0.3606700
units angstrom
no_reorient  #important for SAPT in psi4, default
symmetry c1  #important for SAPT in psi4, default
}

set PROPERTIES_ORIGIN ["COM"]
properties('MP2/aug-cc-pvtz', properties = ['dipole'])
--------------------------------------------------------------------------

    Molecular point group: c1
  Charge       = 0
  Multiplicity = 1
  Basis Set: AUG-CC-PVTZ
    Blend: AUG-CC-PVTZ
  Basis Set: (AUG-CC-PVTZ AUX)
    Blend: AUG-CC-PVTZ-JKFIT

    Orbital Energies [Eh]
    ---------------------

    Doubly Occupied:

       1A    -20.586215     2A    -20.580622     3A    -20.558624
       4A    -20.555867     5A    -20.518398     6A    -15.631241
       7A    -15.603610     8A    -15.550115     9A    -11.384795
      10A    -11.359087    11A    -11.338577    12A    -11.323972
      13A    -11.303001    14A    -11.297313    15A    -11.296176
      16A    -11.292870    17A    -11.246538    18A     -1.428318
      19A     -1.392661    20A     -1.382359    21A     -1.374838
      22A     -1.345872    23A     -1.304823    24A     -1.273830
      25A     -1.181454    26A     -1.077016    27A     -1.067404
      28A     -1.016204    29A     -0.935849    30A     -0.905050
      31A     -0.876783    32A     -0.829706    33A     -0.811784
      34A     -0.767891    35A     -0.749374    36A     -0.734484
      37A     -0.725330    38A     -0.707889    39A     -0.703593
      40A     -0.685966    41A     -0.675361    42A     -0.652384
      43A     -0.647693    44A     -0.632206    45A     -0.619016
      46A     -0.614365    47A     -0.608092    48A     -0.592377
      49A     -0.576495    50A     -0.565308    51A     -0.555837
      52A     -0.547662    53A     -0.536726    54A     -0.532048
      55A     -0.494627    56A     -0.480221    57A     -0.473110
      58A     -0.462654    59A     -0.455558    60A     -0.452208
      61A     -0.441533    62A     -0.427970    63A     -0.390815
      64A     -0.346998

  @DF-RHF Final Energy:  -886.37365625384598

   => Energetics <=

    Nuclear Repulsion Energy =           1334.2811840123235925
    One-Electron Energy =               -3866.3361476416725964
    Two-Electron Energy =                1645.6813073755031382
    Total Energy =                       -886.3736562538458656
  Basis Set: (AUG-CC-PVTZ AUX)
    Blend: AUG-CC-PVTZ-RI
    Molecular point group: c1

    Geometry (in Angstrom), charge = 0, multiplicity = 1:

       Center              X                  Y                   Z               Mass
    ------------   -----------------  -----------------  -----------------  -----------------
         O           -1.332877172484     0.682309791743    -1.083658024092    15.994914619570
         O           -1.587261172484    -2.435611208257     0.529158975908    15.994914619570
         O           -3.574363172484    -1.041469208257    -0.444428024092    15.994914619570
         O           -1.453629172484     3.153935791743     0.142095975908    15.994914619570
         O            1.092852827516    -2.354891208257     0.023179975908    15.994914619570
         N            0.754935827516    -0.129470208257    -0.355057024092    14.003074004430
         N            2.922676827516    -0.965398208257     0.161585975908    14.003074004430
         N            4.692187827516     0.471584791743     0.376703975908    14.003074004430
         C           -1.390561172484    -1.039570208257     0.570855975908    12.000000000000
         C           -2.751684172484    -0.346162208257     0.473425975908    12.000000000000
         C           -0.651449172484    -0.475820208257    -0.663437024092    12.000000000000
         C           -2.384444172484     0.994018791743    -0.142928024092    12.000000000000
         C           -1.912903172484     2.018048791743     0.872715975908    12.000000000000
         C            1.217268827516     1.147553791743    -0.428645024092    12.000000000000
         C            1.596747827516    -1.218585208257    -0.042998024092    12.000000000000
         C            2.533764827516     1.403842791743    -0.184284024092    12.000000000000
         C            3.385885127516     0.283566691743     0.100515675908    12.000000000000
         H           -0.857836172484    -0.740221208257     1.485425975908     1.007825032230
         H           -3.239440172484    -0.249405208257     1.455600975908     1.007825032230
         H           -0.636407172484    -1.214338208257    -1.472794024092     1.007825032230
         H           -3.207875172484     1.407046791743    -0.731629024092     1.007825032230
         H           -1.108913172484     1.598872791743     1.495777975908     1.007825032230
         H           -2.754753172484     2.275134791743     1.532178975908     1.007825032230
         H           -0.684755172484    -2.797600208257     0.369802975908     1.007825032230
         H           -3.320047172484    -1.982048208257    -0.347351024092     1.007825032230
         H            0.479228827516     1.906299791743    -0.668458024092     1.007825032230
         H           -1.223580172484     3.843954791743     0.787611975908     1.007825032230
         H            2.919783827516     2.416030791743    -0.223334024092     1.007825032230
         H            5.145264827516     1.299746791743     0.014737975908     1.007825032230
         H            5.249830827516    -0.374653208257     0.376247975908     1.007825032230

  Basis Set: AUG-CC-PVTZ
    Blend: AUG-CC-PVTZ
  Basis Set: (AUG-CC-PVTZ AUX)
    Blend: AUG-CC-PVTZ-JKFIT
	 Reference Energy          =    -886.3736562538459793 [Eh]
	 Singles Energy            =      -0.0000000000000000 [Eh]
	 Same-Spin Energy          =      -0.9018007757003492 [Eh]
	 Opposite-Spin Energy      =      -2.7158561059804276 [Eh]
	 Correlation Energy        =      -3.6176568816807766 [Eh]
	 Total Energy              =    -889.9913131355267524 [Eh]

	 ================> DF-SCS-MP2 Energies <==================
	-----------------------------------------------------------
	 SCS Same-Spin Scale       =       0.3333333333333333 [-]
	 SCS Opposite-Spin Scale   =       1.2000000000000000 [-]
	 SCS Same-Spin Energy      =      -0.3006002585667831 [Eh]
	 SCS Opposite-Spin Energy  =      -3.2590273271765131 [Eh]
	 SCS Correlation Energy    =      -3.5596275857432960 [Eh]
	 SCS Total Energy          =    -889.9332838395893077 [Eh]
	-----------------------------------------------------------

  Dipole Moment: [D]
     X:     2.9487      Y:     5.8408      Z:     1.9802     Total:     6.8360

*** Psi4 exiting successfully. Buy a developer a beer!
