                               Psi4 1.4a3.dev225

  ==> Input File <==

--------------------------------------------------------------------------
#psi4
#
memory 32 gb

molecule  {
0 1
  O       -1.3191770     0.6538360    -1.0992360
  O       -1.5735610    -2.4640850     0.5135810
  O       -3.5606630    -1.0699430    -0.4600060
  O       -1.4399290     3.1254620     0.1265180
  O        1.1065530    -2.3833650     0.0076020
  N        0.7686360    -0.1579440    -0.3706350
  N        2.9363770    -0.9938720     0.1460080
  N        4.7058880     0.4431110     0.3611260
  C       -1.3768610    -1.0680440     0.5552780
  C       -2.7379840    -0.3746360     0.4578480
  C       -0.6377490    -0.5042940    -0.6790150
  C       -2.3707440     0.9655450    -0.1585060
  C       -1.8992030     1.9895750     0.8571380
  C        1.2309690     1.1190800    -0.4442230
  C        1.6104480    -1.2470590    -0.0585760
  C        2.5474650     1.3753690    -0.1998620
  C        3.3802090     0.2523040     0.0808410
  H       -0.8441360    -0.7686950     1.4698480
  H       -3.2257400    -0.2778790     1.4400230
  H       -0.6227070    -1.2428120    -1.4883720
  H       -3.1941750     1.3785730    -0.7472070
  H       -1.1098291     1.5780194     1.4688731
  H       -2.7410530     2.2466610     1.5166010
  H       -0.6710550    -2.8260740     0.3542250
  H       -3.3063470    -2.0105220    -0.3629290
  H        0.4929290     1.8778260    -0.6840360
  H       -1.2098800     3.8154810     0.7720340
  H        2.9334840     2.3875570    -0.2389120
  H        5.1589650     1.2712730    -0.0008400
  H        5.2635310    -0.4031270     0.3606700
units angstrom
no_reorient  #important for SAPT in psi4, default
symmetry c1  #important for SAPT in psi4, default
}

set PROPERTIES_ORIGIN ["COM"]
properties('MP2/aug-cc-pvtz', properties = ['dipole'])
--------------------------------------------------------------------------

    Molecular point group: c1
  Charge       = 0
  Multiplicity = 1
  Basis Set: AUG-CC-PVTZ
    Blend: AUG-CC-PVTZ
  Basis Set: (AUG-CC-PVTZ AUX)
    Blend: AUG-CC-PVTZ-JKFIT

    Orbital Energies [Eh]
    ---------------------

    Doubly Occupied:

       1A    -20.586291     2A    -20.581375     3A    -20.559407
       4A    -20.556409     5A    -20.519746     6A    -15.633008
       7A    -15.599689     8A    -15.551786     9A    -11.385989
      10A    -11.358090    11A    -11.339606    12A    -11.325145
      13A    -11.301066    14A    -11.297674    15A    -11.297051
      16A    -11.293477    17A    -11.246591    18A     -1.429221
      19A     -1.394087    20A     -1.382874    21A     -1.375445
      22A     -1.346542    23A     -1.303682    24A     -1.271356
      25A     -1.181219    26A     -1.079377    27A     -1.068343
      28A     -1.017410    29A     -0.937404    30A     -0.906880
      31A     -0.877110    32A     -0.830171    33A     -0.812863
      34A     -0.766592    35A     -0.750421    36A     -0.735504
      37A     -0.722219    38A     -0.707750    39A     -0.703311
      40A     -0.685435    41A     -0.675446    42A     -0.654307
      43A     -0.649047    44A     -0.633478    45A     -0.620335
      46A     -0.615192    47A     -0.607801    48A     -0.593159
      49A     -0.577074    50A     -0.565000    51A     -0.555873
      52A     -0.548200    53A     -0.536691    54A     -0.531160
      55A     -0.495688    56A     -0.481394    57A     -0.473935
      58A     -0.463342    59A     -0.457982    60A     -0.453165
      61A     -0.442073    62A     -0.430277    63A     -0.392279
      64A     -0.348258

  @DF-RHF Final Energy:  -886.37432689330819

   => Energetics <=

    Nuclear Repulsion Energy =           1334.6526753265354728
    One-Electron Energy =               -3867.0164659775628024
    Two-Electron Energy =                1645.9894637577192498
    Total Energy =                       -886.3743268933083073
  Basis Set: (AUG-CC-PVTZ AUX)
    Blend: AUG-CC-PVTZ-RI
    Molecular point group: c1

    Geometry (in Angstrom), charge = 0, multiplicity = 1:

       Center              X                  Y                   Z               Mass
    ------------   -----------------  -----------------  -----------------  -----------------
         O           -1.331860056899     0.682415872805    -1.083408828117    15.994914619570
         O           -1.586244056899    -2.435505127195     0.529408171883    15.994914619570
         O           -3.573346056899    -1.041363127195    -0.444178828117    15.994914619570
         O           -1.452612056899     3.154041872805     0.142345171883    15.994914619570
         O            1.093869943101    -2.354785127195     0.023429171883    15.994914619570
         N            0.755952943101    -0.129364127195    -0.354807828117    14.003074004430
         N            2.923693943101    -0.965292127195     0.161835171883    14.003074004430
         N            4.693204943101     0.471690872805     0.376953171883    14.003074004430
         C           -1.389544056899    -1.039464127195     0.571105171883    12.000000000000
         C           -2.750667056899    -0.346056127195     0.473675171883    12.000000000000
         C           -0.650432056899    -0.475714127195    -0.663187828117    12.000000000000
         C           -2.383427056899     0.994124872805    -0.142678828117    12.000000000000
         C           -1.911886056899     2.018154872805     0.872965171883    12.000000000000
         C            1.218285943101     1.147659872805    -0.428395828117    12.000000000000
         C            1.597764943101    -1.218479127195    -0.042748828117    12.000000000000
         C            2.534781943101     1.403948872805    -0.184034828117    12.000000000000
         C            3.367525943101     0.280883872805     0.096668171883    12.000000000000
         H           -0.856819056899    -0.740115127195     1.485675171883     1.007825032230
         H           -3.238423056899    -0.249299127195     1.455850171883     1.007825032230
         H           -0.635390056899    -1.214232127195    -1.472544828117     1.007825032230
         H           -3.206858056899     1.407152872805    -0.731379828117     1.007825032230
         H           -1.122512156899     1.606599272805     1.484700271883     1.007825032230
         H           -2.753736056899     2.275240872805     1.532428171883     1.007825032230
         H           -0.683738056899    -2.797494127195     0.370052171883     1.007825032230
         H           -3.319030056899    -1.981942127195    -0.347101828117     1.007825032230
         H            0.480245943101     1.906405872805    -0.668208828117     1.007825032230
         H           -1.222563056899     3.844060872805     0.787861171883     1.007825032230
         H            2.920800943101     2.416136872805    -0.223084828117     1.007825032230
         H            5.146281943101     1.299852872805     0.014987171883     1.007825032230
         H            5.250847943101    -0.374547127195     0.376497171883     1.007825032230

  Basis Set: AUG-CC-PVTZ
    Blend: AUG-CC-PVTZ
  Basis Set: (AUG-CC-PVTZ AUX)
    Blend: AUG-CC-PVTZ-JKFIT
	 Reference Energy          =    -886.3743268933081936 [Eh]
	 Singles Energy            =      -0.0000000000000000 [Eh]
	 Same-Spin Energy          =      -0.9017723486830332 [Eh]
	 Opposite-Spin Energy      =      -2.7157459400648056 [Eh]
	 Correlation Energy        =      -3.6175182887478390 [Eh]
	 Total Energy              =    -889.9918451820560676 [Eh]

	 ================> DF-SCS-MP2 Energies <==================
	-----------------------------------------------------------
	 SCS Same-Spin Scale       =       0.3333333333333333 [-]
	 SCS Opposite-Spin Scale   =       1.2000000000000000 [-]
	 SCS Same-Spin Energy      =      -0.3005907828943444 [Eh]
	 SCS Opposite-Spin Energy  =      -3.2588951280777665 [Eh]
	 SCS Correlation Energy    =      -3.5594859109721111 [Eh]
	 SCS Total Energy          =    -889.9338128042802509 [Eh]
	-----------------------------------------------------------

  Dipole Moment: [D]
     X:     2.7438      Y:     5.7903      Z:     1.9560     Total:     6.6994

*** Psi4 exiting successfully. Buy a developer a beer!
