                               Psi4 1.3.2 release

  ==> Input File <==

--------------------------------------------------------------------------
#psi4
#
memory 32 gb

molecule  {
0 1
  O       -1.2481010    -0.6526680     1.0325150
  O       -1.2449750     2.4828510    -0.6861630
  O       -3.2165300     1.5210990     0.7448870
  O       -2.3570290    -3.0668370     0.0949400
  O        1.3605300     2.2470340    -0.0765420
  N        0.8434040     0.0452230     0.2559430
  N        3.0572260     0.7205030    -0.2937270
  N        4.7164630    -0.8366550    -0.5722980
  C       -1.2929376     1.0797498    -0.6048555
  C       -2.7151710     0.6552070    -0.2573930
  C       -0.5254080     0.4815200     0.6000940
  C       -2.5292560    -0.7168860     0.3610560
  C       -2.5283440    -1.8503930    -0.6392900
  C        1.2197750    -1.2614080     0.3112740
  C        1.7555940     1.0674350    -0.0594030
  C        2.5111010    -1.6091400     0.0469950
  C        3.4119830    -0.5506530    -0.2589250
  H       -0.9376060     0.5914040    -1.5148910
  H       -3.3551627     0.6454971    -1.1518558
  H       -0.4402900     1.2218800     1.4039980
  H       -3.2819570    -0.9087340     1.1307830
  H       -1.7133080    -1.7003050    -1.3694640
  H       -3.4855610    -1.8340040    -1.1841350
  H       -0.2975250     2.7131790    -0.5250000
  H       -2.8475560     2.3997430     0.5086630
  H        0.4343110    -1.9634370     0.5690680
  H       -2.4338740    -3.7984320    -0.5432330
  H        2.8291120    -2.6453980     0.0739220
  H        5.1251800    -1.6708610    -0.1624140
  H        5.3198140    -0.0200540    -0.5682940
units angstrom
no_reorient  #important for SAPT in psi4, default
symmetry c1  #important for SAPT in psi4, default
}

set PROPERTIES_ORIGIN ["COM"]
properties('MP2/aug-cc-pvtz', properties = ['dipole'])
--------------------------------------------------------------------------

    Molecular point group: c1
  Charge       = 0
  Multiplicity = 1
  Basis Set: AUG-CC-PVTZ
    Blend: AUG-CC-PVTZ
  Basis Set: (AUG-CC-PVTZ AUX)
    Blend: AUG-CC-PVTZ-JKFIT

    Orbital Energies [Eh]
    ---------------------

    Doubly Occupied:

       1A    -20.582266     2A    -20.581399     3A    -20.558120
       4A    -20.557246     5A    -20.521877     6A    -15.636732
       7A    -15.599768     8A    -15.553255     9A    -11.388126
      10A    -11.357749    11A    -11.341443    12A    -11.328370
      13A    -11.301232    14A    -11.297025    15A    -11.296484
      16A    -11.292946    17A    -11.248438    18A     -1.428895
      19A     -1.396220    20A     -1.380335    21A     -1.372848
      22A     -1.346613    23A     -1.305940    24A     -1.273627
      25A     -1.182121    26A     -1.081533    27A     -1.067721
      28A     -1.020097    29A     -0.935257    30A     -0.909333
      31A     -0.877093    32A     -0.832913    33A     -0.811261
      34A     -0.766863    35A     -0.751932    36A     -0.736350
      37A     -0.720174    38A     -0.702860    39A     -0.699182
      40A     -0.685498    41A     -0.673279    42A     -0.654517
      43A     -0.651590    44A     -0.638224    45A     -0.620589
      46A     -0.614667    47A     -0.606762    48A     -0.593584
      49A     -0.575531    50A     -0.569686    51A     -0.553898
      52A     -0.545844    53A     -0.537406    54A     -0.531771
      55A     -0.498090    56A     -0.477304    57A     -0.475254
      58A     -0.462050    59A     -0.459857    60A     -0.453278
      61A     -0.439580    62A     -0.433035    63A     -0.394883
      64A     -0.349700

  @DF-RHF Final Energy:  -886.37337503526533

   => Energetics <=

    Nuclear Repulsion Energy =           1323.5027551393820886
    One-Electron Energy =               -3844.6772182132890521
    Two-Electron Energy =                1634.8010880386414101
    Total Energy =                       -886.3733750352653260
  Basis Set: (AUG-CC-PVTZ AUX)
    Blend: AUG-CC-PVTZ-RI
    Molecular point group: c1

    Geometry (in Angstrom), charge = 0, multiplicity = 1:

       Center              X                  Y                   Z               Mass
    ------------   -----------------  -----------------  -----------------  -----------------
         O           -1.247961305977    -0.652744884039     1.033168172601    15.994914619570
         O           -1.244835305977     2.482774115961    -0.685509827399    15.994914619570
         O           -3.216390305977     1.521022115961     0.745540172601    15.994914619570
         O           -2.356889305977    -3.066913884039     0.095593172601    15.994914619570
         O            1.360669694023     2.246957115961    -0.075888827399    15.994914619570
         N            0.843543694023     0.045146115961     0.256596172601    14.003074004430
         N            3.057365694023     0.720426115961    -0.293073827399    14.003074004430
         N            4.716602694023    -0.836731884039    -0.571644827399    14.003074004430
         C           -1.292797905977     1.079672915961    -0.604202327399    12.000000000000
         C           -2.715031305977     0.655130115961    -0.256739827399    12.000000000000
         C           -0.525268305977     0.481443115961     0.600747172601    12.000000000000
         C           -2.529116305977    -0.716962884039     0.361709172601    12.000000000000
         C           -2.528204305977    -1.850469884039    -0.638636827399    12.000000000000
         C            1.219914694023    -1.261484884039     0.311927172601    12.000000000000
         C            1.755733694023     1.067358115961    -0.058749827399    12.000000000000
         C            2.511240694023    -1.609216884039     0.047648172601    12.000000000000
         C            3.412122694023    -0.550729884039    -0.258271827399    12.000000000000
         H           -0.937466305977     0.591327115961    -1.514237827399     1.007825032230
         H           -3.355023005977     0.645420215961    -1.151202627399     1.007825032230
         H           -0.440150305977     1.221803115961     1.404651172601     1.007825032230
         H           -3.281817305977    -0.908810884039     1.131436172601     1.007825032230
         H           -1.713168305977    -1.700381884039    -1.368810827399     1.007825032230
         H           -3.485421305977    -1.834080884039    -1.183481827399     1.007825032230
         H           -0.297385305977     2.713102115961    -0.524346827399     1.007825032230
         H           -2.847416305977     2.399666115961     0.509316172601     1.007825032230
         H            0.434450694023    -1.963513884039     0.569721172601     1.007825032230
         H           -2.433734305977    -3.798508884039    -0.542579827399     1.007825032230
         H            2.829251694023    -2.645474884039     0.074575172601     1.007825032230
         H            5.125319694023    -1.670937884039    -0.161760827399     1.007825032230
         H            5.319953694023    -0.020130884039    -0.567640827399     1.007825032230

  Basis Set: AUG-CC-PVTZ
    Blend: AUG-CC-PVTZ
  Basis Set: (AUG-CC-PVTZ AUX)
    Blend: AUG-CC-PVTZ-JKFIT
	 Reference Energy          =    -886.3733750352653260 [Eh]
	 Singles Energy            =      -0.0000000000000000 [Eh]
	 Same-Spin Energy          =      -0.9012040134787346 [Eh]
	 Opposite-Spin Energy      =      -2.7148850698780649 [Eh]
	 Correlation Energy        =      -3.6160890833567993 [Eh]
	 Total Energy              =    -889.9894641186220952 [Eh]

	 ================> DF-SCS-MP2 Energies <==================
	-----------------------------------------------------------
	 SCS Same-Spin Scale       =       0.3333333333333333 [-]
	 SCS Opposite-Spin Scale   =       1.2000000000000000 [-]
	 SCS Same-Spin Energy      =      -0.3004013378262448 [Eh]
	 SCS Opposite-Spin Energy  =      -3.2578620838536776 [Eh]
	 SCS Correlation Energy    =      -3.5582634216799223 [Eh]
	 SCS Total Energy          =    -889.9316384569452794 [Eh]
	-----------------------------------------------------------

  Dipole Moment: [D]
     X:     1.7025      Y:    -5.9433      Z:    -1.8346     Total:     6.4488

*** Psi4 exiting successfully. Buy a developer a beer!
