                               Psi4 1.3.2 release

  ==> Input File <==

--------------------------------------------------------------------------
#psi4
#
memory 32 gb

molecule  {
0 1
  O       -1.2481010    -0.6526680     1.0325150
  O       -1.2449750     2.4828510    -0.6861630
  O       -3.2165300     1.5210990     0.7448870
  O       -2.3570290    -3.0668370     0.0949400
  O        1.3605300     2.2470340    -0.0765420
  N        0.8434040     0.0452230     0.2559430
  N        3.0572260     0.7205030    -0.2937270
  N        4.7164630    -0.8366550    -0.5722980
  C       -1.2894840     1.0784300    -0.5920770
  C       -2.7151710     0.6552070    -0.2573930
  C       -0.5254080     0.4815200     0.6000940
  C       -2.5292560    -0.7168860     0.3610560
  C       -2.5283440    -1.8503930    -0.6392900
  C        1.2197750    -1.2614080     0.3112740
  C        1.9459882     1.0166881    -0.0936784
  C        2.5111010    -1.6091400     0.0469950
  C        3.4119830    -0.5506530    -0.2589250
  H       -0.9376060     0.5914040    -1.5148910
  H       -3.3625820     0.6426650    -1.1464650
  H       -0.4402900     1.2218800     1.4039980
  H       -3.2819570    -0.9087340     1.1307830
  H       -1.7133080    -1.7003050    -1.3694640
  H       -3.4855610    -1.8340040    -1.1841350
  H       -0.2975250     2.7131790    -0.5250000
  H       -2.8475560     2.3997430     0.5086630
  H        0.4343110    -1.9634370     0.5690680
  H       -2.4338740    -3.7984320    -0.5432330
  H        2.8291120    -2.6453980     0.0739220
  H        5.1251800    -1.6708610    -0.1624140
  H        5.3198140    -0.0200540    -0.5682940
units angstrom
no_reorient  #important for SAPT in psi4, default
symmetry c1  #important for SAPT in psi4, default
}

set PROPERTIES_ORIGIN ["COM"]
properties('MP2/aug-cc-pvtz', properties = ['dipole'])
--------------------------------------------------------------------------

    Molecular point group: c1
  Charge       = 0
  Multiplicity = 1
  Basis Set: AUG-CC-PVTZ
    Blend: AUG-CC-PVTZ
  Basis Set: (AUG-CC-PVTZ AUX)
    Blend: AUG-CC-PVTZ-JKFIT

    Orbital Energies [Eh]
    ---------------------

    Doubly Occupied:

       1A    -20.580429     2A    -20.577114     3A    -20.551797
       4A    -20.545252     5A    -20.483502     6A    -15.634040
       7A    -15.619944     8A    -15.563338     9A    -11.386330
      10A    -11.377443    11A    -11.335635    12A    -11.334575
      13A    -11.298420    14A    -11.292810    15A    -11.288415
      16A    -11.286872    17A    -11.253680    18A     -1.421568
      19A     -1.392061    20A     -1.375052    21A     -1.367293
      22A     -1.339007    23A     -1.290959    24A     -1.250303
      25A     -1.229399    26A     -1.085487    27A     -1.062158
      28A     -1.015871    29A     -0.946185    30A     -0.906215
      31A     -0.889263    32A     -0.832059    33A     -0.808438
      34A     -0.779290    35A     -0.746269    36A     -0.727971
      37A     -0.725856    38A     -0.699295    39A     -0.693442
      40A     -0.692338    41A     -0.669343    42A     -0.654207
      43A     -0.645858    44A     -0.638930    45A     -0.629397
      46A     -0.615121    47A     -0.601709    48A     -0.578425
      49A     -0.570894    50A     -0.567410    51A     -0.548556
      52A     -0.540804    53A     -0.529427    54A     -0.524956
      55A     -0.495649    56A     -0.474033    57A     -0.468594
      58A     -0.458190    59A     -0.447589    60A     -0.444431
      61A     -0.437322    62A     -0.412224    63A     -0.400178
      64A     -0.348745

  @DF-RHF Final Energy:  -886.31003269492487

   => Energetics <=

    Nuclear Repulsion Energy =           1322.4615784260217879
    One-Electron Energy =               -3842.7684935021361525
    Two-Electron Energy =                1633.9968823811896073
    Total Energy =                       -886.3100326949247574
  Basis Set: (AUG-CC-PVTZ AUX)
    Blend: AUG-CC-PVTZ-RI
    Molecular point group: c1

    Geometry (in Angstrom), charge = 0, multiplicity = 1:

       Center              X                  Y                   Z               Mass
    ------------   -----------------  -----------------  -----------------  -----------------
         O           -1.257499908847    -0.650162851757     1.034207024344    15.994914619570
         O           -1.254373908847     2.485356148243    -0.684470975656    15.994914619570
         O           -3.225928908847     1.523604148243     0.746579024344    15.994914619570
         O           -2.366427908847    -3.064331851757     0.096632024344    15.994914619570
         O            1.351131091153     2.249539148243    -0.074849975656    15.994914619570
         N            0.834005091153     0.047728148243     0.257635024344    14.003074004430
         N            3.047827091153     0.723008148243    -0.292034975656    14.003074004430
         N            4.707064091153    -0.834149851757    -0.570605975656    14.003074004430
         C           -1.298882908847     1.080935148243    -0.590384975656    12.000000000000
         C           -2.724569908847     0.657712148243    -0.255700975656    12.000000000000
         C           -0.534806908847     0.484025148243     0.601786024344    12.000000000000
         C           -2.538654908847    -0.714380851757     0.362748024344    12.000000000000
         C           -2.537742908847    -1.847887851757    -0.637597975656    12.000000000000
         C            1.210376091153    -1.258902851757     0.312966024344    12.000000000000
         C            1.936589291153     1.019193248243    -0.091986375656    12.000000000000
         C            2.501702091153    -1.606634851757     0.048687024344    12.000000000000
         C            3.402584091153    -0.548147851757    -0.257232975656    12.000000000000
         H           -0.947004908847     0.593909148243    -1.513198975656     1.007825032230
         H           -3.371980908847     0.645170148243    -1.144772975656     1.007825032230
         H           -0.449688908847     1.224385148243     1.405690024344     1.007825032230
         H           -3.291355908847    -0.906228851757     1.132475024344     1.007825032230
         H           -1.722706908847    -1.697799851757    -1.367771975656     1.007825032230
         H           -3.494959908847    -1.831498851757    -1.182442975656     1.007825032230
         H           -0.306923908847     2.715684148243    -0.523307975656     1.007825032230
         H           -2.856954908847     2.402248148243     0.510355024344     1.007825032230
         H            0.424912091153    -1.960931851757     0.570760024344     1.007825032230
         H           -2.443272908847    -3.795926851757    -0.541540975656     1.007825032230
         H            2.819713091153    -2.642892851757     0.075614024344     1.007825032230
         H            5.115781091153    -1.668355851757    -0.160721975656     1.007825032230
         H            5.310415091153    -0.017548851757    -0.566601975656     1.007825032230

  Basis Set: AUG-CC-PVTZ
    Blend: AUG-CC-PVTZ
  Basis Set: (AUG-CC-PVTZ AUX)
    Blend: AUG-CC-PVTZ-JKFIT
	 Reference Energy          =    -886.3100326949248711 [Eh]
	 Singles Energy            =      -0.0000000000000000 [Eh]
	 Same-Spin Energy          =      -0.9034077866932209 [Eh]
	 Opposite-Spin Energy      =      -2.7177059513399908 [Eh]
	 Correlation Energy        =      -3.6211137380332117 [Eh]
	 Total Energy              =    -889.9311464329580303 [Eh]

	 ================> DF-SCS-MP2 Energies <==================
	-----------------------------------------------------------
	 SCS Same-Spin Scale       =       0.3333333333333333 [-]
	 SCS Opposite-Spin Scale   =       1.2000000000000000 [-]
	 SCS Same-Spin Energy      =      -0.3011359288977403 [Eh]
	 SCS Opposite-Spin Energy  =      -3.2612471416079889 [Eh]
	 SCS Correlation Energy    =      -3.5623830705057293 [Eh]
	 SCS Total Energy          =    -889.8724157654305600 [Eh]
	-----------------------------------------------------------

  Dipole Moment: [D]
     X:     3.0659      Y:    -6.9985      Z:    -1.9662     Total:     7.8896

*** Psi4 exiting successfully. Buy a developer a beer!
