                               Psi4 1.3.2 release

  ==> Input File <==

--------------------------------------------------------------------------
#psi4
#
memory 32 gb

molecule  {
0 1
  O       -1.2481010    -0.6526680     1.0325150
  O       -1.2449750     2.4828510    -0.6861630
  O       -3.2165300     1.5210990     0.7448870
  O       -2.3570290    -3.0668370     0.0949400
  O        1.3605300     2.2470340    -0.0765420
  N        0.8434040     0.0452230     0.2559430
  N        3.0572260     0.7205030    -0.2937270
  N        4.7164630    -0.8366550    -0.5722980
  C       -1.2894840     1.0784300    -0.5920770
  C       -2.7151710     0.6552070    -0.2573930
  C       -0.5765657     0.4012335     0.6307040
  C       -2.5292560    -0.7168860     0.3610560
  C       -2.5283440    -1.8503930    -0.6392900
  C        1.2197750    -1.2614080     0.3112740
  C        1.7555940     1.0674350    -0.0594030
  C        2.5111010    -1.6091400     0.0469950
  C        3.4119830    -0.5506530    -0.2589250
  H       -0.9376060     0.5914040    -1.5148910
  H       -3.3625820     0.6426650    -1.1464650
  H       -0.4402900     1.2218800     1.4039980
  H       -3.2819570    -0.9087340     1.1307830
  H       -1.7133080    -1.7003050    -1.3694640
  H       -3.4855610    -1.8340040    -1.1841350
  H       -0.2975250     2.7131790    -0.5250000
  H       -2.8475560     2.3997430     0.5086630
  H        0.4343110    -1.9634370     0.5690680
  H       -2.4338740    -3.7984320    -0.5432330
  H        2.8291120    -2.6453980     0.0739220
  H        5.1251800    -1.6708610    -0.1624140
  H        5.3198140    -0.0200540    -0.5682940
units angstrom
no_reorient  #important for SAPT in psi4, default
symmetry c1  #important for SAPT in psi4, default
}

set PROPERTIES_ORIGIN ["COM"]
properties('MP2/aug-cc-pvtz', properties = ['dipole'])
--------------------------------------------------------------------------

    Molecular point group: c1
  Charge       = 0
  Multiplicity = 1
  Basis Set: AUG-CC-PVTZ
    Blend: AUG-CC-PVTZ
  Basis Set: (AUG-CC-PVTZ AUX)
    Blend: AUG-CC-PVTZ-JKFIT

    Orbital Energies [Eh]
    ---------------------

    Doubly Occupied:

       1A    -20.592932     2A    -20.585841     3A    -20.558961
       4A    -20.557965     5A    -20.517898     6A    -15.631279
       7A    -15.597473     8A    -15.551092     9A    -11.385561
      10A    -11.354955    11A    -11.343522    12A    -11.324704
      13A    -11.305858    14A    -11.304575    15A    -11.296251
      16A    -11.294011    17A    -11.245324    18A     -1.463259
      19A     -1.395314    20A     -1.381788    21A     -1.379322
      22A     -1.346489    23A     -1.302796    24A     -1.269010
      25A     -1.178815    26A     -1.079271    27A     -1.074438
      28A     -1.019428    29A     -0.932803    30A     -0.908050
      31A     -0.875685    32A     -0.831088    33A     -0.819360
      34A     -0.765788    35A     -0.752980    36A     -0.736198
      37A     -0.720530    38A     -0.706315    39A     -0.700896
      40A     -0.690558    41A     -0.674893    42A     -0.658871
      43A     -0.650662    44A     -0.637553    45A     -0.622580
      46A     -0.617580    47A     -0.609931    48A     -0.588780
      49A     -0.582772    50A     -0.573706    51A     -0.556840
      52A     -0.545655    53A     -0.536593    54A     -0.529915
      55A     -0.495943    56A     -0.480795    57A     -0.476384
      58A     -0.465201    59A     -0.457001    60A     -0.454921
      61A     -0.433751    62A     -0.428957    63A     -0.390902
      64A     -0.345082

  @DF-RHF Final Energy:  -886.36451005774677

   => Energetics <=

    Nuclear Repulsion Energy =           1324.1811292352224427
    One-Electron Energy =               -3845.9039795276748919
    Two-Electron Energy =                1635.3583402347060201
    Total Energy =                       -886.3645100577466565
  Basis Set: (AUG-CC-PVTZ AUX)
    Blend: AUG-CC-PVTZ-RI
    Molecular point group: c1

    Geometry (in Angstrom), charge = 0, multiplicity = 1:

       Center              X                  Y                   Z               Mass
    ------------   -----------------  -----------------  -----------------  -----------------
         O           -1.245575616550    -0.648704619283     1.031003934344    15.994914619570
         O           -1.242449616550     2.486814380717    -0.687674065656    15.994914619570
         O           -3.214004616550     1.525062380717     0.743375934344    15.994914619570
         O           -2.354503616550    -3.062873619283     0.093428934344    15.994914619570
         O            1.363055383450     2.250997380717    -0.078053065656    15.994914619570
         N            0.845929383450     0.049186380717     0.254431934344    14.003074004430
         N            3.059751383450     0.724466380717    -0.295238065656    14.003074004430
         N            4.718988383450    -0.832691619283    -0.573809065656    14.003074004430
         C           -1.286958616550     1.082393380717    -0.593588065656    12.000000000000
         C           -2.712645616550     0.659170380717    -0.258904065656    12.000000000000
         C           -0.574040316550     0.405196880717     0.629192934344    12.000000000000
         C           -2.526730616550    -0.712922619283     0.359544934344    12.000000000000
         C           -2.525818616550    -1.846429619283    -0.640801065656    12.000000000000
         C            1.222300383450    -1.257444619283     0.309762934344    12.000000000000
         C            1.758119383450     1.071398380717    -0.060914065656    12.000000000000
         C            2.513626383450    -1.605176619283     0.045483934344    12.000000000000
         C            3.414508383450    -0.546689619283    -0.260436065656    12.000000000000
         H           -0.935080616550     0.595367380717    -1.516402065656     1.007825032230
         H           -3.360056616550     0.646628380717    -1.147976065656     1.007825032230
         H           -0.437764616550     1.225843380717     1.402486934344     1.007825032230
         H           -3.279431616550    -0.904770619283     1.129271934344     1.007825032230
         H           -1.710782616550    -1.696341619283    -1.370975065656     1.007825032230
         H           -3.483035616550    -1.830040619283    -1.185646065656     1.007825032230
         H           -0.294999616550     2.717142380717    -0.526511065656     1.007825032230
         H           -2.845030616550     2.403706380717     0.507151934344     1.007825032230
         H            0.436836383450    -1.959473619283     0.567556934344     1.007825032230
         H           -2.431348616550    -3.794468619283    -0.544744065656     1.007825032230
         H            2.831637383450    -2.641434619283     0.072410934344     1.007825032230
         H            5.127705383450    -1.666897619283    -0.163925065656     1.007825032230
         H            5.322339383450    -0.016090619283    -0.569805065656     1.007825032230

  Basis Set: AUG-CC-PVTZ
    Blend: AUG-CC-PVTZ
  Basis Set: (AUG-CC-PVTZ AUX)
    Blend: AUG-CC-PVTZ-JKFIT
	 Reference Energy          =    -886.3645100577467701 [Eh]
	 Singles Energy            =      -0.0000000000000000 [Eh]
	 Same-Spin Energy          =      -0.9018467628973217 [Eh]
	 Opposite-Spin Energy      =      -2.7146328473475680 [Eh]
	 Correlation Energy        =      -3.6164796102448897 [Eh]
	 Total Energy              =    -889.9809896679917074 [Eh]

	 ================> DF-SCS-MP2 Energies <==================
	-----------------------------------------------------------
	 SCS Same-Spin Scale       =       0.3333333333333333 [-]
	 SCS Opposite-Spin Scale   =       1.2000000000000000 [-]
	 SCS Same-Spin Energy      =      -0.3006155876324406 [Eh]
	 SCS Opposite-Spin Energy  =      -3.2575594168170814 [Eh]
	 SCS Correlation Energy    =      -3.5581750044495219 [Eh]
	 SCS Total Energy          =    -889.9226850621962512 [Eh]
	-----------------------------------------------------------

  Dipole Moment: [D]
     X:     1.2026      Y:    -6.1873      Z:    -1.7689     Total:     6.5466

*** Psi4 exiting successfully. Buy a developer a beer!
