                               Psi4 1.3.2 release

  ==> Input File <==

--------------------------------------------------------------------------
#psi4
#
memory 32 gb

molecule  {
0 1
  O       -1.2481010    -0.6526680     1.0325150
  O       -1.2449750     2.4828510    -0.6861630
  O       -3.2165300     1.5210990     0.7448870
  O       -2.3570290    -3.0668370     0.0949400
  O        1.3605300     2.2470340    -0.0765420
  N        0.8434040     0.0452230     0.2559430
  N        3.0572260     0.7205030    -0.2937270
  N        4.7164630    -0.8366550    -0.5722980
  C       -1.2894840     1.0784300    -0.5920770
  C       -2.7151710     0.6552070    -0.2573930
  C       -0.5254080     0.4815200     0.6000940
  C       -2.5761396    -0.7465414     0.3042603
  C       -2.5283440    -1.8503930    -0.6392900
  C        1.2197750    -1.2614080     0.3112740
  C        1.7555940     1.0674350    -0.0594030
  C        2.5111010    -1.6091400     0.0469950
  C        3.4119830    -0.5506530    -0.2589250
  H       -0.9376060     0.5914040    -1.5148910
  H       -3.3684413     0.5858018    -1.1395314
  H       -0.4402900     1.2218800     1.4039980
  H       -3.2819570    -0.9087340     1.1307830
  H       -1.7133080    -1.7003050    -1.3694640
  H       -3.4855610    -1.8340040    -1.1841350
  H       -0.2975250     2.7131790    -0.5250000
  H       -2.8475560     2.3997430     0.5086630
  H        0.4343110    -1.9634370     0.5690680
  H       -2.4338740    -3.7984320    -0.5432330
  H        2.8291120    -2.6453980     0.0739220
  H        5.1251800    -1.6708610    -0.1624140
  H        5.3198140    -0.0200540    -0.5682940
units angstrom
no_reorient  #important for SAPT in psi4, default
symmetry c1  #important for SAPT in psi4, default
}

set PROPERTIES_ORIGIN ["COM"]
properties('MP2/aug-cc-pvtz', properties = ['dipole'])
--------------------------------------------------------------------------

    Molecular point group: c1
  Charge       = 0
  Multiplicity = 1
  Basis Set: AUG-CC-PVTZ
    Blend: AUG-CC-PVTZ
  Basis Set: (AUG-CC-PVTZ AUX)
    Blend: AUG-CC-PVTZ-JKFIT

    Orbital Energies [Eh]
    ---------------------

    Doubly Occupied:

       1A    -20.585803     2A    -20.572771     3A    -20.560763
       4A    -20.556809     5A    -20.520493     6A    -15.634541
       7A    -15.598715     8A    -15.551900     9A    -11.386530
      10A    -11.356448    11A    -11.337337    12A    -11.326642
      13A    -11.303778    14A    -11.299876    15A    -11.297162
      16A    -11.296370    17A    -11.246956    18A     -1.418323
      19A     -1.392342    20A     -1.381726    21A     -1.369220
      22A     -1.346825    23A     -1.303890    24A     -1.270583
      25A     -1.180561    26A     -1.081796    27A     -1.076983
      28A     -1.021518    29A     -0.938908    30A     -0.906936
      31A     -0.877658    32A     -0.830688    33A     -0.808398
      34A     -0.765685    35A     -0.749070    36A     -0.736166
      37A     -0.718783    38A     -0.706603    39A     -0.698074
      40A     -0.683861    41A     -0.674487    42A     -0.655276
      43A     -0.648827    44A     -0.634848    45A     -0.619214
      46A     -0.614256    47A     -0.604170    48A     -0.593313
      49A     -0.576660    50A     -0.562789    51A     -0.553083
      52A     -0.549129    53A     -0.534282    54A     -0.530734
      55A     -0.497613    56A     -0.480321    57A     -0.475758
      58A     -0.465413    59A     -0.458859    60A     -0.450466
      61A     -0.441171    62A     -0.431785    63A     -0.393935
      64A     -0.348459

  @DF-RHF Final Energy:  -886.36492304206547

   => Energetics <=

    Nuclear Repulsion Energy =           1322.8436517120951521
    One-Electron Energy =               -3843.4324730907096637
    Two-Electron Energy =                1634.2238983365491549
    Total Energy =                       -886.3649230420655840
  Basis Set: (AUG-CC-PVTZ AUX)
    Blend: AUG-CC-PVTZ-RI
    Molecular point group: c1

    Geometry (in Angstrom), charge = 0, multiplicity = 1:

       Center              X                  Y                   Z               Mass
    ------------   -----------------  -----------------  -----------------  -----------------
         O           -1.245762316484    -0.650968287816     1.035290000178    15.994914619570
         O           -1.242636316484     2.484550712184    -0.683387999822    15.994914619570
         O           -3.214191316484     1.522798712184     0.747662000178    15.994914619570
         O           -2.354690316484    -3.065137287816     0.097715000178    15.994914619570
         O            1.362868683516     2.248733712184    -0.073766999822    15.994914619570
         N            0.845742683516     0.046922712184     0.258718000178    14.003074004430
         N            3.059564683516     0.722202712184    -0.290951999822    14.003074004430
         N            4.718801683516    -0.834955287816    -0.569522999822    14.003074004430
         C           -1.287145316484     1.080129712184    -0.589301999822    12.000000000000
         C           -2.712832316484     0.656906712184    -0.254617999822    12.000000000000
         C           -0.523069316484     0.483219712184     0.602869000178    12.000000000000
         C           -2.573800916484    -0.744841687816     0.307035300178    12.000000000000
         C           -2.526005316484    -1.848693287816    -0.636514999822    12.000000000000
         C            1.222113683516    -1.259708287816     0.314049000178    12.000000000000
         C            1.757932683516     1.069134712184    -0.056627999822    12.000000000000
         C            2.513439683516    -1.607440287816     0.049770000178    12.000000000000
         C            3.414321683516    -0.548953287816    -0.256149999822    12.000000000000
         H           -0.935267316484     0.593103712184    -1.512115999822     1.007825032230
         H           -3.366102616484     0.587501512184    -1.136756399822     1.007825032230
         H           -0.437951316484     1.223579712184     1.406773000178     1.007825032230
         H           -3.279618316484    -0.907034287816     1.133558000178     1.007825032230
         H           -1.710969316484    -1.698605287816    -1.366688999822     1.007825032230
         H           -3.483222316484    -1.832304287816    -1.181359999822     1.007825032230
         H           -0.295186316484     2.714878712184    -0.522224999822     1.007825032230
         H           -2.845217316484     2.401442712184     0.511438000178     1.007825032230
         H            0.436649683516    -1.961737287816     0.571843000178     1.007825032230
         H           -2.431535316484    -3.796732287816    -0.540457999822     1.007825032230
         H            2.831450683516    -2.643698287816     0.076697000178     1.007825032230
         H            5.127518683516    -1.669161287816    -0.159638999822     1.007825032230
         H            5.322152683516    -0.018354287816    -0.565518999822     1.007825032230

  Basis Set: AUG-CC-PVTZ
    Blend: AUG-CC-PVTZ
  Basis Set: (AUG-CC-PVTZ AUX)
    Blend: AUG-CC-PVTZ-JKFIT
	 Reference Energy          =    -886.3649230420654703 [Eh]
	 Singles Energy            =      -0.0000000000000000 [Eh]
	 Same-Spin Energy          =      -0.9021099442597293 [Eh]
	 Opposite-Spin Energy      =      -2.7165823561421285 [Eh]
	 Correlation Energy        =      -3.6186923004018579 [Eh]
	 Total Energy              =    -889.9836153424673739 [Eh]

	 ================> DF-SCS-MP2 Energies <==================
	-----------------------------------------------------------
	 SCS Same-Spin Scale       =       0.3333333333333333 [-]
	 SCS Opposite-Spin Scale   =       1.2000000000000000 [-]
	 SCS Same-Spin Energy      =      -0.3007033147532431 [Eh]
	 SCS Opposite-Spin Energy  =      -3.2598988273705540 [Eh]
	 SCS Correlation Energy    =      -3.5606021421237970 [Eh]
	 SCS Total Energy          =    -889.9255251841892687 [Eh]
	-----------------------------------------------------------

  Dipole Moment: [D]
     X:     1.4491      Y:    -6.0672      Z:    -1.9220     Total:     6.5273

*** Psi4 exiting successfully. Buy a developer a beer!
