                               Psi4 1.4a3.dev225

  ==> Input File <==

--------------------------------------------------------------------------
#psi4
#
memory 32 gb

molecule  {
0 1
  O       -1.3191770     0.6538360    -1.0992360
  O       -1.5735610    -2.4640850     0.5135810
  O       -3.5606630    -1.0699430    -0.4600060
  O       -1.4399290     3.1254620     0.1265180
  O        1.1065530    -2.3833650     0.0076020
  N        0.7686360    -0.1579440    -0.3706350
  N        2.9363770    -0.9938720     0.1460080
  N        4.7058880     0.4431110     0.3611260
  C       -1.3768610    -1.0680440     0.5552780
  C       -2.7379840    -0.3746360     0.4578480
  C       -0.6616657    -0.5225362    -0.6390749
  C       -2.3707440     0.9655450    -0.1585060
  C       -1.8992030     1.9895750     0.8571380
  C        1.2309690     1.1190800    -0.4442230
  C        1.6104480    -1.2470590    -0.0585760
  C        2.5474650     1.3753690    -0.1998620
  C        3.3802090     0.2523040     0.0808410
  H       -0.8441360    -0.7686950     1.4698480
  H       -3.2257400    -0.2778790     1.4400230
  H       -0.6227070    -1.2428120    -1.4883720
  H       -3.1941750     1.3785730    -0.7472070
  H       -1.0952130     1.5703990     1.4802000
  H       -2.7410530     2.2466610     1.5166010
  H       -0.6710550    -2.8260740     0.3542250
  H       -3.3063470    -2.0105220    -0.3629290
  H        0.4929290     1.8778260    -0.6840360
  H       -1.2098800     3.8154810     0.7720340
  H        2.9334840     2.3875570    -0.2389120
  H        5.1589650     1.2712730    -0.0008400
  H        5.2635310    -0.4031270     0.3606700
units angstrom
no_reorient  #important for SAPT in psi4, default
symmetry c1  #important for SAPT in psi4, default
}

set PROPERTIES_ORIGIN ["COM"]
properties('MP2/aug-cc-pvtz', properties = ['dipole'])
--------------------------------------------------------------------------

    Molecular point group: c1
  Charge       = 0
  Multiplicity = 1
  Basis Set: AUG-CC-PVTZ
    Blend: AUG-CC-PVTZ
  Basis Set: (AUG-CC-PVTZ AUX)
    Blend: AUG-CC-PVTZ-JKFIT

    Orbital Energies [Eh]
    ---------------------

    Doubly Occupied:

       1A    -20.586739     2A    -20.581996     3A    -20.560802
       4A    -20.557611     5A    -20.519127     6A    -15.632101
       7A    -15.599101     8A    -15.550949     9A    -11.384879
      10A    -11.357385    11A    -11.341726    12A    -11.324585
      13A    -11.303619    14A    -11.297377    15A    -11.296872
      16A    -11.295094    17A    -11.245866    18A     -1.427474
      19A     -1.393242    20A     -1.383711    21A     -1.375311
      22A     -1.348066    23A     -1.302633    24A     -1.268935
      25A     -1.180063    26A     -1.079541    27A     -1.069102
      28A     -1.023631    29A     -0.935735    30A     -0.905355
      31A     -0.876578    32A     -0.828604    33A     -0.814750
      34A     -0.764866    35A     -0.750533    36A     -0.735903
      37A     -0.722243    38A     -0.708591    39A     -0.704065
      40A     -0.684028    41A     -0.673465    42A     -0.651970
      43A     -0.647951    44A     -0.634213    45A     -0.619378
      46A     -0.614681    47A     -0.607493    48A     -0.593087
      49A     -0.576733    50A     -0.563325    51A     -0.556257
      52A     -0.547713    53A     -0.539075    54A     -0.529464
      55A     -0.495122    56A     -0.481068    57A     -0.476260
      58A     -0.463187    59A     -0.457823    60A     -0.456709
      61A     -0.444700    62A     -0.428876    63A     -0.392262
      64A     -0.348087

  @DF-RHF Final Energy:  -886.37049912105374

   => Energetics <=

    Nuclear Repulsion Energy =           1334.9051197683013470
    One-Electron Energy =               -3867.5158589369893889
    Two-Electron Energy =                1646.2402400476344155
    Total Energy =                       -886.3704991210538537
  Basis Set: (AUG-CC-PVTZ AUX)
    Blend: AUG-CC-PVTZ-RI
    Molecular point group: c1

    Geometry (in Angstrom), charge = 0, multiplicity = 1:

       Center              X                  Y                   Z               Mass
    ------------   -----------------  -----------------  -----------------  -----------------
         O           -1.330739998707     0.683347999200    -1.085427445813    15.994914619570
         O           -1.585123998707    -2.434573000800     0.527389554187    15.994914619570
         O           -3.572225998707    -1.040431000800    -0.446197445813    15.994914619570
         O           -1.451491998707     3.154973999200     0.140326554187    15.994914619570
         O            1.094990001293    -2.353853000800     0.021410554187    15.994914619570
         N            0.757073001293    -0.128432000800    -0.356826445813    14.003074004430
         N            2.924814001293    -0.964360000800     0.159816554187    14.003074004430
         N            4.694325001293     0.472622999200     0.374934554187    14.003074004430
         C           -1.388423998707    -1.038532000800     0.569086554187    12.000000000000
         C           -2.749546998707    -0.345124000800     0.471656554187    12.000000000000
         C           -0.673228698707    -0.493024200800    -0.625266345813    12.000000000000
         C           -2.382306998707     0.995056999200    -0.144697445813    12.000000000000
         C           -1.910765998707     2.019086999200     0.870946554187    12.000000000000
         C            1.219406001293     1.148591999200    -0.430414445813    12.000000000000
         C            1.598885001293    -1.217547000800    -0.044767445813    12.000000000000
         C            2.535902001293     1.404880999200    -0.186053445813    12.000000000000
         C            3.368646001293     0.281815999200     0.094649554187    12.000000000000
         H           -0.855698998707    -0.739183000800     1.483656554187     1.007825032230
         H           -3.237302998707    -0.248367000800     1.453831554187     1.007825032230
         H           -0.634269998707    -1.213300000800    -1.474563445813     1.007825032230
         H           -3.205737998707     1.408084999200    -0.733398445813     1.007825032230
         H           -1.106775998707     1.599910999200     1.494008554187     1.007825032230
         H           -2.752615998707     2.276172999200     1.530409554187     1.007825032230
         H           -0.682617998707    -2.796562000800     0.368033554187     1.007825032230
         H           -3.317909998707    -1.981010000800    -0.349120445813     1.007825032230
         H            0.481366001293     1.907337999200    -0.670227445813     1.007825032230
         H           -1.221442998707     3.844992999200     0.785842554187     1.007825032230
         H            2.921921001293     2.417068999200    -0.225103445813     1.007825032230
         H            5.147402001293     1.300784999200     0.012968554187     1.007825032230
         H            5.251968001293    -0.373615000800     0.374478554187     1.007825032230

  Basis Set: AUG-CC-PVTZ
    Blend: AUG-CC-PVTZ
  Basis Set: (AUG-CC-PVTZ AUX)
    Blend: AUG-CC-PVTZ-JKFIT
	 Reference Energy          =    -886.3704991210537401 [Eh]
	 Singles Energy            =      -0.0000000000000000 [Eh]
	 Same-Spin Energy          =      -0.9022520153806048 [Eh]
	 Opposite-Spin Energy      =      -2.7167660236025162 [Eh]
	 Correlation Energy        =      -3.6190180389831212 [Eh]
	 Total Energy              =    -889.9895171600368258 [Eh]

	 ================> DF-SCS-MP2 Energies <==================
	-----------------------------------------------------------
	 SCS Same-Spin Scale       =       0.3333333333333333 [-]
	 SCS Opposite-Spin Scale   =       1.2000000000000000 [-]
	 SCS Same-Spin Energy      =      -0.3007506717935349 [Eh]
	 SCS Opposite-Spin Energy  =      -3.2601192283230191 [Eh]
	 SCS Correlation Energy    =      -3.5608699001165540 [Eh]
	 SCS Total Energy          =    -889.9313690211703261 [Eh]
	-----------------------------------------------------------

  Dipole Moment: [D]
     X:     2.6532      Y:     5.7663      Z:     1.9876     Total:     6.6513

*** Psi4 exiting successfully. Buy a developer a beer!
