                               Psi4 1.3.2 release

  ==> Input File <==

--------------------------------------------------------------------------
#psi4
#
memory 32 gb

molecule  {
0 1
  O       -1.2481010    -0.6526680     1.0325150
  O       -1.2449750     2.4828510    -0.6861630
  O       -3.2165300     1.5210990     0.7448870
  O       -2.3570290    -3.0668370     0.0949400
  O        1.3605300     2.2470340    -0.0765420
  N        0.8434040     0.0452230     0.2559430
  N        3.0572260     0.7205030    -0.2937270
  N        4.7164630    -0.8366550    -0.5722980
  C       -1.2894840     1.0784300    -0.5920770
  C       -2.7151710     0.6552070    -0.2573930
  C       -0.5254080     0.4815200     0.6000940
  C       -2.5292560    -0.7168860     0.3610560
  C       -2.5283440    -1.8503930    -0.6392900
  C        1.2197750    -1.2614080     0.3112740
  C        1.7555940     1.0674350    -0.0594030
  C        2.5111010    -1.6091400     0.0469950
  C        3.4119830    -0.5506530    -0.2589250
  H       -0.9376060     0.5914040    -1.5148910
  H       -3.3625820     0.6426650    -1.1464650
  H       -0.4402900     1.2218800     1.4039980
  H       -3.2819570    -0.9087340     1.1307830
  H       -1.5657260    -1.6731279    -1.5016796
  H       -3.4855610    -1.8340040    -1.1841350
  H       -0.2975250     2.7131790    -0.5250000
  H       -2.8475560     2.3997430     0.5086630
  H        0.4343110    -1.9634370     0.5690680
  H       -2.4338740    -3.7984320    -0.5432330
  H        2.8291120    -2.6453980     0.0739220
  H        5.1251800    -1.6708610    -0.1624140
  H        5.3198140    -0.0200540    -0.5682940
units angstrom
no_reorient  #important for SAPT in psi4, default
symmetry c1  #important for SAPT in psi4, default
}

set PROPERTIES_ORIGIN ["COM"]
properties('MP2/aug-cc-pvtz', properties = ['dipole'])
--------------------------------------------------------------------------

    Molecular point group: c1
  Charge       = 0
  Multiplicity = 1
  Basis Set: AUG-CC-PVTZ
    Blend: AUG-CC-PVTZ
  Basis Set: (AUG-CC-PVTZ AUX)
    Blend: AUG-CC-PVTZ-JKFIT

    Orbital Energies [Eh]
    ---------------------

    Doubly Occupied:

       1A    -20.587860     2A    -20.581933     3A    -20.558120
       4A    -20.556550     5A    -20.521504     6A    -15.636390
       7A    -15.599428     8A    -15.552836     9A    -11.387774
      10A    -11.357361    11A    -11.341267    12A    -11.327946
      13A    -11.324685    14A    -11.300048    15A    -11.295687
      16A    -11.293371    17A    -11.247949    18A     -1.429428
      19A     -1.396252    20A     -1.381449    21A     -1.375059
      22A     -1.346201    23A     -1.305583    24A     -1.273343
      25A     -1.181788    26A     -1.081427    27A     -1.066689
      28A     -1.020492    29A     -0.931138    30A     -0.907398
      31A     -0.874698    32A     -0.831314    33A     -0.808947
      34A     -0.765814    35A     -0.751431    36A     -0.734527
      37A     -0.718906    38A     -0.705422    39A     -0.699186
      40A     -0.684051    41A     -0.668839    42A     -0.652105
      43A     -0.646268    44A     -0.637955    45A     -0.617825
      46A     -0.615207    47A     -0.605337    48A     -0.593568
      49A     -0.576254    50A     -0.569224    51A     -0.553367
      52A     -0.545708    53A     -0.537334    54A     -0.530345
      55A     -0.497606    56A     -0.475244    57A     -0.471352
      58A     -0.461412    59A     -0.458566    60A     -0.448221
      61A     -0.440419    62A     -0.432892    63A     -0.394752
      64A     -0.349485

  @DF-RHF Final Energy:  -886.35276817975341

   => Energetics <=

    Nuclear Repulsion Energy =           1322.9933765954524461
    One-Electron Energy =               -3843.6512165956405624
    Two-Electron Energy =                1634.3050718204347049
    Total Energy =                       -886.3527681797534115
  Basis Set: (AUG-CC-PVTZ AUX)
    Blend: AUG-CC-PVTZ-RI
    Molecular point group: c1

    Geometry (in Angstrom), charge = 0, multiplicity = 1:

       Center              X                  Y                   Z               Mass
    ------------   -----------------  -----------------  -----------------  -----------------
         O           -1.248712904333    -0.652780665275     1.033063169259    15.994914619570
         O           -1.245586904333     2.482738334725    -0.685614830741    15.994914619570
         O           -3.217141904333     1.520986334725     0.745435169259    15.994914619570
         O           -2.357640904333    -3.066949665275     0.095488169259    15.994914619570
         O            1.359918095667     2.246921334725    -0.075993830741    15.994914619570
         N            0.842792095667     0.045110334725     0.256491169259    14.003074004430
         N            3.056614095667     0.720390334725    -0.293178830741    14.003074004430
         N            4.715851095667    -0.836767665275    -0.571749830741    14.003074004430
         C           -1.290095904333     1.078317334725    -0.591528830741    12.000000000000
         C           -2.715782904333     0.655094334725    -0.256844830741    12.000000000000
         C           -0.526019904333     0.481407334725     0.600642169259    12.000000000000
         C           -2.529867904333    -0.716998665275     0.361604169259    12.000000000000
         C           -2.528955904333    -1.850505665275    -0.638741830741    12.000000000000
         C            1.219163095667    -1.261520665275     0.311822169259    12.000000000000
         C            1.754982095667     1.067322334725    -0.058854830741    12.000000000000
         C            2.510489095667    -1.609252665275     0.047543169259    12.000000000000
         C            3.411371095667    -0.550765665275    -0.258376830741    12.000000000000
         H           -0.938217904333     0.591291334725    -1.514342830741     1.007825032230
         H           -3.363193904333     0.642552334725    -1.145916830741     1.007825032230
         H           -0.440901904333     1.221767334725     1.404546169259     1.007825032230
         H           -3.282568904333    -0.908846665275     1.131331169259     1.007825032230
         H           -1.566337904333    -1.673240565275    -1.501131430741     1.007825032230
         H           -3.486172904333    -1.834116665275    -1.183586830741     1.007825032230
         H           -0.298136904333     2.713066334725    -0.524451830741     1.007825032230
         H           -2.848167904333     2.399630334725     0.509211169259     1.007825032230
         H            0.433699095667    -1.963549665275     0.569616169259     1.007825032230
         H           -2.434485904333    -3.798544665275    -0.542684830741     1.007825032230
         H            2.828500095667    -2.645510665275     0.074470169259     1.007825032230
         H            5.124568095667    -1.670973665275    -0.161865830741     1.007825032230
         H            5.319202095667    -0.020166665275    -0.567745830741     1.007825032230

  Basis Set: AUG-CC-PVTZ
    Blend: AUG-CC-PVTZ
  Basis Set: (AUG-CC-PVTZ AUX)
    Blend: AUG-CC-PVTZ-JKFIT
	 Reference Energy          =    -886.3527681797534115 [Eh]
	 Singles Energy            =      -0.0000000000000000 [Eh]
	 Same-Spin Energy          =      -0.9016664381673103 [Eh]
	 Opposite-Spin Energy      =      -2.7169873680448209 [Eh]
	 Correlation Energy        =      -3.6186538062121310 [Eh]
	 Total Energy              =    -889.9714219859655486 [Eh]

	 ================> DF-SCS-MP2 Energies <==================
	-----------------------------------------------------------
	 SCS Same-Spin Scale       =       0.3333333333333333 [-]
	 SCS Opposite-Spin Scale   =       1.2000000000000000 [-]
	 SCS Same-Spin Energy      =      -0.3005554793891034 [Eh]
	 SCS Opposite-Spin Energy  =      -3.2603848416537851 [Eh]
	 SCS Correlation Energy    =      -3.5609403210428887 [Eh]
	 SCS Total Energy          =    -889.9137085007962469 [Eh]
	-----------------------------------------------------------

  Dipole Moment: [D]
     X:     1.5867      Y:    -6.0347      Z:    -1.6852     Total:     6.4634

*** Psi4 exiting successfully. Buy a developer a beer!
