                               Psi4 1.3.2 release

  ==> Input File <==

--------------------------------------------------------------------------
#psi4
#
memory 32 gb

molecule  {
0 1
  O       -1.2481010    -0.6526680     1.0325150
  O       -1.2449750     2.4828510    -0.6861630
  O       -3.2165300     1.5210990     0.7448870
  O       -2.3570290    -3.0668370     0.0949400
  O        1.3605300     2.2470340    -0.0765420
  N        0.8434040     0.0452230     0.2559430
  N        3.0572260     0.7205030    -0.2937270
  N        4.7164630    -0.8366550    -0.5722980
  C       -1.2894840     1.0784300    -0.5920770
  C       -2.7151710     0.6552070    -0.2573930
  C       -0.5254080     0.4815200     0.6000940
  C       -2.5292560    -0.7168860     0.3610560
  C       -2.5283440    -1.8503930    -0.6392900
  C        1.2197750    -1.2614080     0.3112740
  C        1.6258246     0.9220137    -0.0145414
  C        2.5111010    -1.6091400     0.0469950
  C        3.4119830    -0.5506530    -0.2589250
  H       -0.9376060     0.5914040    -1.5148910
  H       -3.3625820     0.6426650    -1.1464650
  H       -0.4402900     1.2218800     1.4039980
  H       -3.2819570    -0.9087340     1.1307830
  H       -1.7133080    -1.7003050    -1.3694640
  H       -3.4855610    -1.8340040    -1.1841350
  H       -0.2975250     2.7131790    -0.5250000
  H       -2.8475560     2.3997430     0.5086630
  H        0.4343110    -1.9634370     0.5690680
  H       -2.4338740    -3.7984320    -0.5432330
  H        2.8291120    -2.6453980     0.0739220
  H        5.1251800    -1.6708610    -0.1624140
  H        5.3198140    -0.0200540    -0.5682940
units angstrom
no_reorient  #important for SAPT in psi4, default
symmetry c1  #important for SAPT in psi4, default
}

set PROPERTIES_ORIGIN ["COM"]
properties('MP2/aug-cc-pvtz', properties = ['dipole'])
--------------------------------------------------------------------------

    Molecular point group: c1
  Charge       = 0
  Multiplicity = 1
  Basis Set: AUG-CC-PVTZ
    Blend: AUG-CC-PVTZ
  Basis Set: (AUG-CC-PVTZ AUX)
    Blend: AUG-CC-PVTZ-JKFIT

    Orbital Energies [Eh]
    ---------------------

    Doubly Occupied:

       1A    -20.588991     2A    -20.585983     3A    -20.560005
       4A    -20.553223     5A    -20.495368     6A    -15.655586
       7A    -15.597303     8A    -15.564584     9A    -11.375709
      10A    -11.352428    11A    -11.349419    12A    -11.335104
      13A    -11.305249    14A    -11.301608    15A    -11.301495
      16A    -11.296534    17A    -11.268809    18A     -1.447050
      19A     -1.405043    20A     -1.382032    21A     -1.374461
      22A     -1.346438    23A     -1.286780    24A     -1.266797
      25A     -1.167686    26A     -1.095356    27A     -1.072946
      28A     -1.038702    29A     -0.955227    30A     -0.942967
      31A     -0.871049    32A     -0.831688    33A     -0.816689
      34A     -0.773294    35A     -0.764283    36A     -0.742648
      37A     -0.718060    38A     -0.707596    39A     -0.701860
      40A     -0.684577    41A     -0.678488    42A     -0.666390
      43A     -0.651478    44A     -0.645761    45A     -0.626315
      46A     -0.618689    47A     -0.610704    48A     -0.580155
      49A     -0.573881    50A     -0.561230    51A     -0.556504
      52A     -0.542475    53A     -0.535858    54A     -0.532973
      55A     -0.482633    56A     -0.478999    57A     -0.468407
      58A     -0.463113    59A     -0.453802    60A     -0.449771
      61A     -0.447451    62A     -0.418570    63A     -0.394594
      64A     -0.357219

  @DF-RHF Final Energy:  -886.31069247199764

   => Energetics <=

    Nuclear Repulsion Energy =           1326.5468365188014559
    One-Electron Energy =               -3850.3628871975465700
    Two-Electron Energy =                1637.5053582067475872
    Total Energy =                       -886.3106924719977542
  Basis Set: (AUG-CC-PVTZ AUX)
    Blend: AUG-CC-PVTZ-RI
    Molecular point group: c1

    Geometry (in Angstrom), charge = 0, multiplicity = 1:

       Center              X                  Y                   Z               Mass
    ------------   -----------------  -----------------  -----------------  -----------------
         O           -1.241694923047    -0.645489217567     1.030300399227    15.994914619570
         O           -1.238568923047     2.490029782433    -0.688377600773    15.994914619570
         O           -3.210123923047     1.528277782433     0.742672399227    15.994914619570
         O           -2.350622923047    -3.059658217567     0.092725399227    15.994914619570
         O            1.366936076953     2.254212782433    -0.078756600773    15.994914619570
         N            0.849810076953     0.052401782433     0.253728399227    14.003074004430
         N            3.063632076953     0.727681782433    -0.295941600773    14.003074004430
         N            4.722869076953    -0.829476217567    -0.574512600773    14.003074004430
         C           -1.283077923047     1.085608782433    -0.594291600773    12.000000000000
         C           -2.708764923047     0.662385782433    -0.259607600773    12.000000000000
         C           -0.519001923047     0.488698782433     0.597879399227    12.000000000000
         C           -2.522849923047    -0.709707217567     0.358841399227    12.000000000000
         C           -2.521937923047    -1.843214217567    -0.641504600773    12.000000000000
         C            1.226181076953    -1.254229217567     0.309059399227    12.000000000000
         C            1.632230676953     0.929192482433    -0.016756000773    12.000000000000
         C            2.517507076953    -1.601961217567     0.044780399227    12.000000000000
         C            3.418389076953    -0.543474217567    -0.261139600773    12.000000000000
         H           -0.931199923047     0.598582782433    -1.517105600773     1.007825032230
         H           -3.356175923047     0.649843782433    -1.148679600773     1.007825032230
         H           -0.433883923047     1.229058782433     1.401783399227     1.007825032230
         H           -3.275550923047    -0.901555217567     1.128568399227     1.007825032230
         H           -1.706901923047    -1.693126217567    -1.371678600773     1.007825032230
         H           -3.479154923047    -1.826825217567    -1.186349600773     1.007825032230
         H           -0.291118923047     2.720357782433    -0.527214600773     1.007825032230
         H           -2.841149923047     2.406921782433     0.506448399227     1.007825032230
         H            0.440717076953    -1.956258217567     0.566853399227     1.007825032230
         H           -2.427467923047    -3.791253217567    -0.545447600773     1.007825032230
         H            2.835518076953    -2.638219217567     0.071707399227     1.007825032230
         H            5.131586076953    -1.663682217567    -0.164628600773     1.007825032230
         H            5.326220076953    -0.012875217567    -0.570508600773     1.007825032230

  Basis Set: AUG-CC-PVTZ
    Blend: AUG-CC-PVTZ
  Basis Set: (AUG-CC-PVTZ AUX)
    Blend: AUG-CC-PVTZ-JKFIT
	 Reference Energy          =    -886.3106924719976405 [Eh]
	 Singles Energy            =      -0.0000000000000000 [Eh]
	 Same-Spin Energy          =      -0.9036036482353229 [Eh]
	 Opposite-Spin Energy      =      -2.7215582955896753 [Eh]
	 Correlation Energy        =      -3.6251619438249980 [Eh]
	 Total Energy              =    -889.9358544158226323 [Eh]

	 ================> DF-SCS-MP2 Energies <==================
	-----------------------------------------------------------
	 SCS Same-Spin Scale       =       0.3333333333333333 [-]
	 SCS Opposite-Spin Scale   =       1.2000000000000000 [-]
	 SCS Same-Spin Energy      =      -0.3012012160784410 [Eh]
	 SCS Opposite-Spin Energy  =      -3.2658699547076102 [Eh]
	 SCS Correlation Energy    =      -3.5670711707860514 [Eh]
	 SCS Total Energy          =    -889.8777636427837479 [Eh]
	-----------------------------------------------------------

  Dipole Moment: [D]
     X:     1.3687      Y:    -7.0475      Z:    -1.6476     Total:     7.3658

*** Psi4 exiting successfully. Buy a developer a beer!
