                               Psi4 1.3.2 release

  ==> Input File <==

--------------------------------------------------------------------------
#psi4
#
memory 32 gb

molecule  {
0 1
  O       -1.2481010    -0.6526680     1.0325150
  O       -1.2449750     2.4828510    -0.6861630
  O       -3.2165300     1.5210990     0.7448870
  O       -2.3570290    -3.0668370     0.0949400
  O        1.3605300     2.2470340    -0.0765420
  N        0.8434040     0.0452230     0.2559430
  N        3.0572260     0.7205030    -0.2937270
  N        4.7164630    -0.8366550    -0.5722980
  C       -1.2894840     1.0784300    -0.5920770
  C       -2.7151710     0.6552070    -0.2573930
  C       -0.5254080     0.4815200     0.6000940
  C       -2.5292560    -0.7168860     0.3610560
  C       -2.5283440    -1.8503930    -0.6392900
  C        1.2254437    -1.2385585     0.3078366
  C        1.7555940     1.0674350    -0.0594030
  C        2.5111010    -1.6091400     0.0469950
  C        3.3934320    -0.5343633    -0.2561835
  H       -0.9376060     0.5914040    -1.5148910
  H       -3.3625820     0.6426650    -1.1464650
  H       -0.4402900     1.2218800     1.4039980
  H       -3.2819570    -0.9087340     1.1307830
  H       -1.7133080    -1.7003050    -1.3694640
  H       -3.4855610    -1.8340040    -1.1841350
  H       -0.2975250     2.7131790    -0.5250000
  H       -2.8475560     2.3997430     0.5086630
  H        0.4343110    -1.9634370     0.5690680
  H       -2.4338740    -3.7984320    -0.5432330
  H        2.8291120    -2.6453980     0.0739220
  H        5.1251800    -1.6708610    -0.1624140
  H        5.3198140    -0.0200540    -0.5682940
units angstrom
no_reorient  #important for SAPT in psi4, default
symmetry c1  #important for SAPT in psi4, default
}

set PROPERTIES_ORIGIN ["COM"]
properties('MP2/aug-cc-pvtz', properties = ['dipole'])
--------------------------------------------------------------------------

    Molecular point group: c1
  Charge       = 0
  Multiplicity = 1
  Basis Set: AUG-CC-PVTZ
    Blend: AUG-CC-PVTZ
  Basis Set: (AUG-CC-PVTZ AUX)
    Blend: AUG-CC-PVTZ-JKFIT

    Orbital Energies [Eh]
    ---------------------

    Doubly Occupied:

       1A    -20.582857     2A    -20.582612     3A    -20.558864
       4A    -20.558797     5A    -20.525015     6A    -15.639603
       7A    -15.594388     8A    -15.554728     9A    -11.391032
      10A    -11.355175    11A    -11.343900    12A    -11.327345
      13A    -11.301781    14A    -11.298360    15A    -11.297863
      16A    -11.294141    17A    -11.246748    18A     -1.431643
      19A     -1.399856    20A     -1.381357    21A     -1.373545
      22A     -1.347681    23A     -1.309734    24A     -1.274668
      25A     -1.182630    26A     -1.082393    27A     -1.068819
      28A     -1.022962    29A     -0.936686    30A     -0.910656
      31A     -0.879055    32A     -0.833628    33A     -0.812622
      34A     -0.766668    35A     -0.754834    36A     -0.737992
      37A     -0.716061    38A     -0.702324    39A     -0.699270
      40A     -0.682802    41A     -0.672037    42A     -0.656446
      43A     -0.653519    44A     -0.641360    45A     -0.620611
      46A     -0.614591    47A     -0.603221    48A     -0.597231
      49A     -0.575882    50A     -0.570035    51A     -0.554754
      52A     -0.546224    53A     -0.538278    54A     -0.530654
      55A     -0.501479    56A     -0.478453    57A     -0.475729
      58A     -0.464181    59A     -0.462455    60A     -0.454154
      61A     -0.441489    62A     -0.435317    63A     -0.398159
      64A     -0.349501

  @DF-RHF Final Energy:  -886.37266119678895

   => Energetics <=

    Nuclear Repulsion Energy =           1324.5758947838407948
    One-Electron Energy =               -3846.7033993996610661
    Two-Electron Energy =                1635.7548434190312037
    Total Energy =                       -886.3726611967890676
  Basis Set: (AUG-CC-PVTZ AUX)
    Blend: AUG-CC-PVTZ-RI
    Molecular point group: c1

    Geometry (in Angstrom), charge = 0, multiplicity = 1:

       Center              X                  Y                   Z               Mass
    ------------   -----------------  -----------------  -----------------  -----------------
         O           -1.247465094783    -0.654600109878     1.032549360823    15.994914619570
         O           -1.244339094783     2.480918890122    -0.686128639177    15.994914619570
         O           -3.215894094783     1.519166890122     0.744921360823    15.994914619570
         O           -2.356393094783    -3.068769109878     0.094974360823    15.994914619570
         O            1.361165905217     2.245101890122    -0.076507639177    15.994914619570
         N            0.844039905217     0.043290890122     0.255977360823    14.003074004430
         N            3.057861905217     0.718570890122    -0.293692639177    14.003074004430
         N            4.717098905217    -0.838587109878    -0.572263639177    14.003074004430
         C           -1.288848094783     1.076497890122    -0.592042639177    12.000000000000
         C           -2.714535094783     0.653274890122    -0.257358639177    12.000000000000
         C           -0.524772094783     0.479587890122     0.600128360823    12.000000000000
         C           -2.528620094783    -0.718818109878     0.361090360823    12.000000000000
         C           -2.527708094783    -1.852325109878    -0.639255639177    12.000000000000
         C            1.226079605217    -1.240490609878     0.307870960823    12.000000000000
         C            1.756229905217     1.065502890122    -0.059368639177    12.000000000000
         C            2.511736905217    -1.611072109878     0.047029360823    12.000000000000
         C            3.394067905217    -0.536295409878    -0.256149139177    12.000000000000
         H           -0.936970094783     0.589471890122    -1.514856639177     1.007825032230
         H           -3.361946094783     0.640732890122    -1.146430639177     1.007825032230
         H           -0.439654094783     1.219947890122     1.404032360823     1.007825032230
         H           -3.281321094783    -0.910666109878     1.130817360823     1.007825032230
         H           -1.712672094783    -1.702237109878    -1.369429639177     1.007825032230
         H           -3.484925094783    -1.835936109878    -1.184100639177     1.007825032230
         H           -0.296889094783     2.711246890122    -0.524965639177     1.007825032230
         H           -2.846920094783     2.397810890122     0.508697360823     1.007825032230
         H            0.434946905217    -1.965369109878     0.569102360823     1.007825032230
         H           -2.433238094783    -3.800364109878    -0.543198639177     1.007825032230
         H            2.829747905217    -2.647330109878     0.073956360823     1.007825032230
         H            5.125815905217    -1.672793109878    -0.162379639177     1.007825032230
         H            5.320449905217    -0.021986109878    -0.568259639177     1.007825032230

  Basis Set: AUG-CC-PVTZ
    Blend: AUG-CC-PVTZ
  Basis Set: (AUG-CC-PVTZ AUX)
    Blend: AUG-CC-PVTZ-JKFIT
	 Reference Energy          =    -886.3726611967889539 [Eh]
	 Singles Energy            =      -0.0000000000000000 [Eh]
	 Same-Spin Energy          =      -0.9011300345005477 [Eh]
	 Opposite-Spin Energy      =      -2.7145360207427540 [Eh]
	 Correlation Energy        =      -3.6156660552433015 [Eh]
	 Total Energy              =    -889.9883272520322635 [Eh]

	 ================> DF-SCS-MP2 Energies <==================
	-----------------------------------------------------------
	 SCS Same-Spin Scale       =       0.3333333333333333 [-]
	 SCS Opposite-Spin Scale   =       1.2000000000000000 [-]
	 SCS Same-Spin Energy      =      -0.3003766781668492 [Eh]
	 SCS Opposite-Spin Energy  =      -3.2574432248913046 [Eh]
	 SCS Correlation Energy    =      -3.5578199030581539 [Eh]
	 SCS Total Energy          =    -889.9304810998471567 [Eh]
	-----------------------------------------------------------

  Dipole Moment: [D]
     X:     1.4277      Y:    -5.7935      Z:    -1.7818     Total:     6.2272

*** Psi4 exiting successfully. Buy a developer a beer!
