                               Psi4 1.3.2 release

  ==> Input File <==

--------------------------------------------------------------------------
#psi4
#
memory 32 gb

molecule  {
0 1
  O       -1.2481010    -0.6526680     1.0325150
  O       -1.2449750     2.4828510    -0.6861630
  O       -3.2591168     1.4960137     0.7440370
  O       -2.3570290    -3.0668370     0.0949400
  O        1.3605300     2.2470340    -0.0765420
  N        0.8434040     0.0452230     0.2559430
  N        3.0572260     0.7205030    -0.2937270
  N        4.7164630    -0.8366550    -0.5722980
  C       -1.2871112     1.0389479    -0.6276666
  C       -2.7151710     0.6552070    -0.2573930
  C       -0.5254080     0.4815200     0.6000940
  C       -2.5292560    -0.7168860     0.3610560
  C       -2.5283440    -1.8503930    -0.6392900
  C        1.2197750    -1.2614080     0.3112740
  C        1.7555940     1.0674350    -0.0594030
  C        2.5111010    -1.6091400     0.0469950
  C        3.4119830    -0.5506530    -0.2589250
  H       -0.9376060     0.5914040    -1.5148910
  H       -3.3625820     0.6426650    -1.1464650
  H       -0.4402900     1.2218800     1.4039980
  H       -3.2819570    -0.9087340     1.1307830
  H       -1.7133080    -1.7003050    -1.3694640
  H       -3.4855610    -1.8340040    -1.1841350
  H       -0.2975250     2.7131790    -0.5250000
  H       -2.8475560     2.3997430     0.5086630
  H        0.4343110    -1.9634370     0.5690680
  H       -2.4338740    -3.7984320    -0.5432330
  H        2.8291120    -2.6453980     0.0739220
  H        5.1251800    -1.6708610    -0.1624140
  H        5.3198140    -0.0200540    -0.5682940
units angstrom
no_reorient  #important for SAPT in psi4, default
symmetry c1  #important for SAPT in psi4, default
}

set PROPERTIES_ORIGIN ["COM"]
properties('MP2/aug-cc-pvtz', properties = ['dipole'])
--------------------------------------------------------------------------

    Molecular point group: c1
  Charge       = 0
  Multiplicity = 1
  Basis Set: AUG-CC-PVTZ
    Blend: AUG-CC-PVTZ
  Basis Set: (AUG-CC-PVTZ AUX)
    Blend: AUG-CC-PVTZ-JKFIT

    Orbital Energies [Eh]
    ---------------------

    Doubly Occupied:

       1A    -20.582185     2A    -20.581303     3A    -20.562404
       4A    -20.555409     5A    -20.521852     6A    -15.637051
       7A    -15.600100     8A    -15.553586     9A    -11.388342
      10A    -11.358121    11A    -11.343338    12A    -11.328797
      13A    -11.301113    14A    -11.296720    15A    -11.295867
      16A    -11.293059    17A    -11.248896    18A     -1.428491
      19A     -1.396266    20A     -1.375486    21A     -1.367303
      22A     -1.337317    23A     -1.306168    24A     -1.274101
      25A     -1.182482    26A     -1.082214    27A     -1.068104
      28A     -1.021721    29A     -0.934970    30A     -0.909800
      31A     -0.876983    32A     -0.834611    33A     -0.810929
      34A     -0.767510    35A     -0.751787    36A     -0.734812
      37A     -0.721024    38A     -0.700855    39A     -0.697299
      40A     -0.685623    41A     -0.668220    42A     -0.655458
      43A     -0.651034    44A     -0.639109    45A     -0.619818
      46A     -0.612369    47A     -0.606240    48A     -0.592331
      49A     -0.574377    50A     -0.569050    51A     -0.551973
      52A     -0.546131    53A     -0.534535    54A     -0.529942
      55A     -0.498285    56A     -0.477629    57A     -0.476585
      58A     -0.462524    59A     -0.459655    60A     -0.456124
      61A     -0.440747    62A     -0.433457    63A     -0.395473
      64A     -0.350216

  @DF-RHF Final Energy:  -886.36525116719895

   => Energetics <=

    Nuclear Repulsion Energy =           1322.5375971044265953
    One-Electron Energy =               -3842.7751282037002056
    Two-Electron Energy =                1633.8722799320748891
    Total Energy =                       -886.3652511671989487
  Basis Set: (AUG-CC-PVTZ AUX)
    Blend: AUG-CC-PVTZ-RI
    Molecular point group: c1

    Geometry (in Angstrom), charge = 0, multiplicity = 1:

       Center              X                  Y                   Z               Mass
    ------------   -----------------  -----------------  -----------------  -----------------
         O           -1.245415976313    -0.649068341352     1.034327829884    15.994914619570
         O           -1.242289976313     2.486450658648    -0.684350170116    15.994914619570
         O           -3.256431776313     1.499613358648     0.745849829884    15.994914619570
         O           -2.354343976313    -3.063237341352     0.096752829884    15.994914619570
         O            1.363215023687     2.250633658648    -0.074729170116    15.994914619570
         N            0.846089023687     0.048822658648     0.257755829884    14.003074004430
         N            3.059911023687     0.724102658648    -0.291914170116    14.003074004430
         N            4.719148023687    -0.833055341352    -0.570485170116    14.003074004430
         C           -1.284426176313     1.042547558648    -0.625853770116    12.000000000000
         C           -2.712485976313     0.658806658648    -0.255580170116    12.000000000000
         C           -0.522722976313     0.485119658648     0.601906829884    12.000000000000
         C           -2.526570976313    -0.713286341352     0.362868829884    12.000000000000
         C           -2.525658976313    -1.846793341352    -0.637477170116    12.000000000000
         C            1.222460023687    -1.257808341352     0.313086829884    12.000000000000
         C            1.758279023687     1.071034658648    -0.057590170116    12.000000000000
         C            2.513786023687    -1.605540341352     0.048807829884    12.000000000000
         C            3.414668023687    -0.547053341352    -0.257112170116    12.000000000000
         H           -0.934920976313     0.595003658648    -1.513078170116     1.007825032230
         H           -3.359896976313     0.646264658648    -1.144652170116     1.007825032230
         H           -0.437604976313     1.225479658648     1.405810829884     1.007825032230
         H           -3.279271976313    -0.905134341352     1.132595829884     1.007825032230
         H           -1.710622976313    -1.696705341352    -1.367651170116     1.007825032230
         H           -3.482875976313    -1.830404341352    -1.182322170116     1.007825032230
         H           -0.294839976313     2.716778658648    -0.523187170116     1.007825032230
         H           -2.844870976313     2.403342658648     0.510475829884     1.007825032230
         H            0.436996023687    -1.959837341352     0.570880829884     1.007825032230
         H           -2.431188976313    -3.794832341352    -0.541420170116     1.007825032230
         H            2.831797023687    -2.641798341352     0.075734829884     1.007825032230
         H            5.127865023687    -1.667261341352    -0.160601170116     1.007825032230
         H            5.322499023687    -0.016454341352    -0.566481170116     1.007825032230

  Basis Set: AUG-CC-PVTZ
    Blend: AUG-CC-PVTZ
  Basis Set: (AUG-CC-PVTZ AUX)
    Blend: AUG-CC-PVTZ-JKFIT
	 Reference Energy          =    -886.3652511671989487 [Eh]
	 Singles Energy            =      -0.0000000000000000 [Eh]
	 Same-Spin Energy          =      -0.9018917789834557 [Eh]
	 Opposite-Spin Energy      =      -2.7171015815071402 [Eh]
	 Correlation Energy        =      -3.6189933604905962 [Eh]
	 Total Energy              =    -889.9842445276894978 [Eh]

	 ================> DF-SCS-MP2 Energies <==================
	-----------------------------------------------------------
	 SCS Same-Spin Scale       =       0.3333333333333333 [-]
	 SCS Opposite-Spin Scale   =       1.2000000000000000 [-]
	 SCS Same-Spin Energy      =      -0.3006305929944852 [Eh]
	 SCS Opposite-Spin Energy  =      -3.2605218978085682 [Eh]
	 SCS Correlation Energy    =      -3.5611524908030532 [Eh]
	 SCS Total Energy          =    -889.9264036580019592 [Eh]
	-----------------------------------------------------------

  Dipole Moment: [D]
     X:     1.8083      Y:    -6.0028      Z:    -1.8356     Total:     6.5325

*** Psi4 exiting successfully. Buy a developer a beer!
