                               Psi4 1.3.2 release

  ==> Input File <==

--------------------------------------------------------------------------
#psi4
#
memory 32 gb

molecule  {
0 1
  O       -1.2481010    -0.6526680     1.0325150
  O       -1.2449750     2.4828510    -0.6861630
  O       -3.2165300     1.5210990     0.7448870
  O       -2.3570290    -3.0668370     0.0949400
  O        1.3605300     2.2470340    -0.0765420
  N        0.8434040     0.0452230     0.2559430
  N        3.0788611     0.7261807    -0.2992578
  N        4.7164630    -0.8366550    -0.5722980
  C       -1.2894840     1.0784300    -0.5920770
  C       -2.7151710     0.6552070    -0.2573930
  C       -0.5254080     0.4815200     0.6000940
  C       -2.5292560    -0.7168860     0.3610560
  C       -2.5283440    -1.8503930    -0.6392900
  C        1.2197750    -1.2614080     0.3112740
  C        1.7555940     1.0674350    -0.0594030
  C        2.5296401    -1.6254345     0.0442021
  C        3.4119830    -0.5506530    -0.2589250
  H       -0.9376060     0.5914040    -1.5148910
  H       -3.3625820     0.6426650    -1.1464650
  H       -0.4402900     1.2218800     1.4039980
  H       -3.2819570    -0.9087340     1.1307830
  H       -1.7133080    -1.7003050    -1.3694640
  H       -3.4855610    -1.8340040    -1.1841350
  H       -0.2975250     2.7131790    -0.5250000
  H       -2.8475560     2.3997430     0.5086630
  H        0.4343110    -1.9634370     0.5690680
  H       -2.4338740    -3.7984320    -0.5432330
  H        2.8291120    -2.6453980     0.0739220
  H        5.1251800    -1.6708610    -0.1624140
  H        5.3198140    -0.0200540    -0.5682940
units angstrom
no_reorient  #important for SAPT in psi4, default
symmetry c1  #important for SAPT in psi4, default
}

set PROPERTIES_ORIGIN ["COM"]
properties('MP2/aug-cc-pvtz', properties = ['dipole'])
--------------------------------------------------------------------------

    Molecular point group: c1
  Charge       = 0
  Multiplicity = 1
  Basis Set: AUG-CC-PVTZ
    Blend: AUG-CC-PVTZ
  Basis Set: (AUG-CC-PVTZ AUX)
    Blend: AUG-CC-PVTZ-JKFIT

    Orbital Energies [Eh]
    ---------------------

    Doubly Occupied:

       1A    -20.582764     2A    -20.582734     3A    -20.558567
       4A    -20.558335     5A    -20.524764     6A    -15.640055
       7A    -15.596209     8A    -15.555464     9A    -11.391143
      10A    -11.355342    11A    -11.343187    12A    -11.332819
      13A    -11.301803    14A    -11.297787    15A    -11.297732
      16A    -11.293831    17A    -11.249037    18A     -1.430419
      19A     -1.396907    20A     -1.380946    21A     -1.373519
      22A     -1.347176    23A     -1.305248    24A     -1.274200
      25A     -1.177546    26A     -1.078899    27A     -1.068604
      28A     -1.021947    29A     -0.935412    30A     -0.911609
      31A     -0.874353    32A     -0.832162    33A     -0.812448
      34A     -0.764329    35A     -0.753655    36A     -0.737384
      37A     -0.718628    38A     -0.703261    39A     -0.699356
      40A     -0.684457    41A     -0.673923    42A     -0.655378
      43A     -0.654200    44A     -0.639439    45A     -0.619700
      46A     -0.614238    47A     -0.604788    48A     -0.595155
      49A     -0.576043    50A     -0.570043    51A     -0.554587
      52A     -0.546304    53A     -0.538413    54A     -0.532142
      55A     -0.497948    56A     -0.478195    57A     -0.475262
      58A     -0.463694    59A     -0.462542    60A     -0.453800
      61A     -0.441462    62A     -0.434143    63A     -0.393974
      64A     -0.348286

  @DF-RHF Final Energy:  -886.37074227300945

   => Energetics <=

    Nuclear Repulsion Energy =           1322.5186525925046226
    One-Electron Energy =               -3842.6433950961609298
    Two-Electron Energy =                1633.7540002306468523
    Total Energy =                       -886.3707422730094549
  Basis Set: (AUG-CC-PVTZ AUX)
    Blend: AUG-CC-PVTZ-RI
    Molecular point group: c1

    Geometry (in Angstrom), charge = 0, multiplicity = 1:

       Center              X                  Y                   Z               Mass
    ------------   -----------------  -----------------  -----------------  -----------------
         O           -1.250262524696    -0.652190673292     1.032971484697    15.994914619570
         O           -1.247136524696     2.483328326708    -0.685706515303    15.994914619570
         O           -3.218691524696     1.521576326708     0.745343484697    15.994914619570
         O           -2.359190524696    -3.066359673292     0.095396484697    15.994914619570
         O            1.358368475304     2.247511326708    -0.076085515303    15.994914619570
         N            0.841242475304     0.045700326708     0.256399484697    14.003074004430
         N            3.076699575304     0.726658026708    -0.298801315303    14.003074004430
         N            4.714301475304    -0.836177673292    -0.571841515303    14.003074004430
         C           -1.291645524696     1.078907326708    -0.591620515303    12.000000000000
         C           -2.717332524696     0.655684326708    -0.256936515303    12.000000000000
         C           -0.527569524696     0.481997326708     0.600550484697    12.000000000000
         C           -2.531417524696    -0.716408673292     0.361512484697    12.000000000000
         C           -2.530505524696    -1.849915673292    -0.638833515303    12.000000000000
         C            1.217613475304    -1.260930673292     0.311730484697    12.000000000000
         C            1.753432475304     1.067912326708    -0.058946515303    12.000000000000
         C            2.527478575304    -1.624957173292     0.044658584697    12.000000000000
         C            3.409821475304    -0.550175673292    -0.258468515303    12.000000000000
         H           -0.939767524696     0.591881326708    -1.514434515303     1.007825032230
         H           -3.364743524696     0.643142326708    -1.146008515303     1.007825032230
         H           -0.442451524696     1.222357326708     1.404454484697     1.007825032230
         H           -3.284118524696    -0.908256673292     1.131239484697     1.007825032230
         H           -1.715469524696    -1.699827673292    -1.369007515303     1.007825032230
         H           -3.487722524696    -1.833526673292    -1.183678515303     1.007825032230
         H           -0.299686524696     2.713656326708    -0.524543515303     1.007825032230
         H           -2.849717524696     2.400220326708     0.509119484697     1.007825032230
         H            0.432149475304    -1.962959673292     0.569524484697     1.007825032230
         H           -2.436035524696    -3.797954673292    -0.542776515303     1.007825032230
         H            2.826950475304    -2.644920673292     0.074378484697     1.007825032230
         H            5.123018475304    -1.670383673292    -0.161957515303     1.007825032230
         H            5.317652475304    -0.019576673292    -0.567837515303     1.007825032230

  Basis Set: AUG-CC-PVTZ
    Blend: AUG-CC-PVTZ
  Basis Set: (AUG-CC-PVTZ AUX)
    Blend: AUG-CC-PVTZ-JKFIT
	 Reference Energy          =    -886.3707422730094549 [Eh]
	 Singles Energy            =      -0.0000000000000000 [Eh]
	 Same-Spin Energy          =      -0.9013324039697190 [Eh]
	 Opposite-Spin Energy      =      -2.7156608714915169 [Eh]
	 Correlation Energy        =      -3.6169932754612359 [Eh]
	 Total Energy              =    -889.9877355484707095 [Eh]

	 ================> DF-SCS-MP2 Energies <==================
	-----------------------------------------------------------
	 SCS Same-Spin Scale       =       0.3333333333333333 [-]
	 SCS Opposite-Spin Scale   =       1.2000000000000000 [-]
	 SCS Same-Spin Energy      =      -0.3004441346565730 [Eh]
	 SCS Opposite-Spin Energy  =      -3.2587930457898202 [Eh]
	 SCS Correlation Energy    =      -3.5592371804463934 [Eh]
	 SCS Total Energy          =    -889.9299794534558714 [Eh]
	-----------------------------------------------------------

  Dipole Moment: [D]
     X:     1.5430      Y:    -5.8940      Z:    -1.7996     Total:     6.3529

*** Psi4 exiting successfully. Buy a developer a beer!
