                               Psi4 1.3.2 release

  ==> Input File <==

--------------------------------------------------------------------------
#psi4
#
memory 32 gb

molecule  {
0 1
  O       -1.2481010    -0.6526680     1.0325150
  O       -1.2449750     2.4828510    -0.6861630
  O       -3.2165300     1.5210990     0.7448870
  O       -2.3570290    -3.0668370     0.0949400
  O        1.3605300     2.2470340    -0.0765420
  N        0.8525950     0.0229431     0.3294349
  N        3.0572260     0.7205030    -0.2937270
  N        4.7164630    -0.8366550    -0.5722980
  C       -1.3523605     1.0900426    -0.5432499
  C       -2.7151710     0.6552070    -0.2573930
  C       -0.5254080     0.4815200     0.6000940
  C       -2.5292560    -0.7168860     0.3610560
  C       -2.5283440    -1.8503930    -0.6392900
  C        1.2197750    -1.2614080     0.3112740
  C        1.7555940     1.0674350    -0.0594030
  C        2.5111010    -1.6091400     0.0469950
  C        3.4119830    -0.5506530    -0.2589250
  H       -0.9376060     0.5914040    -1.5148910
  H       -3.3625820     0.6426650    -1.1464650
  H       -0.4402900     1.2218800     1.4039980
  H       -3.2819570    -0.9087340     1.1307830
  H       -1.7133080    -1.7003050    -1.3694640
  H       -3.4855610    -1.8340040    -1.1841350
  H       -0.2975250     2.7131790    -0.5250000
  H       -2.8475560     2.3997430     0.5086630
  H        0.4343110    -1.9634370     0.5690680
  H       -2.4338740    -3.7984320    -0.5432330
  H        2.8291120    -2.6453980     0.0739220
  H        5.1251800    -1.6708610    -0.1624140
  H        5.3198140    -0.0200540    -0.5682940
units angstrom
no_reorient  #important for SAPT in psi4, default
symmetry c1  #important for SAPT in psi4, default
}

set PROPERTIES_ORIGIN ["COM"]
properties('MP2/aug-cc-pvtz', properties = ['dipole'])
--------------------------------------------------------------------------

    Molecular point group: c1
  Charge       = 0
  Multiplicity = 1
  Basis Set: AUG-CC-PVTZ
    Blend: AUG-CC-PVTZ
  Basis Set: (AUG-CC-PVTZ AUX)
    Blend: AUG-CC-PVTZ-JKFIT

    Orbital Energies [Eh]
    ---------------------

    Doubly Occupied:

       1A    -20.582292     2A    -20.580748     3A    -20.558709
       4A    -20.558445     5A    -20.526614     6A    -15.639020
       7A    -15.599152     8A    -15.553396     9A    -11.392499
      10A    -11.357217    11A    -11.342315    12A    -11.326174
      13A    -11.302001    14A    -11.301364    15A    -11.298562
      16A    -11.292611    17A    -11.245255    18A     -1.431132
      19A     -1.396683    20A     -1.383629    21A     -1.373490
      22A     -1.348162    23A     -1.308296    24A     -1.275873
      25A     -1.182493    26A     -1.080610    27A     -1.074820
      28A     -1.024067    29A     -0.939613    30A     -0.906781
      31A     -0.878273    32A     -0.833025    33A     -0.812929
      34A     -0.765446    35A     -0.756825    36A     -0.736351
      37A     -0.719703    38A     -0.704393    39A     -0.698006
      40A     -0.685003    41A     -0.673001    42A     -0.655185
      43A     -0.652686    44A     -0.637673    45A     -0.620866
      46A     -0.613575    47A     -0.605740    48A     -0.597749
      49A     -0.580510    50A     -0.570562    51A     -0.552797
      52A     -0.544268    53A     -0.537256    54A     -0.531945
      55A     -0.502482    56A     -0.483780    57A     -0.476061
      58A     -0.464784    59A     -0.462088    60A     -0.449781
      61A     -0.438932    62A     -0.430527    63A     -0.395586
      64A     -0.347656

  @DF-RHF Final Energy:  -886.36287211439048

   => Energetics <=

    Nuclear Repulsion Energy =           1323.8167345065542122
    One-Electron Energy =               -3845.1642759366145583
    Two-Electron Energy =                1634.9846693156696347
    Total Energy =                       -886.3628721143904841
  Basis Set: (AUG-CC-PVTZ AUX)
    Blend: AUG-CC-PVTZ-RI
    Molecular point group: c1

    Geometry (in Angstrom), charge = 0, multiplicity = 1:

       Center              X                  Y                   Z               Mass
    ------------   -----------------  -----------------  -----------------  -----------------
         O           -1.245526566541    -0.651957804046     1.025871099975    15.994914619570
         O           -1.242400566541     2.483561195954    -0.692806900025    15.994914619570
         O           -3.213955566541     1.521809195954     0.738243099975    15.994914619570
         O           -2.354454566541    -3.066126804046     0.088296099975    15.994914619570
         O            1.363104433459     2.247744195954    -0.083185900025    15.994914619570
         N            0.855169433459     0.023653295954     0.322790999975    14.003074004430
         N            3.059800433459     0.721213195954    -0.300370900025    14.003074004430
         N            4.719037433459    -0.835944804046    -0.578941900025    14.003074004430
         C           -1.349786066541     1.090752795954    -0.549893800025    12.000000000000
         C           -2.712596566541     0.655917195954    -0.264036900025    12.000000000000
         C           -0.522833566541     0.482230195954     0.593450099975    12.000000000000
         C           -2.526681566541    -0.716175804046     0.354412099975    12.000000000000
         C           -2.525769566541    -1.849682804046    -0.645933900025    12.000000000000
         C            1.222349433459    -1.260697804046     0.304630099975    12.000000000000
         C            1.758168433459     1.068145195954    -0.066046900025    12.000000000000
         C            2.513675433459    -1.608429804046     0.040351099975    12.000000000000
         C            3.414557433459    -0.549942804046    -0.265568900025    12.000000000000
         H           -0.935031566541     0.592114195954    -1.521534900025     1.007825032230
         H           -3.360007566541     0.643375195954    -1.153108900025     1.007825032230
         H           -0.437715566541     1.222590195954     1.397354099975     1.007825032230
         H           -3.279382566541    -0.908023804046     1.124139099975     1.007825032230
         H           -1.710733566541    -1.699594804046    -1.376107900025     1.007825032230
         H           -3.482986566541    -1.833293804046    -1.190778900025     1.007825032230
         H           -0.294950566541     2.713889195954    -0.531643900025     1.007825032230
         H           -2.844981566541     2.400453195954     0.502019099975     1.007825032230
         H            0.436885433459    -1.962726804046     0.562424099975     1.007825032230
         H           -2.431299566541    -3.797721804046    -0.549876900025     1.007825032230
         H            2.831686433459    -2.644687804046     0.067278099975     1.007825032230
         H            5.127754433459    -1.670150804046    -0.169057900025     1.007825032230
         H            5.322388433459    -0.019343804046    -0.574937900025     1.007825032230

  Basis Set: AUG-CC-PVTZ
    Blend: AUG-CC-PVTZ
  Basis Set: (AUG-CC-PVTZ AUX)
    Blend: AUG-CC-PVTZ-JKFIT
	 Reference Energy          =    -886.3628721143904841 [Eh]
	 Singles Energy            =      -0.0000000000000000 [Eh]
	 Same-Spin Energy          =      -0.9018091408125958 [Eh]
	 Opposite-Spin Energy      =      -2.7153865024773687 [Eh]
	 Correlation Energy        =      -3.6171956432899646 [Eh]
	 Total Energy              =    -889.9800677576804446 [Eh]

	 ================> DF-SCS-MP2 Energies <==================
	-----------------------------------------------------------
	 SCS Same-Spin Scale       =       0.3333333333333333 [-]
	 SCS Opposite-Spin Scale   =       1.2000000000000000 [-]
	 SCS Same-Spin Energy      =      -0.3006030469375319 [Eh]
	 SCS Opposite-Spin Energy  =      -3.2584638029728423 [Eh]
	 SCS Correlation Energy    =      -3.5590668499103741 [Eh]
	 SCS Total Energy          =    -889.9219389643008071 [Eh]
	-----------------------------------------------------------

  Dipole Moment: [D]
     X:     1.6163      Y:    -5.8070      Z:    -1.7972     Total:     6.2900

*** Psi4 exiting successfully. Buy a developer a beer!
