                               Psi4 1.3.2 release

  ==> Input File <==

--------------------------------------------------------------------------
#psi4
#
memory 32 gb

molecule  {
0 1
  O       -1.2481010    -0.6526680     1.0325150
  O       -1.2727044     2.4801565    -0.7266609
  O       -3.2165300     1.5210990     0.7448870
  O       -2.3570290    -3.0668370     0.0949400
  O        1.3605300     2.2470340    -0.0765420
  N        0.8434040     0.0452230     0.2559430
  N        3.0572260     0.7205030    -0.2937270
  N        4.7164630    -0.8366550    -0.5722980
  C       -1.2894840     1.0784300    -0.5920770
  C       -2.7151710     0.6552070    -0.2573930
  C       -0.5402104     0.4325839     0.5838726
  C       -2.5292560    -0.7168860     0.3610560
  C       -2.5283440    -1.8503930    -0.6392900
  C        1.2197750    -1.2614080     0.3112740
  C        1.7555940     1.0674350    -0.0594030
  C        2.5111010    -1.6091400     0.0469950
  C        3.4119830    -0.5506530    -0.2589250
  H       -0.9376060     0.5914040    -1.5148910
  H       -3.3625820     0.6426650    -1.1464650
  H       -0.4402900     1.2218800     1.4039980
  H       -3.2819570    -0.9087340     1.1307830
  H       -1.7133080    -1.7003050    -1.3694640
  H       -3.4855610    -1.8340040    -1.1841350
  H       -0.2975250     2.7131790    -0.5250000
  H       -2.8475560     2.3997430     0.5086630
  H        0.4343110    -1.9634370     0.5690680
  H       -2.4338740    -3.7984320    -0.5432330
  H        2.8291120    -2.6453980     0.0739220
  H        5.1251800    -1.6708610    -0.1624140
  H        5.3198140    -0.0200540    -0.5682940
units angstrom
no_reorient  #important for SAPT in psi4, default
symmetry c1  #important for SAPT in psi4, default
}

set PROPERTIES_ORIGIN ["COM"]
properties('MP2/aug-cc-pvtz', properties = ['dipole'])
--------------------------------------------------------------------------

    Molecular point group: c1
  Charge       = 0
  Multiplicity = 1
  Basis Set: AUG-CC-PVTZ
    Blend: AUG-CC-PVTZ
  Basis Set: (AUG-CC-PVTZ AUX)
    Blend: AUG-CC-PVTZ-JKFIT

    Orbital Energies [Eh]
    ---------------------

    Doubly Occupied:

       1A    -20.586585     2A    -20.583432     3A    -20.560346
       4A    -20.557288     5A    -20.522836     6A    -15.637019
       7A    -15.599981     8A    -15.554036     9A    -11.389378
      10A    -11.358078    11A    -11.343136    12A    -11.328319
      13A    -11.302576    14A    -11.299206    15A    -11.294980
      16A    -11.292164    17A    -11.248620    18A     -1.441516
      19A     -1.398322    20A     -1.379140    21A     -1.375114
      22A     -1.342771    23A     -1.306830    24A     -1.274885
      25A     -1.182711    26A     -1.081465    27A     -1.070850
      28A     -1.020978    29A     -0.934511    30A     -0.911013
      31A     -0.877629    32A     -0.828058    33A     -0.816001
      34A     -0.768296    35A     -0.753947    36A     -0.731324
      37A     -0.721192    38A     -0.702789    39A     -0.699836
      40A     -0.687145    41A     -0.673390    42A     -0.654254
      43A     -0.651435    44A     -0.639336    45A     -0.621214
      46A     -0.616235    47A     -0.607410    48A     -0.592904
      49A     -0.577274    50A     -0.569838    51A     -0.555944
      52A     -0.545802    53A     -0.538707    54A     -0.529661
      55A     -0.498153    56A     -0.478988    57A     -0.474382
      58A     -0.462951    59A     -0.460216    60A     -0.451763
      61A     -0.438284    62A     -0.432552    63A     -0.394108
      64A     -0.349227

  @DF-RHF Final Energy:  -886.36654639116796

   => Energetics <=

    Nuclear Repulsion Energy =           1323.6795592028099691
    One-Electron Energy =               -3844.9355493074499464
    Two-Electron Energy =                1634.8894437134717919
    Total Energy =                       -886.3665463911679581
  Basis Set: (AUG-CC-PVTZ AUX)
    Blend: AUG-CC-PVTZ-RI
    Molecular point group: c1

    Geometry (in Angstrom), charge = 0, multiplicity = 1:

       Center              X                  Y                   Z               Mass
    ------------   -----------------  -----------------  -----------------  -----------------
         O           -1.245545726717    -0.650074945668     1.035980525505    15.994914619570
         O           -1.270149126717     2.482749554332    -0.723195374495    15.994914619570
         O           -3.213974726717     1.523692054332     0.748352525505    15.994914619570
         O           -2.354473726717    -3.064243945668     0.098405525505    15.994914619570
         O            1.363085273283     2.249627054332    -0.073076474495    15.994914619570
         N            0.845959273283     0.047816054332     0.259408525505    14.003074004430
         N            3.059781273283     0.723096054332    -0.290261474495    14.003074004430
         N            4.719018273283    -0.834061945668    -0.568832474495    14.003074004430
         C           -1.286928726717     1.081023054332    -0.588611474495    12.000000000000
         C           -2.712615726717     0.657800054332    -0.253927474495    12.000000000000
         C           -0.537655126717     0.435176954332     0.587338125505    12.000000000000
         C           -2.526700726717    -0.714292945668     0.364521525505    12.000000000000
         C           -2.525788726717    -1.847799945668    -0.635824474495    12.000000000000
         C            1.222330273283    -1.258814945668     0.314739525505    12.000000000000
         C            1.758149273283     1.070028054332    -0.055937474495    12.000000000000
         C            2.513656273283    -1.606546945668     0.050460525505    12.000000000000
         C            3.414538273283    -0.548059945668    -0.255459474495    12.000000000000
         H           -0.935050726717     0.593997054332    -1.511425474495     1.007825032230
         H           -3.360026726717     0.645258054332    -1.142999474495     1.007825032230
         H           -0.437734726717     1.224473054332     1.407463525505     1.007825032230
         H           -3.279401726717    -0.906140945668     1.134248525505     1.007825032230
         H           -1.710752726717    -1.697711945668    -1.365998474495     1.007825032230
         H           -3.483005726717    -1.831410945668    -1.180669474495     1.007825032230
         H           -0.294969726717     2.715772054332    -0.521534474495     1.007825032230
         H           -2.845000726717     2.402336054332     0.512128525505     1.007825032230
         H            0.436866273283    -1.960843945668     0.572533525505     1.007825032230
         H           -2.431318726717    -3.795838945668    -0.539767474495     1.007825032230
         H            2.831667273283    -2.642804945668     0.077387525505     1.007825032230
         H            5.127735273283    -1.668267945668    -0.158948474495     1.007825032230
         H            5.322369273283    -0.017460945668    -0.564828474495     1.007825032230

  Basis Set: AUG-CC-PVTZ
    Blend: AUG-CC-PVTZ
  Basis Set: (AUG-CC-PVTZ AUX)
    Blend: AUG-CC-PVTZ-JKFIT
	 Reference Energy          =    -886.3665463911679581 [Eh]
	 Singles Energy            =      -0.0000000000000000 [Eh]
	 Same-Spin Energy          =      -0.9022374299091691 [Eh]
	 Opposite-Spin Energy      =      -2.7162113806997548 [Eh]
	 Correlation Energy        =      -3.6184488106089239 [Eh]
	 Total Energy              =    -889.9849952017768828 [Eh]

	 ================> DF-SCS-MP2 Energies <==================
	-----------------------------------------------------------
	 SCS Same-Spin Scale       =       0.3333333333333333 [-]
	 SCS Opposite-Spin Scale   =       1.2000000000000000 [-]
	 SCS Same-Spin Energy      =      -0.3007458099697230 [Eh]
	 SCS Opposite-Spin Energy  =      -3.2594536568397054 [Eh]
	 SCS Correlation Energy    =      -3.5601994668094283 [Eh]
	 SCS Total Energy          =    -889.9267458579773802 [Eh]
	-----------------------------------------------------------

  Dipole Moment: [D]
     X:     1.6846      Y:    -6.0821      Z:    -1.7709     Total:     6.5549

*** Psi4 exiting successfully. Buy a developer a beer!
