                               Psi4 1.3.2 release

  ==> Input File <==

--------------------------------------------------------------------------
#psi4
#
memory 32 gb

molecule  {
0 1
  O       -1.2494626    -0.6474982     1.0436234
  O       -1.2449750     2.4828510    -0.6861630
  O       -3.2165300     1.5210990     0.7448870
  O       -2.3570290    -3.0668370     0.0949400
  O        1.3605300     2.2470340    -0.0765420
  N        0.8434040     0.0452230     0.2559430
  N        3.0572260     0.7205030    -0.2937270
  N        4.7164630    -0.8366550    -0.5722980
  C       -1.2894840     1.0784300    -0.5920770
  C       -2.7151710     0.6552070    -0.2573930
  C       -0.5254080     0.4815200     0.6000940
  C       -2.5292560    -0.7168860     0.3610560
  C       -2.5283440    -1.8503930    -0.6392900
  C        1.2197750    -1.2614080     0.3112740
  C        1.7555940     1.0674350    -0.0594030
  C        2.5111010    -1.6091400     0.0469950
  C        3.4119830    -0.5506530    -0.2589250
  H       -0.9376060     0.5914040    -1.5148910
  H       -3.3625820     0.6426650    -1.1464650
  H       -0.4452489     1.2161013     1.4097881
  H       -3.2819570    -0.9087340     1.1307830
  H       -1.7133080    -1.7003050    -1.3694640
  H       -3.4855610    -1.8340040    -1.1841350
  H       -0.2975250     2.7131790    -0.5250000
  H       -2.8475560     2.3997430     0.5086630
  H        0.4343110    -1.9634370     0.5690680
  H       -2.4338740    -3.7984320    -0.5432330
  H        2.8291120    -2.6453980     0.0739220
  H        5.1251800    -1.6708610    -0.1624140
  H        5.3198140    -0.0200540    -0.5682940
units angstrom
no_reorient  #important for SAPT in psi4, default
symmetry c1  #important for SAPT in psi4, default
}

set PROPERTIES_ORIGIN ["COM"]
properties('MP2/aug-cc-pvtz', properties = ['dipole'])
--------------------------------------------------------------------------

    Molecular point group: c1
  Charge       = 0
  Multiplicity = 1
  Basis Set: AUG-CC-PVTZ
    Blend: AUG-CC-PVTZ
  Basis Set: (AUG-CC-PVTZ AUX)
    Blend: AUG-CC-PVTZ-JKFIT

    Orbital Energies [Eh]
    ---------------------

    Doubly Occupied:

       1A    -20.582437     2A    -20.581406     3A    -20.557746
       4A    -20.557260     5A    -20.521919     6A    -15.636960
       7A    -15.599882     8A    -15.553364     9A    -11.388253
      10A    -11.357896    11A    -11.341153    12A    -11.328651
      13A    -11.301611    14A    -11.297205    15A    -11.296817
      16A    -11.293070    17A    -11.248631    18A     -1.428422
      19A     -1.396120    20A     -1.380055    21A     -1.372830
      22A     -1.346266    23A     -1.306035    24A     -1.273738
      25A     -1.182235    26A     -1.081884    27A     -1.068072
      28A     -1.021044    29A     -0.935494    30A     -0.909425
      31A     -0.877339    32A     -0.832086    33A     -0.811733
      34A     -0.767095    35A     -0.752287    36A     -0.736039
      37A     -0.720247    38A     -0.703039    39A     -0.698432
      40A     -0.685399    41A     -0.672948    42A     -0.654017
      43A     -0.651614    44A     -0.638252    45A     -0.620775
      46A     -0.614362    47A     -0.606591    48A     -0.593909
      49A     -0.575787    50A     -0.568738    51A     -0.554089
      52A     -0.545954    53A     -0.537354    54A     -0.531711
      55A     -0.498124    56A     -0.477643    57A     -0.474666
      58A     -0.462141    59A     -0.460017    60A     -0.452853
      61A     -0.440834    62A     -0.433188    63A     -0.395231
      64A     -0.350034

  @DF-RHF Final Energy:  -886.37329843861039

   => Energetics <=

    Nuclear Repulsion Energy =           1323.4794923245081009
    One-Electron Energy =               -3844.6247577466806433
    Two-Electron Energy =                1634.7719669835621517
    Total Energy =                       -886.3732984386103908
  Basis Set: (AUG-CC-PVTZ AUX)
    Blend: AUG-CC-PVTZ-RI
    Molecular point group: c1

    Geometry (in Angstrom), charge = 0, multiplicity = 1:

       Center              X                  Y                   Z               Mass
    ------------   -----------------  -----------------  -----------------  -----------------
         O           -1.249352481842    -0.647814401995     1.042868474333    15.994914619570
         O           -1.244864881842     2.482534798005    -0.686917925667    15.994914619570
         O           -3.216419881842     1.520782798005     0.744132074333    15.994914619570
         O           -2.356918881842    -3.067153201995     0.094185074333    15.994914619570
         O            1.360640118158     2.246717798005    -0.077296925667    15.994914619570
         N            0.843514118158     0.044906798005     0.255188074333    14.003074004430
         N            3.057336118158     0.720186798005    -0.294481925667    14.003074004430
         N            4.716573118158    -0.836971201995    -0.573052925667    14.003074004430
         C           -1.289373881842     1.078113798005    -0.592831925667    12.000000000000
         C           -2.715060881842     0.654890798005    -0.258147925667    12.000000000000
         C           -0.525297881842     0.481203798005     0.599339074333    12.000000000000
         C           -2.529145881842    -0.717202201995     0.360301074333    12.000000000000
         C           -2.528233881842    -1.850709201995    -0.640044925667    12.000000000000
         C            1.219885118158    -1.261724201995     0.310519074333    12.000000000000
         C            1.755704118158     1.067118798005    -0.060157925667    12.000000000000
         C            2.511211118158    -1.609456201995     0.046240074333    12.000000000000
         C            3.412093118158    -0.550969201995    -0.259679925667    12.000000000000
         H           -0.937495881842     0.591087798005    -1.515645925667     1.007825032230
         H           -3.362471881842     0.642348798005    -1.147219925667     1.007825032230
         H           -0.445138781842     1.215785098005     1.409033174333     1.007825032230
         H           -3.281846881842    -0.909050201995     1.130028074333     1.007825032230
         H           -1.713197881842    -1.700621201995    -1.370218925667     1.007825032230
         H           -3.485450881842    -1.834320201995    -1.184889925667     1.007825032230
         H           -0.297414881842     2.712862798005    -0.525754925667     1.007825032230
         H           -2.847445881842     2.399426798005     0.507908074333     1.007825032230
         H            0.434421118158    -1.963753201995     0.568313074333     1.007825032230
         H           -2.433763881842    -3.798748201995    -0.543987925667     1.007825032230
         H            2.829222118158    -2.645714201995     0.073167074333     1.007825032230
         H            5.125290118158    -1.671177201995    -0.163168925667     1.007825032230
         H            5.319924118158    -0.020370201995    -0.569048925667     1.007825032230

  Basis Set: AUG-CC-PVTZ
    Blend: AUG-CC-PVTZ
  Basis Set: (AUG-CC-PVTZ AUX)
    Blend: AUG-CC-PVTZ-JKFIT
	 Reference Energy          =    -886.3732984386103908 [Eh]
	 Singles Energy            =      -0.0000000000000000 [Eh]
	 Same-Spin Energy          =      -0.9012386663104175 [Eh]
	 Opposite-Spin Energy      =      -2.7150392342021208 [Eh]
	 Correlation Energy        =      -3.6162779005125385 [Eh]
	 Total Energy              =    -889.9895763391228911 [Eh]

	 ================> DF-SCS-MP2 Energies <==================
	-----------------------------------------------------------
	 SCS Same-Spin Scale       =       0.3333333333333333 [-]
	 SCS Opposite-Spin Scale   =       1.2000000000000000 [-]
	 SCS Same-Spin Energy      =      -0.3004128887701392 [Eh]
	 SCS Opposite-Spin Energy  =      -3.2580470810425450 [Eh]
	 SCS Correlation Energy    =      -3.5584599698126844 [Eh]
	 SCS Total Energy          =    -889.9317584084230930 [Eh]
	-----------------------------------------------------------

  Dipole Moment: [D]
     X:     1.7054      Y:    -5.9618      Z:    -1.8419     Total:     6.4686

*** Psi4 exiting successfully. Buy a developer a beer!
