                               Psi4 1.4a3.dev225

  ==> Input File <==

--------------------------------------------------------------------------
#psi4
#
memory 32 gb

molecule  {
0 1
  O       -1.3191770     0.6538360    -1.0992360
  O       -1.5735610    -2.4640850     0.5135810
  O       -3.5606630    -1.0699430    -0.4600060
  O       -1.4399290     3.1254620     0.1265180
  O        1.1065530    -2.3833650     0.0076020
  N        0.7686360    -0.1579440    -0.3706350
  N        2.9363770    -0.9938720     0.1460080
  N        4.7058880     0.4431110     0.3611260
  C       -1.3768610    -1.0680440     0.5552780
  C       -2.7379840    -0.3746360     0.4578480
  C       -0.6377490    -0.5042940    -0.6790150
  C       -2.3586649     1.0096257    -0.1787789
  C       -1.8992030     1.9895750     0.8571380
  C        1.2309690     1.1190800    -0.4442230
  C        1.6104480    -1.2470590    -0.0585760
  C        2.5474650     1.3753690    -0.1998620
  C        3.3802090     0.2523040     0.0808410
  H       -0.8441360    -0.7686950     1.4698480
  H       -3.2257400    -0.2778790     1.4400230
  H       -0.6227070    -1.2428120    -1.4883720
  H       -3.1941750     1.3785730    -0.7472070
  H       -1.0952130     1.5703990     1.4802000
  H       -2.7410530     2.2466610     1.5166010
  H       -0.6710550    -2.8260740     0.3542250
  H       -3.3063470    -2.0105220    -0.3629290
  H        0.4929290     1.8778260    -0.6840360
  H       -1.2098800     3.8154810     0.7720340
  H        2.9334840     2.3875570    -0.2389120
  H        5.1589650     1.2712730    -0.0008400
  H        5.2635310    -0.4031270     0.3606700
units angstrom
no_reorient  #important for SAPT in psi4, default
symmetry c1  #important for SAPT in psi4, default
}

set PROPERTIES_ORIGIN ["COM"]
properties('MP2/aug-cc-pvtz', properties = ['dipole'])
--------------------------------------------------------------------------

    Molecular point group: c1
  Charge       = 0
  Multiplicity = 1
  Basis Set: AUG-CC-PVTZ
    Blend: AUG-CC-PVTZ
  Basis Set: (AUG-CC-PVTZ AUX)
    Blend: AUG-CC-PVTZ-JKFIT

    Orbital Energies [Eh]
    ---------------------

    Doubly Occupied:

       1A    -20.586078     2A    -20.581600     3A    -20.558816
       4A    -20.555584     5A    -20.519777     6A    -15.633140
       7A    -15.599758     8A    -15.551869     9A    -11.386083
      10A    -11.358174    11A    -11.340370    12A    -11.325313
      13A    -11.302594    14A    -11.297239    15A    -11.296019
      16A    -11.294094    17A    -11.246715    18A     -1.430159
      19A     -1.394506    20A     -1.382927    21A     -1.375537
      22A     -1.345369    23A     -1.303815    24A     -1.271649
      25A     -1.181356    26A     -1.079823    27A     -1.062973
      28A     -1.018781    29A     -0.936447    30A     -0.907076
      31A     -0.875589    32A     -0.827496    33A     -0.814221
      34A     -0.766873    35A     -0.750179    36A     -0.736021
      37A     -0.721810    38A     -0.708736    39A     -0.702278
      40A     -0.685819    41A     -0.674254    42A     -0.654223
      43A     -0.649364    44A     -0.632701    45A     -0.621258
      46A     -0.615801    47A     -0.608786    48A     -0.593091
      49A     -0.576845    50A     -0.567680    51A     -0.556216
      52A     -0.544334    53A     -0.536605    54A     -0.532552
      55A     -0.495670    56A     -0.480877    57A     -0.470517
      58A     -0.463812    59A     -0.457991    60A     -0.449528
      61A     -0.440468    62A     -0.430507    63A     -0.392311
      64A     -0.348325

  @DF-RHF Final Energy:  -886.37231870597975

   => Energetics <=

    Nuclear Repulsion Energy =           1334.2351241982485135
    One-Electron Energy =               -3866.2021249251042718
    Two-Electron Energy =                1645.5946820208762347
    Total Energy =                       -886.3723187059797510
  Basis Set: (AUG-CC-PVTZ AUX)
    Blend: AUG-CC-PVTZ-RI
    Molecular point group: c1

    Geometry (in Angstrom), charge = 0, multiplicity = 1:

       Center              X                  Y                   Z               Mass
    ------------   -----------------  -----------------  -----------------  -----------------
         O           -1.332516943706     0.680271407890    -1.082455010440    15.994914619570
         O           -1.586900943706    -2.437649592110     0.530361989560    15.994914619570
         O           -3.574002943706    -1.043507592110    -0.443225010440    15.994914619570
         O           -1.453268943706     3.151897407890     0.143298989560    15.994914619570
         O            1.093213056294    -2.356929592110     0.024382989560    15.994914619570
         N            0.755296056294    -0.131508592110    -0.353854010440    14.003074004430
         N            2.923037056294    -0.967436592110     0.162788989560    14.003074004430
         N            4.692548056294     0.469546407890     0.377906989560    14.003074004430
         C           -1.390200943706    -1.041608592110     0.572058989560    12.000000000000
         C           -2.751323943706    -0.348200592110     0.474628989560    12.000000000000
         C           -0.651088943706    -0.477858592110    -0.662234010440    12.000000000000
         C           -2.372004843706     1.036061107890    -0.161997910440    12.000000000000
         C           -1.912542943706     2.016010407890     0.873918989560    12.000000000000
         C            1.217629056294     1.145515407890    -0.427442010440    12.000000000000
         C            1.597108056294    -1.220623592110    -0.041795010440    12.000000000000
         C            2.534125056294     1.401804407890    -0.183081010440    12.000000000000
         C            3.366869056294     0.278739407890     0.097621989560    12.000000000000
         H           -0.857475943706    -0.742259592110     1.486628989560     1.007825032230
         H           -3.239079943706    -0.251443592110     1.456803989560     1.007825032230
         H           -0.636046943706    -1.216376592110    -1.471591010440     1.007825032230
         H           -3.207514943706     1.405008407890    -0.730426010440     1.007825032230
         H           -1.108552943706     1.596834407890     1.496980989560     1.007825032230
         H           -2.754392943706     2.273096407890     1.533381989560     1.007825032230
         H           -0.684394943706    -2.799638592110     0.371005989560     1.007825032230
         H           -3.319686943706    -1.984086592110    -0.346148010440     1.007825032230
         H            0.479589056294     1.904261407890    -0.667255010440     1.007825032230
         H           -1.223219943706     3.841916407890     0.788814989560     1.007825032230
         H            2.920144056294     2.413992407890    -0.222131010440     1.007825032230
         H            5.145625056294     1.297708407890     0.015940989560     1.007825032230
         H            5.250191056294    -0.376691592110     0.377450989560     1.007825032230

  Basis Set: AUG-CC-PVTZ
    Blend: AUG-CC-PVTZ
  Basis Set: (AUG-CC-PVTZ AUX)
    Blend: AUG-CC-PVTZ-JKFIT
	 Reference Energy          =    -886.3723187059797510 [Eh]
	 Singles Energy            =      -0.0000000000000000 [Eh]
	 Same-Spin Energy          =      -0.9016695381429216 [Eh]
	 Opposite-Spin Energy      =      -2.7156761363035704 [Eh]
	 Correlation Energy        =      -3.6173456744464918 [Eh]
	 Total Energy              =    -889.9896643804262339 [Eh]

	 ================> DF-SCS-MP2 Energies <==================
	-----------------------------------------------------------
	 SCS Same-Spin Scale       =       0.3333333333333333 [-]
	 SCS Opposite-Spin Scale   =       1.2000000000000000 [-]
	 SCS Same-Spin Energy      =      -0.3005565127143072 [Eh]
	 SCS Opposite-Spin Energy  =      -3.2588113635642846 [Eh]
	 SCS Correlation Energy    =      -3.5593678762785919 [Eh]
	 SCS Total Energy          =    -889.9316865822582940 [Eh]
	-----------------------------------------------------------

  Dipole Moment: [D]
     X:     2.7583      Y:     5.8394      Z:     1.9271     Total:     6.7395

*** Psi4 exiting successfully. Buy a developer a beer!
