                               Psi4 1.3.2 release

  ==> Input File <==

--------------------------------------------------------------------------
#psi4
#
memory 32 gb

molecule  {
0 1
  O       -1.2481010    -0.6526680     1.0325150
  O       -1.2449750     2.4828510    -0.6861630
  O       -3.2165300     1.5210990     0.7448870
  O       -2.3570290    -3.0668370     0.0949400
  O        1.3605300     2.2470340    -0.0765420
  N        0.8434040     0.0452230     0.2559430
  N        3.0572260     0.7205030    -0.2937270
  N        4.7164630    -0.8366550    -0.5722980
  C       -1.2894840     1.0784300    -0.5920770
  C       -2.6805389     0.7133949    -0.2875967
  C       -0.5254080     0.4815200     0.6000940
  C       -2.5292560    -0.7168860     0.3610560
  C       -2.5283440    -1.8503930    -0.6392900
  C        1.2197750    -1.2614080     0.3112740
  C        1.7555940     1.0674350    -0.0594030
  C        2.5111010    -1.6091400     0.0469950
  C        3.4119830    -0.5506530    -0.2589250
  H       -0.9376060     0.5914040    -1.5148910
  H       -3.3625820     0.6426650    -1.1464650
  H       -0.4402900     1.2218800     1.4039980
  H       -3.2819570    -0.9087340     1.1307830
  H       -1.7133080    -1.7003050    -1.3694640
  H       -3.4855610    -1.8340040    -1.1841350
  H       -0.2975250     2.7131790    -0.5250000
  H       -2.8244496     2.3777064     0.4683812
  H        0.4343110    -1.9634370     0.5690680
  H       -2.4338740    -3.7984320    -0.5432330
  H        2.8291120    -2.6453980     0.0739220
  H        5.1251800    -1.6708610    -0.1624140
  H        5.3198140    -0.0200540    -0.5682940
units angstrom
no_reorient  #important for SAPT in psi4, default
symmetry c1  #important for SAPT in psi4, default
}

set PROPERTIES_ORIGIN ["COM"]
properties('MP2/aug-cc-pvtz', properties = ['dipole'])
--------------------------------------------------------------------------

    Molecular point group: c1
  Charge       = 0
  Multiplicity = 1
  Basis Set: AUG-CC-PVTZ
    Blend: AUG-CC-PVTZ
  Basis Set: (AUG-CC-PVTZ AUX)
    Blend: AUG-CC-PVTZ-JKFIT

    Orbital Energies [Eh]
    ---------------------

    Doubly Occupied:

       1A    -20.581312     2A    -20.580925     3A    -20.559865
       4A    -20.558807     5A    -20.522800     6A    -15.637655
       7A    -15.600299     8A    -15.553884     9A    -11.388972
      10A    -11.358398    11A    -11.342878    12A    -11.329018
      13A    -11.299518    14A    -11.297297    15A    -11.295910
      16A    -11.292648    17A    -11.249060    18A     -1.429507
      19A     -1.396775    20A     -1.384054    21A     -1.372537
      22A     -1.348707    23A     -1.306641    24A     -1.274277
      25A     -1.182750    26A     -1.082934    27A     -1.063792
      28A     -1.025135    29A     -0.936965    30A     -0.909458
      31A     -0.874864    32A     -0.830929    33A     -0.811987
      34A     -0.767455    35A     -0.753472    36A     -0.740654
      37A     -0.720318    38A     -0.701351    39A     -0.697287
      40A     -0.685969    41A     -0.669436    42A     -0.655180
      43A     -0.652464    44A     -0.639068    45A     -0.621571
      46A     -0.614404    47A     -0.606594    48A     -0.594496
      49A     -0.578500    50A     -0.570508    51A     -0.552158
      52A     -0.547393    53A     -0.537802    54A     -0.531794
      55A     -0.498756    56A     -0.477714    57A     -0.475657
      58A     -0.463078    59A     -0.459900    60A     -0.452518
      61A     -0.440355    62A     -0.433436    63A     -0.395892
      64A     -0.350875

  @DF-RHF Final Energy:  -886.36611185154277

   => Energetics <=

    Nuclear Repulsion Energy =           1324.0721802971709167
    One-Electron Energy =               -3845.7433575832938004
    Two-Electron Energy =                1635.3050654345800012
    Total Energy =                       -886.3661118515426551
  Basis Set: (AUG-CC-PVTZ AUX)
    Blend: AUG-CC-PVTZ-RI
    Molecular point group: c1

    Geometry (in Angstrom), charge = 0, multiplicity = 1:

       Center              X                  Y                   Z               Mass
    ------------   -----------------  -----------------  -----------------  -----------------
         O           -1.249906457836    -0.655449092419     1.034173030573    15.994914619570
         O           -1.246780457836     2.480069907581    -0.684504969427    15.994914619570
         O           -3.218335457836     1.518317907581     0.746545030573    15.994914619570
         O           -2.358834457836    -3.069618092419     0.096598030573    15.994914619570
         O            1.358724542164     2.244252907581    -0.074883969427    15.994914619570
         N            0.841598542164     0.042441907581     0.257601030573    14.003074004430
         N            3.055420542164     0.717721907581    -0.292068969427    14.003074004430
         N            4.714657542164    -0.839436092419    -0.570639969427    14.003074004430
         C           -1.291289457836     1.075648907581    -0.590418969427    12.000000000000
         C           -2.682344357836     0.710613807581    -0.285938669427    12.000000000000
         C           -0.527213457836     0.478738907581     0.601752030573    12.000000000000
         C           -2.531061457836    -0.719667092419     0.362714030573    12.000000000000
         C           -2.530149457836    -1.853174092419    -0.637631969427    12.000000000000
         C            1.217969542164    -1.264189092419     0.312932030573    12.000000000000
         C            1.753788542164     1.064653907581    -0.057744969427    12.000000000000
         C            2.509295542164    -1.611921092419     0.048653030573    12.000000000000
         C            3.410177542164    -0.553434092419    -0.257266969427    12.000000000000
         H           -0.939411457836     0.588622907581    -1.513232969427     1.007825032230
         H           -3.364387457836     0.639883907581    -1.144806969427     1.007825032230
         H           -0.442095457836     1.219098907581     1.405656030573     1.007825032230
         H           -3.283762457836    -0.911515092419     1.132441030573     1.007825032230
         H           -1.715113457836    -1.703086092419    -1.367805969427     1.007825032230
         H           -3.487366457836    -1.836785092419    -1.182476969427     1.007825032230
         H           -0.299330457836     2.710397907581    -0.523341969427     1.007825032230
         H           -2.826255057836     2.374925307581     0.470039230573     1.007825032230
         H            0.432505542164    -1.966218092419     0.570726030573     1.007825032230
         H           -2.435679457836    -3.801213092419    -0.541574969427     1.007825032230
         H            2.827306542164    -2.648179092419     0.075580030573     1.007825032230
         H            5.123374542164    -1.673642092419    -0.160755969427     1.007825032230
         H            5.318008542164    -0.022835092419    -0.566635969427     1.007825032230

  Basis Set: AUG-CC-PVTZ
    Blend: AUG-CC-PVTZ
  Basis Set: (AUG-CC-PVTZ AUX)
    Blend: AUG-CC-PVTZ-JKFIT
	 Reference Energy          =    -886.3661118515427688 [Eh]
	 Singles Energy            =      -0.0000000000000000 [Eh]
	 Same-Spin Energy          =      -0.9017248458391200 [Eh]
	 Opposite-Spin Energy      =      -2.7159483944734282 [Eh]
	 Correlation Energy        =      -3.6176732403125484 [Eh]
	 Total Energy              =    -889.9837850918553386 [Eh]

	 ================> DF-SCS-MP2 Energies <==================
	-----------------------------------------------------------
	 SCS Same-Spin Scale       =       0.3333333333333333 [-]
	 SCS Opposite-Spin Scale   =       1.2000000000000000 [-]
	 SCS Same-Spin Energy      =      -0.3005749486130400 [Eh]
	 SCS Opposite-Spin Energy  =      -3.2591380733681139 [Eh]
	 SCS Correlation Energy    =      -3.5597130219811541 [Eh]
	 SCS Total Energy          =    -889.9258248735238794 [Eh]
	-----------------------------------------------------------

  Dipole Moment: [D]
     X:     1.8212      Y:    -5.9402      Z:    -1.8666     Total:     6.4875

*** Psi4 exiting successfully. Buy a developer a beer!
