                               Psi4 1.3.2 release

  ==> Input File <==

--------------------------------------------------------------------------
#psi4
#
memory 32 gb

molecule  {
0 1
  O       -1.2481010    -0.6526680     1.0325150
  O       -1.2449750     2.4828510    -0.6861630
  O       -3.2165300     1.5210990     0.7448870
  O       -2.3570290    -3.0668370     0.0949400
  O        1.3605300     2.2470340    -0.0765420
  N        0.8434040     0.0452230     0.2559430
  N        3.0572260     0.7205030    -0.2937270
  N        4.7164630    -0.8366550    -0.5722980
  C       -1.2988243     1.1013622    -0.6018084
  C       -2.7151710     0.6552070    -0.2573930
  C       -0.5254080     0.4815200     0.6000940
  C       -2.5554480    -0.7186625     0.3644219
  C       -2.5283440    -1.8503930    -0.6392900
  C        1.2197750    -1.2614080     0.3112740
  C        1.7555940     1.0674350    -0.0594030
  C        2.5111010    -1.6091400     0.0469950
  C        3.4119830    -0.5506530    -0.2589250
  H       -0.9376060     0.5914040    -1.5148910
  H       -3.3625820     0.6426650    -1.1464650
  H       -0.4402900     1.2218800     1.4039980
  H       -3.2819570    -0.9087340     1.1307830
  H       -1.7133080    -1.7003050    -1.3694640
  H       -3.4855610    -1.8340040    -1.1841350
  H       -0.2975250     2.7131790    -0.5250000
  H       -2.8475560     2.3997430     0.5086630
  H        0.4343110    -1.9634370     0.5690680
  H       -2.4338740    -3.7984320    -0.5432330
  H        2.8291120    -2.6453980     0.0739220
  H        5.1251800    -1.6708610    -0.1624140
  H        5.3198140    -0.0200540    -0.5682940
units angstrom
no_reorient  #important for SAPT in psi4, default
symmetry c1  #important for SAPT in psi4, default
}

set PROPERTIES_ORIGIN ["COM"]
properties('MP2/aug-cc-pvtz', properties = ['dipole'])
--------------------------------------------------------------------------

    Molecular point group: c1
  Charge       = 0
  Multiplicity = 1
  Basis Set: AUG-CC-PVTZ
    Blend: AUG-CC-PVTZ
  Basis Set: (AUG-CC-PVTZ AUX)
    Blend: AUG-CC-PVTZ-JKFIT

    Orbital Energies [Eh]
    ---------------------

    Doubly Occupied:

       1A    -20.582525     2A    -20.578573     3A    -20.559111
       4A    -20.557782     5A    -20.521661     6A    -15.636064
       7A    -15.599337     8A    -15.552783     9A    -11.387692
      10A    -11.357232    11A    -11.339750    12A    -11.327625
      13A    -11.301912    14A    -11.297524    15A    -11.297478
      16A    -11.293083    17A    -11.247781    18A     -1.424839
      19A     -1.394651    20A     -1.384004    21A     -1.372892
      22A     -1.350011    23A     -1.305279    24A     -1.272481
      25A     -1.181513    26A     -1.080432    27A     -1.067192
      28A     -1.017738    29A     -0.934500    30A     -0.908303
      31A     -0.877302    32A     -0.832982    33A     -0.810785
      34A     -0.766456    35A     -0.751179    36A     -0.737450
      37A     -0.719209    38A     -0.704072    39A     -0.698980
      40A     -0.684775    41A     -0.673555    42A     -0.653558
      43A     -0.651178    44A     -0.636922    45A     -0.620720
      46A     -0.614439    47A     -0.606136    48A     -0.594238
      49A     -0.575558    50A     -0.570808    51A     -0.554870
      52A     -0.545604    53A     -0.538146    54A     -0.531231
      55A     -0.498656    56A     -0.477988    57A     -0.475515
      58A     -0.462722    59A     -0.459729    60A     -0.450303
      61A     -0.437572    62A     -0.432417    63A     -0.394108
      64A     -0.348957

  @DF-RHF Final Energy:  -886.37227091012301

   => Energetics <=

    Nuclear Repulsion Energy =           1322.8835874698202133
    One-Electron Energy =               -3843.4719740733062281
    Two-Electron Energy =                1634.2161156933630082
    Total Energy =                       -886.3722709101230066
  Basis Set: (AUG-CC-PVTZ AUX)
    Blend: AUG-CC-PVTZ-RI
    Molecular point group: c1

    Geometry (in Angstrom), charge = 0, multiplicity = 1:

       Center              X                  Y                   Z               Mass
    ------------   -----------------  -----------------  -----------------  -----------------
         O           -1.246346969774    -0.653712348239     1.032829242569    15.994914619570
         O           -1.243220969774     2.481806651761    -0.685848757431    15.994914619570
         O           -3.214775969774     1.520054651761     0.745201242569    15.994914619570
         O           -2.355274969774    -3.067881348239     0.095254242569    15.994914619570
         O            1.362284030226     2.245989651761    -0.076227757431    15.994914619570
         N            0.845158030226     0.044178651761     0.256257242569    14.003074004430
         N            3.058980030226     0.719458651761    -0.293412757431    14.003074004430
         N            4.718217030226    -0.837699348239    -0.571983757431    14.003074004430
         C           -1.297070269774     1.100317851761    -0.601494157431    12.000000000000
         C           -2.713416969774     0.654162651761    -0.257078757431    12.000000000000
         C           -0.523653969774     0.480475651761     0.600408242569    12.000000000000
         C           -2.553693969774    -0.719706848239     0.364736142569    12.000000000000
         C           -2.526589969774    -1.851437348239    -0.638975757431    12.000000000000
         C            1.221529030226    -1.262452348239     0.311588242569    12.000000000000
         C            1.757348030226     1.066390651761    -0.059088757431    12.000000000000
         C            2.512855030226    -1.610184348239     0.047309242569    12.000000000000
         C            3.413737030226    -0.551697348239    -0.258610757431    12.000000000000
         H           -0.935851969774     0.590359651761    -1.514576757431     1.007825032230
         H           -3.360827969774     0.641620651761    -1.146150757431     1.007825032230
         H           -0.438535969774     1.220835651761     1.404312242569     1.007825032230
         H           -3.280202969774    -0.909778348239     1.131097242569     1.007825032230
         H           -1.711553969774    -1.701349348239    -1.369149757431     1.007825032230
         H           -3.483806969774    -1.835048348239    -1.183820757431     1.007825032230
         H           -0.295770969774     2.712134651761    -0.524685757431     1.007825032230
         H           -2.845801969774     2.398698651761     0.508977242569     1.007825032230
         H            0.436065030226    -1.964481348239     0.569382242569     1.007825032230
         H           -2.432119969774    -3.799476348239    -0.542918757431     1.007825032230
         H            2.830866030226    -2.646442348239     0.074236242569     1.007825032230
         H            5.126934030226    -1.671905348239    -0.162099757431     1.007825032230
         H            5.321568030226    -0.021098348239    -0.567979757431     1.007825032230

  Basis Set: AUG-CC-PVTZ
    Blend: AUG-CC-PVTZ
  Basis Set: (AUG-CC-PVTZ AUX)
    Blend: AUG-CC-PVTZ-JKFIT
	 Reference Energy          =    -886.3722709101230066 [Eh]
	 Singles Energy            =      -0.0000000000000000 [Eh]
	 Same-Spin Energy          =      -0.9011070230084202 [Eh]
	 Opposite-Spin Energy      =      -2.7146932518034541 [Eh]
	 Correlation Energy        =      -3.6158002748118743 [Eh]
	 Total Energy              =    -889.9880711849348245 [Eh]

	 ================> DF-SCS-MP2 Energies <==================
	-----------------------------------------------------------
	 SCS Same-Spin Scale       =       0.3333333333333333 [-]
	 SCS Opposite-Spin Scale   =       1.2000000000000000 [-]
	 SCS Same-Spin Energy      =      -0.3003690076694734 [Eh]
	 SCS Opposite-Spin Energy  =      -3.2576319021641447 [Eh]
	 SCS Correlation Energy    =      -3.5580009098336181 [Eh]
	 SCS Total Energy          =    -889.9302718199566016 [Eh]
	-----------------------------------------------------------

  Dipole Moment: [D]
     X:     1.6135      Y:    -5.9098      Z:    -1.8445     Total:     6.3978

*** Psi4 exiting successfully. Buy a developer a beer!
