                               Psi4 1.3.2 release

  ==> Input File <==

--------------------------------------------------------------------------
#psi4
#
memory 32 gb

molecule  {
0 1
  O       -1.2481010    -0.6526680     1.0325150
  O       -1.2449750     2.4828510    -0.6861630
  O       -3.2165300     1.5210990     0.7448870
  O       -2.3570290    -3.0668370     0.0949400
  O        1.3605300     2.2470340    -0.0765420
  N        0.8434040     0.0452230     0.2559430
  N        3.0572260     0.7205030    -0.2937270
  N        4.7164630    -0.8366550    -0.5722980
  C       -1.2894840     1.0784300    -0.5920770
  C       -2.7151710     0.6552070    -0.2573930
  C       -0.5254080     0.4815200     0.6000940
  C       -2.5292560    -0.7168860     0.3610560
  C       -2.5283440    -1.8503930    -0.6392900
  C        1.2197750    -1.2614080     0.3112740
  C        1.7555940     1.0674350    -0.0594030
  C        2.5111010    -1.6091400     0.0469950
  C        3.4119830    -0.5506530    -0.2589250
  H       -0.9376060     0.5914040    -1.5148910
  H       -3.3625820     0.6426650    -1.1464650
  H       -0.4402900     1.2218800     1.4039980
  H       -3.2819570    -0.9087340     1.1307830
  H       -1.7133080    -1.7003050    -1.3694640
  H       -3.4855610    -1.8340040    -1.1841350
  H       -0.2975250     2.7131790    -0.5250000
  H       -2.8475560     2.3997430     0.5086630
  H        0.4343110    -1.9634370     0.5690680
  H       -2.4338740    -3.7984320    -0.5432330
  H        2.8291120    -2.6453980     0.0739220
  H        5.0849266    -1.5887023    -0.2027824
  H        5.3198140    -0.0200540    -0.5682940
units angstrom
no_reorient  #important for SAPT in psi4, default
symmetry c1  #important for SAPT in psi4, default
}

set PROPERTIES_ORIGIN ["COM"]
properties('MP2/aug-cc-pvtz', properties = ['dipole'])
--------------------------------------------------------------------------

    Molecular point group: c1
  Charge       = 0
  Multiplicity = 1
  Basis Set: AUG-CC-PVTZ
    Blend: AUG-CC-PVTZ
  Basis Set: (AUG-CC-PVTZ AUX)
    Blend: AUG-CC-PVTZ-JKFIT

    Orbital Energies [Eh]
    ---------------------

    Doubly Occupied:

       1A    -20.582388     2A    -20.581844     3A    -20.557952
       4A    -20.557443     5A    -20.522291     6A    -15.637421
       7A    -15.589723     8A    -15.553644     9A    -11.388518
      10A    -11.358215    11A    -11.341838    12A    -11.329092
      13A    -11.301347    14A    -11.297109    15A    -11.296876
      16A    -11.293148    17A    -11.249075    18A     -1.429622
      19A     -1.396720    20A     -1.380303    21A     -1.372982
      22A     -1.346503    23A     -1.309328    24A     -1.278655
      25A     -1.191162    26A     -1.082722    27A     -1.067938
      28A     -1.022326    29A     -0.937442    30A     -0.909918
      31A     -0.882885    32A     -0.834040    33A     -0.812180
      34A     -0.771301    35A     -0.754441    36A     -0.736518
      37A     -0.726838    38A     -0.703646    39A     -0.698684
      40A     -0.695812    41A     -0.673104    42A     -0.656507
      43A     -0.651888    44A     -0.638913    45A     -0.621897
      46A     -0.614993    47A     -0.607121    48A     -0.594399
      49A     -0.576037    50A     -0.570078    51A     -0.554325
      52A     -0.546155    53A     -0.537930    54A     -0.532374
      55A     -0.498407    56A     -0.477688    57A     -0.474649
      58A     -0.462441    59A     -0.460317    60A     -0.453037
      61A     -0.441143    62A     -0.433553    63A     -0.396489
      64A     -0.350448

  @DF-RHF Final Energy:  -886.36734322269751

   => Energetics <=

    Nuclear Repulsion Energy =           1324.3233482343619016
    One-Electron Energy =               -3846.1738224390842333
    Two-Electron Energy =                1635.4831309820249317
    Total Energy =                       -886.3673432226976274
  Basis Set: (AUG-CC-PVTZ AUX)
    Blend: AUG-CC-PVTZ-RI
    Molecular point group: c1

    Geometry (in Angstrom), charge = 0, multiplicity = 1:

       Center              X                  Y                   Z               Mass
    ------------   -----------------  -----------------  -----------------  -----------------
         O           -1.247934144588    -0.653008617284     1.032682373616    15.994914619570
         O           -1.244808144588     2.482510382716    -0.685995626384    15.994914619570
         O           -3.216363144588     1.520758382716     0.745054373616    15.994914619570
         O           -2.356862144588    -3.067177617284     0.095107373616    15.994914619570
         O            1.360696855412     2.246693382716    -0.076374626384    15.994914619570
         N            0.843570855412     0.044882382716     0.256110373616    14.003074004430
         N            3.057392855412     0.720162382716    -0.293559626384    14.003074004430
         N            4.716629855412    -0.836995617284    -0.572130626384    14.003074004430
         C           -1.289317144588     1.078089382716    -0.591909626384    12.000000000000
         C           -2.715004144588     0.654866382716    -0.257225626384    12.000000000000
         C           -0.525241144588     0.481179382716     0.600261373616    12.000000000000
         C           -2.529089144588    -0.717226617284     0.361223373616    12.000000000000
         C           -2.528177144588    -1.850733617284    -0.639122626384    12.000000000000
         C            1.219941855412    -1.261748617284     0.311441373616    12.000000000000
         C            1.755760855412     1.067094382716    -0.059235626384    12.000000000000
         C            2.511267855412    -1.609480617284     0.047162373616    12.000000000000
         C            3.412149855412    -0.550993617284    -0.258757626384    12.000000000000
         H           -0.937439144588     0.591063382716    -1.514723626384     1.007825032230
         H           -3.362415144588     0.642324382716    -1.146297626384     1.007825032230
         H           -0.440123144588     1.221539382716     1.404165373616     1.007825032230
         H           -3.281790144588    -0.909074617284     1.130950373616     1.007825032230
         H           -1.713141144588    -1.700645617284    -1.369296626384     1.007825032230
         H           -3.485394144588    -1.834344617284    -1.183967626384     1.007825032230
         H           -0.297358144588     2.712838382716    -0.524832626384     1.007825032230
         H           -2.847389144588     2.399402382716     0.508830373616     1.007825032230
         H            0.434477855412    -1.963777617284     0.569235373616     1.007825032230
         H           -2.433707144588    -3.798772617284    -0.543065626384     1.007825032230
         H            2.829278855412    -2.645738617284     0.074089373616     1.007825032230
         H            5.085093455412    -1.589042917284    -0.202615026384     1.007825032230
         H            5.319980855412    -0.020394617284    -0.568126626384     1.007825032230

  Basis Set: AUG-CC-PVTZ
    Blend: AUG-CC-PVTZ
  Basis Set: (AUG-CC-PVTZ AUX)
    Blend: AUG-CC-PVTZ-JKFIT
	 Reference Energy          =    -886.3673432226975137 [Eh]
	 Singles Energy            =      -0.0000000000000000 [Eh]
	 Same-Spin Energy          =      -0.9006965603048431 [Eh]
	 Opposite-Spin Energy      =      -2.7134602459917612 [Eh]
	 Correlation Energy        =      -3.6141568062966041 [Eh]
	 Total Energy              =    -889.9815000289941054 [Eh]

	 ================> DF-SCS-MP2 Energies <==================
	-----------------------------------------------------------
	 SCS Same-Spin Scale       =       0.3333333333333333 [-]
	 SCS Opposite-Spin Scale   =       1.2000000000000000 [-]
	 SCS Same-Spin Energy      =      -0.3002321867682810 [Eh]
	 SCS Opposite-Spin Energy  =      -3.2561522951901134 [Eh]
	 SCS Correlation Energy    =      -3.5563844819583945 [Eh]
	 SCS Total Energy          =    -889.9237277046559029 [Eh]
	-----------------------------------------------------------

  Dipole Moment: [D]
     X:     1.6429      Y:    -5.8792      Z:    -1.8451     Total:     6.3772

*** Psi4 exiting successfully. Buy a developer a beer!
