                               Psi4 1.3.2 release

  ==> Input File <==

--------------------------------------------------------------------------
#psi4
#
memory 32 gb

molecule  {
0 1
  O       -1.2481010    -0.6526680     1.0325150
  O       -1.2449750     2.4828510    -0.6861630
  O       -3.2165300     1.5210990     0.7448870
  O       -2.3570290    -3.0668370     0.0949400
  O        1.3605300     2.2470340    -0.0765420
  N        0.8434040     0.0452230     0.2559430
  N        3.0572260     0.7205030    -0.2937270
  N        4.7164630    -0.8366550    -0.5722980
  C       -1.2894840     1.0784300    -0.5920770
  C       -2.7151710     0.6552070    -0.2573930
  C       -0.5254080     0.4815200     0.6000940
  C       -2.6177413    -0.7213213     0.3146805
  C       -2.5283440    -1.8503930    -0.6392900
  C        1.2197750    -1.2614080     0.3112740
  C        1.7555940     1.0674350    -0.0594030
  C        2.5111010    -1.6091400     0.0469950
  C        3.4119830    -0.5506530    -0.2589250
  H       -0.9376060     0.5914040    -1.5148910
  H       -3.3625820     0.6426650    -1.1464650
  H       -0.4402900     1.2218800     1.4039980
  H       -3.2819570    -0.9087340     1.1307830
  H       -1.7133080    -1.7003050    -1.3694640
  H       -3.4855610    -1.8340040    -1.1841350
  H       -0.2975250     2.7131790    -0.5250000
  H       -2.8475560     2.3997430     0.5086630
  H        0.4343110    -1.9634370     0.5690680
  H       -2.4338740    -3.7984320    -0.5432330
  H        2.8291120    -2.6453980     0.0739220
  H        5.1251800    -1.6708610    -0.1624140
  H        5.3198140    -0.0200540    -0.5682940
units angstrom
no_reorient  #important for SAPT in psi4, default
symmetry c1  #important for SAPT in psi4, default
}

set PROPERTIES_ORIGIN ["COM"]
properties('MP2/aug-cc-pvtz', properties = ['dipole'])
--------------------------------------------------------------------------

    Molecular point group: c1
  Charge       = 0
  Multiplicity = 1
  Basis Set: AUG-CC-PVTZ
    Blend: AUG-CC-PVTZ
  Basis Set: (AUG-CC-PVTZ AUX)
    Blend: AUG-CC-PVTZ-JKFIT

    Orbital Energies [Eh]
    ---------------------

    Doubly Occupied:

       1A    -20.586123     2A    -20.569551     3A    -20.559811
       4A    -20.557059     5A    -20.519924     6A    -15.633754
       7A    -15.598252     8A    -15.551346     9A    -11.385904
      10A    -11.355884    11A    -11.335609    12A    -11.325889
      13A    -11.305949    14A    -11.302077    15A    -11.297168
      16A    -11.296157    17A    -11.246283    18A     -1.415530
      19A     -1.390989    20A     -1.381443    21A     -1.366100
      22A     -1.347038    23A     -1.303036    24A     -1.269257
      25A     -1.179883    26A     -1.080889    27A     -1.076649
      28A     -1.019412    29A     -0.937477    30A     -0.906122
      31A     -0.878909    32A     -0.832342    33A     -0.809380
      34A     -0.765358    35A     -0.748400    36A     -0.735535
      37A     -0.718362    38A     -0.706936    39A     -0.697773
      40A     -0.682830    41A     -0.673614    42A     -0.653776
      43A     -0.647925    44A     -0.634578    45A     -0.618554
      46A     -0.611459    47A     -0.603484    48A     -0.592833
      49A     -0.576572    50A     -0.566164    51A     -0.553117
      52A     -0.546573    53A     -0.534558    54A     -0.527120
      55A     -0.498916    56A     -0.482822    57A     -0.479103
      58A     -0.464219    59A     -0.458681    60A     -0.449616
      61A     -0.439274    62A     -0.431104    63A     -0.393295
      64A     -0.347778

  @DF-RHF Final Energy:  -886.36361091249353

   => Energetics <=

    Nuclear Repulsion Energy =           1322.1430888332215545
    One-Electron Energy =               -3842.0903484844807281
    Two-Electron Energy =                1633.5836487387657598
    Total Energy =                       -886.3636109124934137
  Basis Set: (AUG-CC-PVTZ AUX)
    Blend: AUG-CC-PVTZ-RI
    Molecular point group: c1

    Geometry (in Angstrom), charge = 0, multiplicity = 1:

       Center              X                  Y                   Z               Mass
    ------------   -----------------  -----------------  -----------------  -----------------
         O           -1.243732926787    -0.652449039757     1.034804349926    15.994914619570
         O           -1.240606926787     2.483069960243    -0.683873650074    15.994914619570
         O           -3.212161926787     1.521317960243     0.747176349926    15.994914619570
         O           -2.352660926787    -3.066618039757     0.097229349926    15.994914619570
         O            1.364898073213     2.247252960243    -0.074252650074    15.994914619570
         N            0.847772073213     0.045441960243     0.258232349926    14.003074004430
         N            3.061594073213     0.720721960243    -0.291437650074    14.003074004430
         N            4.720831073213    -0.836436039757    -0.570008650074    14.003074004430
         C           -1.285115926787     1.078648960243    -0.589787650074    12.000000000000
         C           -2.710802926787     0.655425960243    -0.255103650074    12.000000000000
         C           -0.521039926787     0.481738960243     0.602383349926    12.000000000000
         C           -2.613373226787    -0.721102339757     0.316969849926    12.000000000000
         C           -2.523975926787    -1.850174039757    -0.637000650074    12.000000000000
         C            1.224143073213    -1.261189039757     0.313563349926    12.000000000000
         C            1.759962073213     1.067653960243    -0.057113650074    12.000000000000
         C            2.515469073213    -1.608921039757     0.049284349926    12.000000000000
         C            3.416351073213    -0.550434039757    -0.256635650074    12.000000000000
         H           -0.933237926787     0.591622960243    -1.512601650074     1.007825032230
         H           -3.358213926787     0.642883960243    -1.144175650074     1.007825032230
         H           -0.435921926787     1.222098960243     1.406287349926     1.007825032230
         H           -3.277588926787    -0.908515039757     1.133072349926     1.007825032230
         H           -1.708939926787    -1.700086039757    -1.367174650074     1.007825032230
         H           -3.481192926787    -1.833785039757    -1.181845650074     1.007825032230
         H           -0.293156926787     2.713397960243    -0.522710650074     1.007825032230
         H           -2.843187926787     2.399961960243     0.510952349926     1.007825032230
         H            0.438679073213    -1.963218039757     0.571357349926     1.007825032230
         H           -2.429505926787    -3.798213039757    -0.540943650074     1.007825032230
         H            2.833480073213    -2.645179039757     0.076211349926     1.007825032230
         H            5.129548073213    -1.670642039757    -0.160124650074     1.007825032230
         H            5.324182073213    -0.019835039757    -0.566004650074     1.007825032230

  Basis Set: AUG-CC-PVTZ
    Blend: AUG-CC-PVTZ
  Basis Set: (AUG-CC-PVTZ AUX)
    Blend: AUG-CC-PVTZ-JKFIT
	 Reference Energy          =    -886.3636109124935274 [Eh]
	 Singles Energy            =      -0.0000000000000000 [Eh]
	 Same-Spin Energy          =      -0.9019633256824707 [Eh]
	 Opposite-Spin Energy      =      -2.7167243957741807 [Eh]
	 Correlation Energy        =      -3.6186877214566513 [Eh]
	 Total Energy              =    -889.9822986339502222 [Eh]

	 ================> DF-SCS-MP2 Energies <==================
	-----------------------------------------------------------
	 SCS Same-Spin Scale       =       0.3333333333333333 [-]
	 SCS Opposite-Spin Scale   =       1.2000000000000000 [-]
	 SCS Same-Spin Energy      =      -0.3006544418941569 [Eh]
	 SCS Opposite-Spin Energy  =      -3.2600692749290165 [Eh]
	 SCS Correlation Energy    =      -3.5607237168231736 [Eh]
	 SCS Total Energy          =    -889.9243346293167178 [Eh]
	-----------------------------------------------------------

  Dipole Moment: [D]
     X:     1.3516      Y:    -6.0572      Z:    -1.9360     Total:     6.5011

*** Psi4 exiting successfully. Buy a developer a beer!
