                               Psi4 1.3.2 release

  ==> Input File <==

--------------------------------------------------------------------------
#psi4
#
memory 32 gb

molecule  {
0 1
  O       -1.2481010    -0.6526680     1.0325150
  O       -1.2449750     2.4828510    -0.6861630
  O       -3.2161011     1.5023531     0.7609917
  O       -2.3570290    -3.0668370     0.0949400
  O        1.3605300     2.2470340    -0.0765420
  N        0.8434040     0.0452230     0.2559430
  N        3.0572260     0.7205030    -0.2937270
  N        4.7164630    -0.8366550    -0.5722980
  C       -1.2894840     1.0784300    -0.5920770
  C       -2.7151710     0.6552070    -0.2573930
  C       -0.5254080     0.4815200     0.6000940
  C       -2.5380819    -0.7074205     0.3841431
  C       -2.5283440    -1.8503930    -0.6392900
  C        1.2197750    -1.2614080     0.3112740
  C        1.7555940     1.0674350    -0.0594030
  C        2.5111010    -1.6091400     0.0469950
  C        3.4119830    -0.5506530    -0.2589250
  H       -0.9376060     0.5914040    -1.5148910
  H       -3.3625820     0.6426650    -1.1464650
  H       -0.4402900     1.2218800     1.4039980
  H       -3.2819570    -0.9087340     1.1307830
  H       -1.7133080    -1.7003050    -1.3694640
  H       -3.4855610    -1.8340040    -1.1841350
  H       -0.2975250     2.7131790    -0.5250000
  H       -2.8475560     2.3997430     0.5086630
  H        0.4343110    -1.9634370     0.5690680
  H       -2.4338740    -3.7984320    -0.5432330
  H        2.8291120    -2.6453980     0.0739220
  H        5.1251800    -1.6708610    -0.1624140
  H        5.3198140    -0.0200540    -0.5682940
units angstrom
no_reorient  #important for SAPT in psi4, default
symmetry c1  #important for SAPT in psi4, default
}

set PROPERTIES_ORIGIN ["COM"]
properties('MP2/aug-cc-pvtz', properties = ['dipole'])
--------------------------------------------------------------------------

    Molecular point group: c1
  Charge       = 0
  Multiplicity = 1
  Basis Set: AUG-CC-PVTZ
    Blend: AUG-CC-PVTZ
  Basis Set: (AUG-CC-PVTZ AUX)
    Blend: AUG-CC-PVTZ-JKFIT

    Orbital Energies [Eh]
    ---------------------

    Doubly Occupied:

       1A    -20.581436     2A    -20.581093     3A    -20.559503
       4A    -20.557939     5A    -20.522126     6A    -15.637101
       7A    -15.599893     8A    -15.553421     9A    -11.388403
      10A    -11.357915    11A    -11.341783    12A    -11.328552
      13A    -11.300474    14A    -11.296894    15A    -11.295670
      16A    -11.292253    17A    -11.248575    18A     -1.429477
      19A     -1.396434    20A     -1.378773    21A     -1.371777
      22A     -1.345028    23A     -1.306159    24A     -1.273895
      25A     -1.182321    26A     -1.081980    27A     -1.064005
      28A     -1.020494    29A     -0.933237    30A     -0.909427
      31A     -0.877171    32A     -0.832906    33A     -0.812435
      34A     -0.767118    35A     -0.752505    36A     -0.736281
      37A     -0.720008    38A     -0.701638    39A     -0.696638
      40A     -0.685613    41A     -0.670725    42A     -0.654329
      43A     -0.651010    44A     -0.638649    45A     -0.620582
      46A     -0.613600    47A     -0.605879    48A     -0.593818
      49A     -0.575031    50A     -0.573153    51A     -0.553344
      52A     -0.544520    53A     -0.538251    54A     -0.530337
      55A     -0.498564    56A     -0.477537    57A     -0.475110
      58A     -0.460674    59A     -0.459766    60A     -0.452616
      61A     -0.439668    62A     -0.433009    63A     -0.395214
      64A     -0.350065

  @DF-RHF Final Energy:  -886.37095342331463

   => Energetics <=

    Nuclear Repulsion Energy =           1323.5316511097205421
    One-Electron Energy =               -3844.7576035141614739
    Two-Electron Energy =                1634.8549989811265277
    Total Energy =                       -886.3709534233146314
  Basis Set: (AUG-CC-PVTZ AUX)
    Blend: AUG-CC-PVTZ-RI
    Molecular point group: c1

    Geometry (in Angstrom), charge = 0, multiplicity = 1:

       Center              X                  Y                   Z               Mass
    ------------   -----------------  -----------------  -----------------  -----------------
         O           -1.247693561780    -0.651901785977     1.030315623082    15.994914619570
         O           -1.244567561780     2.483617214023    -0.688362376918    15.994914619570
         O           -3.215693661780     1.503119314023     0.758792323082    15.994914619570
         O           -2.356621561780    -3.066070785977     0.092740623082    15.994914619570
         O            1.360937438220     2.247800214023    -0.078741376918    15.994914619570
         N            0.843811438220     0.045989214023     0.253743623082    14.003074004430
         N            3.057633438220     0.721269214023    -0.295926376918    14.003074004430
         N            4.716870438220    -0.835888785977    -0.574497376918    14.003074004430
         C           -1.289076561780     1.079196214023    -0.594276376918    12.000000000000
         C           -2.714763561780     0.655973214023    -0.259592376918    12.000000000000
         C           -0.525000561780     0.482286214023     0.597894623082    12.000000000000
         C           -2.537674461780    -0.706654285977     0.381943723082    12.000000000000
         C           -2.527936561780    -1.849626785977    -0.641489376918    12.000000000000
         C            1.220182438220    -1.260641785977     0.309074623082    12.000000000000
         C            1.756001438220     1.068201214023    -0.061602376918    12.000000000000
         C            2.511508438220    -1.608373785977     0.044795623082    12.000000000000
         C            3.412390438220    -0.549886785977    -0.261124376918    12.000000000000
         H           -0.937198561780     0.592170214023    -1.517090376918     1.007825032230
         H           -3.362174561780     0.643431214023    -1.148664376918     1.007825032230
         H           -0.439882561780     1.222646214023     1.401798623082     1.007825032230
         H           -3.281549561780    -0.907967785977     1.128583623082     1.007825032230
         H           -1.712900561780    -1.699538785977    -1.371663376918     1.007825032230
         H           -3.485153561780    -1.833237785977    -1.186334376918     1.007825032230
         H           -0.297117561780     2.713945214023    -0.527199376918     1.007825032230
         H           -2.847148561780     2.400509214023     0.506463623082     1.007825032230
         H            0.434718438220    -1.962670785977     0.566868623082     1.007825032230
         H           -2.433466561780    -3.797665785977    -0.545432376918     1.007825032230
         H            2.829519438220    -2.644631785977     0.071722623082     1.007825032230
         H            5.125587438220    -1.670094785977    -0.164613376918     1.007825032230
         H            5.320221438220    -0.019287785977    -0.570493376918     1.007825032230

  Basis Set: AUG-CC-PVTZ
    Blend: AUG-CC-PVTZ
  Basis Set: (AUG-CC-PVTZ AUX)
    Blend: AUG-CC-PVTZ-JKFIT
	 Reference Energy          =    -886.3709534233146314 [Eh]
	 Singles Energy            =      -0.0000000000000000 [Eh]
	 Same-Spin Energy          =      -0.9013834293206877 [Eh]
	 Opposite-Spin Energy      =      -2.7155504872189655 [Eh]
	 Correlation Energy        =      -3.6169339165396535 [Eh]
	 Total Energy              =    -889.9878873398542964 [Eh]

	 ================> DF-SCS-MP2 Energies <==================
	-----------------------------------------------------------
	 SCS Same-Spin Scale       =       0.3333333333333333 [-]
	 SCS Opposite-Spin Scale   =       1.2000000000000000 [-]
	 SCS Same-Spin Energy      =      -0.3004611431068959 [Eh]
	 SCS Opposite-Spin Energy  =      -3.2586605846627585 [Eh]
	 SCS Correlation Energy    =      -3.5591217277696545 [Eh]
	 SCS Total Energy          =    -889.9300751510843384 [Eh]
	-----------------------------------------------------------

  Dipole Moment: [D]
     X:     1.7133      Y:    -5.8906      Z:    -1.8138     Total:     6.3972

*** Psi4 exiting successfully. Buy a developer a beer!
