                               Psi4 1.4a3.dev225

  ==> Input File <==

--------------------------------------------------------------------------
#psi4
#
memory 32 gb

molecule  {
0 1
  O       -1.3191770     0.6538360    -1.0992360
  O       -1.5735610    -2.4640850     0.5135810
  O       -3.5606630    -1.0699430    -0.4600060
  O       -1.4399290     3.1254620     0.1265180
  O        1.1065530    -2.3833650     0.0076020
  N        0.7686360    -0.1579440    -0.3706350
  N        2.9363770    -0.9938720     0.1460080
  N        4.7058880     0.4431110     0.3611260
  C       -1.3768610    -1.0680440     0.5552780
  C       -2.7379840    -0.3746360     0.4578480
  C       -0.6377490    -0.5042940    -0.6790150
  C       -2.3707440     0.9655450    -0.1585060
  C       -1.8992030     1.9895750     0.8571380
  C        1.2309690     1.1190800    -0.4442230
  C        1.6104480    -1.2470590    -0.0585760
  C        2.5474650     1.3753690    -0.1998620
  C        3.3685297     0.2680550     0.0769041
  H       -0.8441360    -0.7686950     1.4698480
  H       -3.2257400    -0.2778790     1.4400230
  H       -0.6227070    -1.2428120    -1.4883720
  H       -3.1941750     1.3785730    -0.7472070
  H       -1.0952130     1.5703990     1.4802000
  H       -2.7410530     2.2466610     1.5166010
  H       -0.6710550    -2.8260740     0.3542250
  H       -3.3063470    -2.0105220    -0.3629290
  H        0.4929290     1.8778260    -0.6840360
  H       -1.2098800     3.8154810     0.7720340
  H        2.9334840     2.3875570    -0.2389120
  H        5.1589650     1.2712730    -0.0008400
  H        5.2635310    -0.4031270     0.3606700
units angstrom
no_reorient  #important for SAPT in psi4, default
symmetry c1  #important for SAPT in psi4, default
}

set PROPERTIES_ORIGIN ["COM"]
properties('MP2/aug-cc-pvtz', properties = ['dipole'])
--------------------------------------------------------------------------

    Molecular point group: c1
  Charge       = 0
  Multiplicity = 1
  Basis Set: AUG-CC-PVTZ
    Blend: AUG-CC-PVTZ
  Basis Set: (AUG-CC-PVTZ AUX)
    Blend: AUG-CC-PVTZ-JKFIT

    Orbital Energies [Eh]
    ---------------------

    Doubly Occupied:

       1A    -20.587369     2A    -20.582090     3A    -20.559568
       4A    -20.556788     5A    -20.518714     6A    -15.634787
       7A    -15.598029     8A    -15.552020     9A    -11.384768
      10A    -11.357602    11A    -11.340319    12A    -11.327873
      13A    -11.304141    14A    -11.298471    15A    -11.297478
      16A    -11.293945    17A    -11.246208    18A     -1.429839
      19A     -1.393841    20A     -1.383461    21A     -1.375959
      22A     -1.346809    23A     -1.302168    24A     -1.269429
      25A     -1.177360    26A     -1.082811    27A     -1.068580
      28A     -1.018591    29A     -0.937493    30A     -0.909033
      31A     -0.874887    32A     -0.830297    33A     -0.812976
      34A     -0.766086    35A     -0.751351    36A     -0.735625
      37A     -0.720515    38A     -0.708217    39A     -0.703256
      40A     -0.683395    41A     -0.675169    42A     -0.653792
      43A     -0.649781    44A     -0.633706    45A     -0.621032
      46A     -0.616113    47A     -0.608545    48A     -0.592283
      49A     -0.577531    50A     -0.564972    51A     -0.555730
      52A     -0.548547    53A     -0.536811    54A     -0.530275
      55A     -0.496027    56A     -0.481361    57A     -0.474139
      58A     -0.463818    59A     -0.458091    60A     -0.453501
      61A     -0.442459    62A     -0.430794    63A     -0.390716
      64A     -0.349725

  @DF-RHF Final Energy:  -886.37292273962180

   => Energetics <=

    Nuclear Repulsion Energy =           1334.6648039970084483
    One-Electron Energy =               -3867.0213219870465764
    Two-Electron Energy =                1645.9835952504161014
    Total Energy =                       -886.3729227396217993
  Basis Set: (AUG-CC-PVTZ AUX)
    Blend: AUG-CC-PVTZ-RI
    Molecular point group: c1

    Geometry (in Angstrom), charge = 0, multiplicity = 1:

       Center              X                  Y                   Z               Mass
    ------------   -----------------  -----------------  -----------------  -----------------
         O           -1.331344102151     0.681669913236    -1.083261442676    15.994914619570
         O           -1.585728102151    -2.436251086764     0.529555557324    15.994914619570
         O           -3.572830102151    -1.042109086764    -0.444031442676    15.994914619570
         O           -1.452096102151     3.153295913236     0.142492557324    15.994914619570
         O            1.094385897849    -2.355531086764     0.023576557324    15.994914619570
         N            0.756468897849    -0.130110086764    -0.354660442676    14.003074004430
         N            2.924209897849    -0.966038086764     0.161982557324    14.003074004430
         N            4.693720897849     0.470944913236     0.377100557324    14.003074004430
         C           -1.389028102151    -1.040210086764     0.571252557324    12.000000000000
         C           -2.750151102151    -0.346802086764     0.473822557324    12.000000000000
         C           -0.649916102151    -0.476460086764    -0.663040442676    12.000000000000
         C           -2.382911102151     0.993378913236    -0.142531442676    12.000000000000
         C           -1.911370102151     2.017408913236     0.873112557324    12.000000000000
         C            1.218801897849     1.146913913236    -0.428248442676    12.000000000000
         C            1.598280897849    -1.219225086764    -0.042601442676    12.000000000000
         C            2.535297897849     1.403202913236    -0.183887442676    12.000000000000
         C            3.356362597849     0.295888913236     0.092878657324    12.000000000000
         H           -0.856303102151    -0.740861086764     1.485822557324     1.007825032230
         H           -3.237907102151    -0.250045086764     1.455997557324     1.007825032230
         H           -0.634874102151    -1.214978086764    -1.472397442676     1.007825032230
         H           -3.206342102151     1.406406913236    -0.731232442676     1.007825032230
         H           -1.107380102151     1.598232913236     1.496174557324     1.007825032230
         H           -2.753220102151     2.274494913236     1.532575557324     1.007825032230
         H           -0.683222102151    -2.798240086764     0.370199557324     1.007825032230
         H           -3.318514102151    -1.982688086764    -0.346954442676     1.007825032230
         H            0.480761897849     1.905659913236    -0.668061442676     1.007825032230
         H           -1.222047102151     3.843314913236     0.788008557324     1.007825032230
         H            2.921316897849     2.415390913236    -0.222937442676     1.007825032230
         H            5.146797897849     1.299106913236     0.015134557324     1.007825032230
         H            5.251363897849    -0.375293086764     0.376644557324     1.007825032230

  Basis Set: AUG-CC-PVTZ
    Blend: AUG-CC-PVTZ
  Basis Set: (AUG-CC-PVTZ AUX)
    Blend: AUG-CC-PVTZ-JKFIT
	 Reference Energy          =    -886.3729227396217993 [Eh]
	 Singles Energy            =      -0.0000000000000000 [Eh]
	 Same-Spin Energy          =      -0.9021289264801161 [Eh]
	 Opposite-Spin Energy      =      -2.7163204253193065 [Eh]
	 Correlation Energy        =      -3.6184493517994225 [Eh]
	 Total Energy              =    -889.9913720914212263 [Eh]

	 ================> DF-SCS-MP2 Energies <==================
	-----------------------------------------------------------
	 SCS Same-Spin Scale       =       0.3333333333333333 [-]
	 SCS Opposite-Spin Scale   =       1.2000000000000000 [-]
	 SCS Same-Spin Energy      =      -0.3007096421600387 [Eh]
	 SCS Opposite-Spin Energy  =      -3.2595845103831675 [Eh]
	 SCS Correlation Energy    =      -3.5602941525432064 [Eh]
	 SCS Total Energy          =    -889.9332168921649782 [Eh]
	-----------------------------------------------------------

  Dipole Moment: [D]
     X:     2.6055      Y:     5.8523      Z:     1.9213     Total:     6.6880

*** Psi4 exiting successfully. Buy a developer a beer!
