                               Psi4 1.4a3.dev225

  ==> Input File <==

--------------------------------------------------------------------------
#psi4
#
memory 32 gb

molecule  {
0 1
  O       -1.3191770     0.6538360    -1.0992360
  O       -1.5735610    -2.4640850     0.5135810
  O       -3.5606630    -1.0699430    -0.4600060
  O       -1.4399290     3.1254620     0.1265180
  O        1.1065530    -2.3833650     0.0076020
  N        0.7686360    -0.1579440    -0.3706350
  N        2.9363770    -0.9938720     0.1460080
  N        4.7058880     0.4431110     0.3611260
  C       -1.3768610    -1.0680440     0.5552780
  C       -2.7379840    -0.3746360     0.4578480
  C       -0.6377490    -0.5042940    -0.6790150
  C       -2.3707440     0.9655450    -0.1585060
  C       -1.8992030     1.9895750     0.8571380
  C        1.2309690     1.1190800    -0.4442230
  C        1.6104480    -1.2470590    -0.0585760
  C        2.5474650     1.3753690    -0.1998620
  C        3.3802090     0.2523040     0.0808410
  H       -0.8441360    -0.7686950     1.4698480
  H       -3.2346012    -0.2761212     1.4578665
  H       -0.6227070    -1.2428120    -1.4883720
  H       -3.1941750     1.3785730    -0.7472070
  H       -1.0952130     1.5703990     1.4802000
  H       -2.7410530     2.2466610     1.5166010
  H       -0.6710550    -2.8260740     0.3542250
  H       -3.3063470    -2.0105220    -0.3629290
  H        0.4929290     1.8778260    -0.6840360
  H       -1.2098800     3.8154810     0.7720340
  H        2.9334840     2.3875570    -0.2389120
  H        5.1589650     1.2712730    -0.0008400
  H        5.2635310    -0.4031270     0.3606700
units angstrom
no_reorient  #important for SAPT in psi4, default
symmetry c1  #important for SAPT in psi4, default
}

set PROPERTIES_ORIGIN ["COM"]
properties('MP2/aug-cc-pvtz', properties = ['dipole'])
--------------------------------------------------------------------------

    Molecular point group: c1
  Charge       = 0
  Multiplicity = 1
  Basis Set: AUG-CC-PVTZ
    Blend: AUG-CC-PVTZ
  Basis Set: (AUG-CC-PVTZ AUX)
    Blend: AUG-CC-PVTZ-JKFIT

    Orbital Energies [Eh]
    ---------------------

    Doubly Occupied:

       1A    -20.586678     2A    -20.581579     3A    -20.559409
       4A    -20.556878     5A    -20.519754     6A    -15.633025
       7A    -15.599688     8A    -15.551783     9A    -11.385999
      10A    -11.358091    11A    -11.339724    12A    -11.325152
      13A    -11.303494    14A    -11.298144    15A    -11.297200
      16A    -11.295828    17A    -11.246586    18A     -1.429367
      19A     -1.394138    20A     -1.383056    21A     -1.375596
      22A     -1.346721    23A     -1.303689    24A     -1.271373
      25A     -1.181222    26A     -1.079385    27A     -1.067661
      28A     -1.017297    29A     -0.936258    30A     -0.906697
      31A     -0.876711    32A     -0.830059    33A     -0.810966
      34A     -0.766492    35A     -0.749901    36A     -0.735203
      37A     -0.721621    38A     -0.707969    39A     -0.703470
      40A     -0.685107    41A     -0.674530    42A     -0.653356
      43A     -0.649041    44A     -0.632940    45A     -0.620245
      46A     -0.615034    47A     -0.607829    48A     -0.592997
      49A     -0.576487    50A     -0.565070    51A     -0.555824
      52A     -0.548248    53A     -0.536769    54A     -0.531071
      55A     -0.495726    56A     -0.480774    57A     -0.473743
      58A     -0.463326    59A     -0.457856    60A     -0.452957
      61A     -0.441591    62A     -0.430298    63A     -0.392269
      64A     -0.348262

  @DF-RHF Final Energy:  -886.37353875244219

   => Energetics <=

    Nuclear Repulsion Energy =           1334.4479254155710350
    One-Electron Energy =               -3866.6125021419838959
    Two-Electron Energy =                1645.7910379739703330
    Total Energy =                       -886.3735387524423004
  Basis Set: (AUG-CC-PVTZ AUX)
    Blend: AUG-CC-PVTZ-RI
    Molecular point group: c1

    Geometry (in Angstrom), charge = 0, multiplicity = 1:

       Center              X                  Y                   Z               Mass
    ------------   -----------------  -----------------  -----------------  -----------------
         O           -1.331883916536     0.682440178963    -1.083529767691    15.994914619570
         O           -1.586267916536    -2.435480821037     0.529287232309    15.994914619570
         O           -3.573369916536    -1.041338821037    -0.444299767691    15.994914619570
         O           -1.452635916536     3.154066178963     0.142224232309    15.994914619570
         O            1.093846083464    -2.354760821037     0.023308232309    15.994914619570
         N            0.755929083464    -0.129339821037    -0.354928767691    14.003074004430
         N            2.923670083464    -0.965267821037     0.161714232309    14.003074004430
         N            4.693181083464     0.471715178963     0.376832232309    14.003074004430
         C           -1.389567916536    -1.039439821037     0.570984232309    12.000000000000
         C           -2.750690916536    -0.346031821037     0.473554232309    12.000000000000
         C           -0.650455916536    -0.475689821037    -0.663308767691    12.000000000000
         C           -2.383450916536     0.994149178963    -0.142799767691    12.000000000000
         C           -1.911909916536     2.018179178963     0.872844232309    12.000000000000
         C            1.218262083464     1.147684178963    -0.428516767691    12.000000000000
         C            1.597741083464    -1.218454821037    -0.042869767691    12.000000000000
         C            2.534758083464     1.403973178963    -0.184155767691    12.000000000000
         C            3.367502083464     0.280908178963     0.096547232309    12.000000000000
         H           -0.856842916536    -0.740090821037     1.485554232309     1.007825032230
         H           -3.247308116536    -0.247517021037     1.473572732309     1.007825032230
         H           -0.635413916536    -1.214207821037    -1.472665767691     1.007825032230
         H           -3.206881916536     1.407177178963    -0.731500767691     1.007825032230
         H           -1.107919916536     1.599003178963     1.495906232309     1.007825032230
         H           -2.753759916536     2.275265178963     1.532307232309     1.007825032230
         H           -0.683761916536    -2.797469821037     0.369931232309     1.007825032230
         H           -3.319053916536    -1.981917821037    -0.347222767691     1.007825032230
         H            0.480222083464     1.906430178963    -0.668329767691     1.007825032230
         H           -1.222586916536     3.844085178963     0.787740232309     1.007825032230
         H            2.920777083464     2.416161178963    -0.223205767691     1.007825032230
         H            5.146258083464     1.299877178963     0.014866232309     1.007825032230
         H            5.250824083464    -0.374522821037     0.376376232309     1.007825032230

  Basis Set: AUG-CC-PVTZ
    Blend: AUG-CC-PVTZ
  Basis Set: (AUG-CC-PVTZ AUX)
    Blend: AUG-CC-PVTZ-JKFIT
	 Reference Energy          =    -886.3735387524421867 [Eh]
	 Singles Energy            =      -0.0000000000000000 [Eh]
	 Same-Spin Energy          =      -0.9018554614585500 [Eh]
	 Opposite-Spin Energy      =      -2.7160949672413088 [Eh]
	 Correlation Energy        =      -3.6179504286998587 [Eh]
	 Total Energy              =    -889.9914891811420148 [Eh]

	 ================> DF-SCS-MP2 Energies <==================
	-----------------------------------------------------------
	 SCS Same-Spin Scale       =       0.3333333333333333 [-]
	 SCS Opposite-Spin Scale   =       1.2000000000000000 [-]
	 SCS Same-Spin Energy      =      -0.3006184871528500 [Eh]
	 SCS Opposite-Spin Energy  =      -3.2593139606895707 [Eh]
	 SCS Correlation Energy    =      -3.5599324478424208 [Eh]
	 SCS Total Energy          =    -889.9334712002846572 [Eh]
	-----------------------------------------------------------

  Dipole Moment: [D]
     X:     2.7411      Y:     5.7944      Z:     1.9330     Total:     6.6951

*** Psi4 exiting successfully. Buy a developer a beer!
