                               Psi4 1.4a3.dev225

  ==> Input File <==

--------------------------------------------------------------------------
#psi4
#
memory 32 gb

molecule  {
0 1
  O       -1.3191770     0.6538360    -1.0992360
  O       -1.5735610    -2.4640850     0.5135810
  O       -3.5606630    -1.0699430    -0.4600060
  O       -1.4399290     3.1254620     0.1265180
  O        1.1065530    -2.3833650     0.0076020
  N        0.7686360    -0.1579440    -0.3706350
  N        2.9363770    -0.9938720     0.1460080
  N        4.7058880     0.4431110     0.3611260
  C       -1.3768610    -1.0680440     0.5552780
  C       -2.7379840    -0.3746360     0.4578480
  C       -0.6377490    -0.5042940    -0.6790150
  C       -2.3707440     0.9655450    -0.1585060
  C       -1.8992030     1.9895750     0.8571380
  C        1.2309690     1.1190800    -0.4442230
  C        1.6104480    -1.2470590    -0.0585760
  C        2.5474650     1.3753690    -0.1998620
  C        3.3802090     0.2523040     0.0808410
  H       -0.8441360    -0.7686950     1.4698480
  H       -3.2257400    -0.2778790     1.4400230
  H       -0.6220206    -1.2765108    -1.5253032
  H       -3.1941750     1.3785730    -0.7472070
  H       -1.0952130     1.5703990     1.4802000
  H       -2.7410530     2.2466610     1.5166010
  H       -0.6710550    -2.8260740     0.3542250
  H       -3.3063470    -2.0105220    -0.3629290
  H        0.4929290     1.8778260    -0.6840360
  H       -1.2098800     3.8154810     0.7720340
  H        2.9334840     2.3875570    -0.2389120
  H        5.1589650     1.2712730    -0.0008400
  H        5.2635310    -0.4031270     0.3606700
units angstrom
no_reorient  #important for SAPT in psi4, default
symmetry c1  #important for SAPT in psi4, default
}

set PROPERTIES_ORIGIN ["COM"]
properties('MP2/aug-cc-pvtz', properties = ['dipole'])
--------------------------------------------------------------------------

    Molecular point group: c1
  Charge       = 0
  Multiplicity = 1
  Basis Set: AUG-CC-PVTZ
    Blend: AUG-CC-PVTZ
  Basis Set: (AUG-CC-PVTZ AUX)
    Blend: AUG-CC-PVTZ-JKFIT

    Orbital Energies [Eh]
    ---------------------

    Doubly Occupied:

       1A    -20.586841     2A    -20.581919     3A    -20.559165
       4A    -20.556338     5A    -20.519611     6A    -15.633360
       7A    -15.599687     8A    -15.551763     9A    -11.385882
      10A    -11.358082    11A    -11.344798    12A    -11.325205
      13A    -11.303707    14A    -11.298132    15A    -11.297339
      16A    -11.293612    17A    -11.246661    18A     -1.429261
      19A     -1.394070    20A     -1.383047    21A     -1.375517
      22A     -1.346400    23A     -1.303661    24A     -1.271373
      25A     -1.181154    26A     -1.078926    27A     -1.068191
      28A     -1.016388    29A     -0.935383    30A     -0.906748
      31A     -0.876828    32A     -0.827295    33A     -0.812453
      34A     -0.766242    35A     -0.750325    36A     -0.732716
      37A     -0.722050    38A     -0.708017    39A     -0.703195
      40A     -0.684847    41A     -0.674567    42A     -0.651548
      43A     -0.648834    44A     -0.633042    45A     -0.620258
      46A     -0.614819    47A     -0.607697    48A     -0.593065
      49A     -0.577079    50A     -0.563760    51A     -0.555821
      52A     -0.547292    53A     -0.536697    54A     -0.529325
      55A     -0.495528    56A     -0.480779    57A     -0.473817
      58A     -0.462965    59A     -0.457728    60A     -0.452964
      61A     -0.441487    62A     -0.430088    63A     -0.391910
      64A     -0.348159

  @DF-RHF Final Energy:  -886.37159032620752

   => Energetics <=

    Nuclear Repulsion Energy =           1334.2466492350492899
    One-Electron Energy =               -3866.2256440376040700
    Two-Electron Energy =                1645.6074044763470283
    Total Energy =                       -886.3715903262075244
  Basis Set: (AUG-CC-PVTZ AUX)
    Blend: AUG-CC-PVTZ-RI
    Molecular point group: c1

    Geometry (in Angstrom), charge = 0, multiplicity = 1:

       Center              X                  Y                   Z               Mass
    ------------   -----------------  -----------------  -----------------  -----------------
         O           -1.331923500590     0.682587180927    -1.083302673483    15.994914619570
         O           -1.586307500590    -2.435333819073     0.529514326517    15.994914619570
         O           -3.573409500590    -1.041191819073    -0.444072673483    15.994914619570
         O           -1.452675500590     3.154213180927     0.142451326517    15.994914619570
         O            1.093806499410    -2.354613819073     0.023535326517    15.994914619570
         N            0.755889499410    -0.129192819073    -0.354701673483    14.003074004430
         N            2.923630499410    -0.965120819073     0.161941326517    14.003074004430
         N            4.693141499410     0.471862180927     0.377059326517    14.003074004430
         C           -1.389607500590    -1.039292819073     0.571211326517    12.000000000000
         C           -2.750730500590    -0.345884819073     0.473781326517    12.000000000000
         C           -0.650495500590    -0.475542819073    -0.663081673483    12.000000000000
         C           -2.383490500590     0.994296180927    -0.142572673483    12.000000000000
         C           -1.911949500590     2.018326180927     0.873071326517    12.000000000000
         C            1.218222499410     1.147831180927    -0.428289673483    12.000000000000
         C            1.597701499410    -1.218307819073    -0.042642673483    12.000000000000
         C            2.534718499410     1.404120180927    -0.183928673483    12.000000000000
         C            3.367462499410     0.281055180927     0.096774326517    12.000000000000
         H           -0.856882500590    -0.739943819073     1.485781326517     1.007825032230
         H           -3.238486500590    -0.249127819073     1.455956326517     1.007825032230
         H           -0.634767100590    -1.247759619073    -1.509369873483     1.007825032230
         H           -3.206921500590     1.407324180927    -0.731273673483     1.007825032230
         H           -1.107959500590     1.599150180927     1.496133326517     1.007825032230
         H           -2.753799500590     2.275412180927     1.532534326517     1.007825032230
         H           -0.683801500590    -2.797322819073     0.370158326517     1.007825032230
         H           -3.319093500590    -1.981770819073    -0.346995673483     1.007825032230
         H            0.480182499410     1.906577180927    -0.668102673483     1.007825032230
         H           -1.222626500590     3.844232180927     0.787967326517     1.007825032230
         H            2.920737499410     2.416308180927    -0.222978673483     1.007825032230
         H            5.146218499410     1.300024180927     0.015093326517     1.007825032230
         H            5.250784499410    -0.374375819073     0.376603326517     1.007825032230

  Basis Set: AUG-CC-PVTZ
    Blend: AUG-CC-PVTZ
  Basis Set: (AUG-CC-PVTZ AUX)
    Blend: AUG-CC-PVTZ-JKFIT
	 Reference Energy          =    -886.3715903262075244 [Eh]
	 Singles Energy            =      -0.0000000000000000 [Eh]
	 Same-Spin Energy          =      -0.9020439233038124 [Eh]
	 Opposite-Spin Energy      =      -2.7165136031356254 [Eh]
	 Correlation Energy        =      -3.6185575264394378 [Eh]
	 Total Energy              =    -889.9901478526469418 [Eh]

	 ================> DF-SCS-MP2 Energies <==================
	-----------------------------------------------------------
	 SCS Same-Spin Scale       =       0.3333333333333333 [-]
	 SCS Opposite-Spin Scale   =       1.2000000000000000 [-]
	 SCS Same-Spin Energy      =      -0.3006813077679374 [Eh]
	 SCS Opposite-Spin Energy  =      -3.2598163237627502 [Eh]
	 SCS Correlation Energy    =      -3.5604976315306875 [Eh]
	 SCS Total Energy          =    -889.9320879577381902 [Eh]
	-----------------------------------------------------------

  Dipole Moment: [D]
     X:     2.7351      Y:     5.8109      Z:     1.9537     Total:     6.7130

*** Psi4 exiting successfully. Buy a developer a beer!
