                               Psi4 1.3.2 release

  ==> Input File <==

--------------------------------------------------------------------------
#psi4
#
memory 32 gb

molecule  {
0 1
  O       -1.2481010    -0.6526680     1.0325150
  O       -1.2569814     2.4833502    -0.6835887
  O       -3.2165300     1.5210990     0.7448870
  O       -2.3570290    -3.0668370     0.0949400
  O        1.3605300     2.2470340    -0.0765420
  N        0.8434040     0.0452230     0.2559430
  N        3.0572260     0.7205030    -0.2937270
  N        4.7164630    -0.8366550    -0.5722980
  C       -1.2894840     1.0784300    -0.5920770
  C       -2.7188911     0.6679788    -0.2573539
  C       -0.5254080     0.4815200     0.6000940
  C       -2.5292560    -0.7168860     0.3610560
  C       -2.5283440    -1.8503930    -0.6392900
  C        1.2197750    -1.2614080     0.3112740
  C        1.7555940     1.0674350    -0.0594030
  C        2.5111010    -1.6091400     0.0469950
  C        3.4119830    -0.5506530    -0.2589250
  H       -0.9376060     0.5914040    -1.5148910
  H       -3.3625820     0.6426650    -1.1464650
  H       -0.4402900     1.2218800     1.4039980
  H       -3.2819570    -0.9087340     1.1307830
  H       -1.7133080    -1.7003050    -1.3694640
  H       -3.4855610    -1.8340040    -1.1841350
  H       -0.2975250     2.7131790    -0.5250000
  H       -2.8475560     2.3997430     0.5086630
  H        0.4343110    -1.9634370     0.5690680
  H       -2.4338740    -3.7984320    -0.5432330
  H        2.8291120    -2.6453980     0.0739220
  H        5.1251800    -1.6708610    -0.1624140
  H        5.3198140    -0.0200540    -0.5682940
units angstrom
no_reorient  #important for SAPT in psi4, default
symmetry c1  #important for SAPT in psi4, default
}

set PROPERTIES_ORIGIN ["COM"]
properties('MP2/aug-cc-pvtz', properties = ['dipole'])
--------------------------------------------------------------------------

    Molecular point group: c1
  Charge       = 0
  Multiplicity = 1
  Basis Set: AUG-CC-PVTZ
    Blend: AUG-CC-PVTZ
  Basis Set: (AUG-CC-PVTZ AUX)
    Blend: AUG-CC-PVTZ-JKFIT

    Orbital Energies [Eh]
    ---------------------

    Doubly Occupied:

       1A    -20.581866     2A    -20.581318     3A    -20.558293
       4A    -20.558008     5A    -20.522554     6A    -15.637089
       7A    -15.599988     8A    -15.553557     9A    -11.388589
      10A    -11.358032    11A    -11.341543    12A    -11.328624
      13A    -11.300660    14A    -11.296467    15A    -11.296134
      16A    -11.292423    17A    -11.248677    18A     -1.429110
      19A     -1.396636    20A     -1.381002    21A     -1.372592
      22A     -1.346859    23A     -1.306288    24A     -1.273914
      25A     -1.182418    26A     -1.081994    27A     -1.065184
      28A     -1.020762    29A     -0.935148    30A     -0.909473
      31A     -0.876813    32A     -0.831241    33A     -0.811945
      34A     -0.767064    35A     -0.752169    36A     -0.735632
      37A     -0.720152    38A     -0.702993    39A     -0.698135
      40A     -0.685702    41A     -0.673015    42A     -0.654526
      43A     -0.651522    44A     -0.638498    45A     -0.620409
      46A     -0.614070    47A     -0.606740    48A     -0.594008
      49A     -0.576164    50A     -0.569501    51A     -0.554213
      52A     -0.546428    53A     -0.537521    54A     -0.531667
      55A     -0.497928    56A     -0.476844    57A     -0.472529
      58A     -0.461920    59A     -0.460125    60A     -0.452633
      61A     -0.440396    62A     -0.433270    63A     -0.395379
      64A     -0.350215

  @DF-RHF Final Energy:  -886.37249860411987

   => Energetics <=

    Nuclear Repulsion Energy =           1323.5216188800641248
    One-Electron Energy =               -3844.7150934144201528
    Two-Electron Energy =                1634.8209759302360453
    Total Energy =                       -886.3724986041199827
  Basis Set: (AUG-CC-PVTZ AUX)
    Blend: AUG-CC-PVTZ-RI
    Molecular point group: c1

    Geometry (in Angstrom), charge = 0, multiplicity = 1:

       Center              X                  Y                   Z               Mass
    ------------   -----------------  -----------------  -----------------  -----------------
         O           -1.247127374368    -0.653331321272     1.032343689549    15.994914619570
         O           -1.256007774368     2.482686878728    -0.683760010451    15.994914619570
         O           -3.215556374368     1.520435678728     0.744715689549    15.994914619570
         O           -2.356055374368    -3.067500321272     0.094768689549    15.994914619570
         O            1.361503625632     2.246370678728    -0.076713310451    15.994914619570
         N            0.844377625632     0.044559678728     0.255771689549    14.003074004430
         N            3.058199625632     0.719839678728    -0.293898310451    14.003074004430
         N            4.717436625632    -0.837318321272    -0.572469310451    14.003074004430
         C           -1.288510374368     1.077766678728    -0.592248310451    12.000000000000
         C           -2.717917474368     0.667315478728    -0.257525210451    12.000000000000
         C           -0.524434374368     0.480856678728     0.599922689549    12.000000000000
         C           -2.528282374368    -0.717549321272     0.360884689549    12.000000000000
         C           -2.527370374368    -1.851056321272    -0.639461310451    12.000000000000
         C            1.220748625632    -1.262071321272     0.311102689549    12.000000000000
         C            1.756567625632     1.066771678728    -0.059574310451    12.000000000000
         C            2.512074625632    -1.609803321272     0.046823689549    12.000000000000
         C            3.412956625632    -0.551316321272    -0.259096310451    12.000000000000
         H           -0.936632374368     0.590740678728    -1.515062310451     1.007825032230
         H           -3.361608374368     0.642001678728    -1.146636310451     1.007825032230
         H           -0.439316374368     1.221216678728     1.403826689549     1.007825032230
         H           -3.280983374368    -0.909397321272     1.130611689549     1.007825032230
         H           -1.712334374368    -1.700968321272    -1.369635310451     1.007825032230
         H           -3.484587374368    -1.834667321272    -1.184306310451     1.007825032230
         H           -0.296551374368     2.712515678728    -0.525171310451     1.007825032230
         H           -2.846582374368     2.399079678728     0.508491689549     1.007825032230
         H            0.435284625632    -1.964100321272     0.568896689549     1.007825032230
         H           -2.432900374368    -3.799095321272    -0.543404310451     1.007825032230
         H            2.830085625632    -2.646061321272     0.073750689549     1.007825032230
         H            5.126153625632    -1.671524321272    -0.162585310451     1.007825032230
         H            5.320787625632    -0.020717321272    -0.568465310451     1.007825032230

  Basis Set: AUG-CC-PVTZ
    Blend: AUG-CC-PVTZ
  Basis Set: (AUG-CC-PVTZ AUX)
    Blend: AUG-CC-PVTZ-JKFIT
	 Reference Energy          =    -886.3724986041198690 [Eh]
	 Singles Energy            =      -0.0000000000000000 [Eh]
	 Same-Spin Energy          =      -0.9014277191496167 [Eh]
	 Opposite-Spin Energy      =      -2.7152334201462152 [Eh]
	 Correlation Energy        =      -3.6166611392958319 [Eh]
	 Total Energy              =    -889.9891597434157120 [Eh]

	 ================> DF-SCS-MP2 Energies <==================
	-----------------------------------------------------------
	 SCS Same-Spin Scale       =       0.3333333333333333 [-]
	 SCS Opposite-Spin Scale   =       1.2000000000000000 [-]
	 SCS Same-Spin Energy      =      -0.3004759063832055 [Eh]
	 SCS Opposite-Spin Energy  =      -3.2582801041754581 [Eh]
	 SCS Correlation Energy    =      -3.5587560105586635 [Eh]
	 SCS Total Energy          =    -889.9312546146785508 [Eh]
	-----------------------------------------------------------

  Dipole Moment: [D]
     X:     1.7423      Y:    -5.9196      Z:    -1.8147     Total:     6.4320

*** Psi4 exiting successfully. Buy a developer a beer!
