                               Psi4 1.3.2 release

  ==> Input File <==

--------------------------------------------------------------------------
#psi4
#
memory 32 gb

molecule  {
0 1
  O       -1.2481010    -0.6526680     1.0325150
  O       -1.2449750     2.4828510    -0.6861630
  O       -3.2165300     1.5210990     0.7448870
  O       -2.3570290    -3.0668370     0.0949400
  O        1.3605300     2.2470340    -0.0765420
  N        0.8434040     0.0452230     0.2559430
  N        3.0572260     0.7205030    -0.2937270
  N        4.7164630    -0.8366550    -0.5722980
  C       -1.2894840     1.0784300    -0.5920770
  C       -2.7151710     0.6552070    -0.2573930
  C       -0.5026802     0.5546286     0.5891165
  C       -2.5292560    -0.7168860     0.3610560
  C       -2.5283440    -1.8503930    -0.6392900
  C        1.2197750    -1.2614080     0.3112740
  C        1.7017867     1.1163330    -0.0479541
  C        2.5111010    -1.6091400     0.0469950
  C        3.4119830    -0.5506530    -0.2589250
  H       -0.9376060     0.5914040    -1.5148910
  H       -3.3625820     0.6426650    -1.1464650
  H       -0.4402900     1.2218800     1.4039980
  H       -3.2819570    -0.9087340     1.1307830
  H       -1.7133080    -1.7003050    -1.3694640
  H       -3.4855610    -1.8340040    -1.1841350
  H       -0.2975250     2.7131790    -0.5250000
  H       -2.8475560     2.3997430     0.5086630
  H        0.4343110    -1.9634370     0.5690680
  H       -2.4338740    -3.7984320    -0.5432330
  H        2.8291120    -2.6453980     0.0739220
  H        5.1251800    -1.6708610    -0.1624140
  H        5.3198140    -0.0200540    -0.5682940
units angstrom
no_reorient  #important for SAPT in psi4, default
symmetry c1  #important for SAPT in psi4, default
}

set PROPERTIES_ORIGIN ["COM"]
properties('MP2/aug-cc-pvtz', properties = ['dipole'])
--------------------------------------------------------------------------

    Molecular point group: c1
  Charge       = 0
  Multiplicity = 1
  Basis Set: AUG-CC-PVTZ
    Blend: AUG-CC-PVTZ
  Basis Set: (AUG-CC-PVTZ AUX)
    Blend: AUG-CC-PVTZ-JKFIT

    Orbital Energies [Eh]
    ---------------------

    Doubly Occupied:

       1A    -20.579963     2A    -20.574241     3A    -20.562552
       4A    -20.559687     5A    -20.542688     6A    -15.635198
       7A    -15.593289     8A    -15.546921     9A    -11.390967
      10A    -11.349068    11A    -11.342919    12A    -11.326135
      13A    -11.300290    14A    -11.298643    15A    -11.294760
      16A    -11.292668    17A    -11.245236    18A     -1.444547
      19A     -1.406713    20A     -1.379838    21A     -1.367396
      22A     -1.350651    23A     -1.309276    24A     -1.269611
      25A     -1.164176    26A     -1.081802    27A     -1.063479
      28A     -1.023091    29A     -0.935777    30A     -0.907847
      31A     -0.869922    32A     -0.832795    33A     -0.807762
      34A     -0.760773    35A     -0.751618    36A     -0.742820
      37A     -0.718585    38A     -0.702536    39A     -0.697545
      40A     -0.683908    41A     -0.671691    42A     -0.663107
      43A     -0.655782    44A     -0.639110    45A     -0.619219
      46A     -0.613894    47A     -0.604785    48A     -0.599522
      49A     -0.573198    50A     -0.567573    51A     -0.554522
      52A     -0.547037    53A     -0.543087    54A     -0.532849
      55A     -0.506177    56A     -0.480330    57A     -0.475387
      58A     -0.474419    59A     -0.458797    60A     -0.455169
      61A     -0.444572    62A     -0.419698    63A     -0.389975
      64A     -0.348950

  @DF-RHF Final Energy:  -886.35858034027501

   => Energetics <=

    Nuclear Repulsion Energy =           1323.5211531321897382
    One-Electron Energy =               -3844.6663807098484540
    Two-Electron Energy =                1634.7866472373837041
    Total Energy =                       -886.3585803402750116
  Basis Set: (AUG-CC-PVTZ AUX)
    Blend: AUG-CC-PVTZ-RI
    Molecular point group: c1

    Geometry (in Angstrom), charge = 0, multiplicity = 1:

       Center              X                  Y                   Z               Mass
    ------------   -----------------  -----------------  -----------------  -----------------
         O           -1.246566783771    -0.658690887469     1.032491736658    15.994914619570
         O           -1.243440783771     2.476828112531    -0.686186263342    15.994914619570
         O           -3.214995783771     1.515076112531     0.744863736658    15.994914619570
         O           -2.355494783771    -3.072859887469     0.094916736658    15.994914619570
         O            1.362064216229     2.241011112531    -0.076565263342    15.994914619570
         N            0.844938216229     0.039200112531     0.255919736658    14.003074004430
         N            3.058760216229     0.714480112531    -0.293750263342    14.003074004430
         N            4.717997216229    -0.842677887469    -0.572321263342    14.003074004430
         C           -1.287949783771     1.072407112531    -0.592100263342    12.000000000000
         C           -2.713636783771     0.649184112531    -0.257416263342    12.000000000000
         C           -0.501145983771     0.548605712531     0.589093236658    12.000000000000
         C           -2.527721783771    -0.722908887469     0.361032736658    12.000000000000
         C           -2.526809783771    -1.856415887469    -0.639313263342    12.000000000000
         C            1.221309216229    -1.267430887469     0.311250736658    12.000000000000
         C            1.703320916229     1.110310112531    -0.047977363342    12.000000000000
         C            2.512635216229    -1.615162887469     0.046971736658    12.000000000000
         C            3.413517216229    -0.556675887469    -0.258948263342    12.000000000000
         H           -0.936071783771     0.585381112531    -1.514914263342     1.007825032230
         H           -3.361047783771     0.636642112531    -1.146488263342     1.007825032230
         H           -0.438755783771     1.215857112531     1.403974736658     1.007825032230
         H           -3.280422783771    -0.914756887469     1.130759736658     1.007825032230
         H           -1.711773783771    -1.706327887469    -1.369487263342     1.007825032230
         H           -3.484026783771    -1.840026887469    -1.184158263342     1.007825032230
         H           -0.295990783771     2.707156112531    -0.525023263342     1.007825032230
         H           -2.846021783771     2.393720112531     0.508639736658     1.007825032230
         H            0.435845216229    -1.969459887469     0.569044736658     1.007825032230
         H           -2.432339783771    -3.804454887469    -0.543256263342     1.007825032230
         H            2.830646216229    -2.651420887469     0.073898736658     1.007825032230
         H            5.126714216229    -1.676883887469    -0.162437263342     1.007825032230
         H            5.321348216229    -0.026076887469    -0.568317263342     1.007825032230

  Basis Set: AUG-CC-PVTZ
    Blend: AUG-CC-PVTZ
  Basis Set: (AUG-CC-PVTZ AUX)
    Blend: AUG-CC-PVTZ-JKFIT
	 Reference Energy          =    -886.3585803402750116 [Eh]
	 Singles Energy            =      -0.0000000000000000 [Eh]
	 Same-Spin Energy          =      -0.9006423995329496 [Eh]
	 Opposite-Spin Energy      =      -2.7158759382665840 [Eh]
	 Correlation Energy        =      -3.6165183377995334 [Eh]
	 Total Energy              =    -889.9750986780745734 [Eh]

	 ================> DF-SCS-MP2 Energies <==================
	-----------------------------------------------------------
	 SCS Same-Spin Scale       =       0.3333333333333333 [-]
	 SCS Opposite-Spin Scale   =       1.2000000000000000 [-]
	 SCS Same-Spin Energy      =      -0.3002141331776498 [Eh]
	 SCS Opposite-Spin Energy  =      -3.2590511259199006 [Eh]
	 SCS Correlation Energy    =      -3.5592652590975504 [Eh]
	 SCS Total Energy          =    -889.9178455993725265 [Eh]
	-----------------------------------------------------------

  Dipole Moment: [D]
     X:     1.4571      Y:    -5.1716      Z:    -1.8133     Total:     5.6707

*** Psi4 exiting successfully. Buy a developer a beer!
