                               Psi4 1.3.2 release

  ==> Input File <==

--------------------------------------------------------------------------
#psi4
#
memory 32 gb

molecule  {
0 1
  O       -1.2481010    -0.6526680     1.0325150
  O       -1.2449750     2.4828510    -0.6861630
  O       -3.2165300     1.5210990     0.7448870
  O       -2.3570290    -3.0668370     0.0949400
  O        1.3605300     2.2470340    -0.0765420
  N        0.8434040     0.0452230     0.2559430
  N        3.0572260     0.7205030    -0.2937270
  N        4.7164630    -0.8366550    -0.5722980
  C       -1.2894840     1.0784300    -0.5920770
  C       -2.7151710     0.6552070    -0.2573930
  C       -0.5254080     0.4815200     0.6000940
  C       -2.5292560    -0.7168860     0.3610560
  C       -2.5283440    -1.8503930    -0.6392900
  C        1.2197750    -1.2614080     0.3112740
  C        1.7555940     1.0674350    -0.0594030
  C        2.5111010    -1.6091400     0.0469950
  C        3.4119830    -0.5506530    -0.2589250
  H       -0.9376060     0.5914040    -1.5148910
  H       -3.3625820     0.6426650    -1.1464650
  H       -0.4402900     1.2218800     1.4039980
  H       -3.2819570    -0.9087340     1.1307830
  H       -1.7133080    -1.7003050    -1.3694640
  H       -3.4855610    -1.8340040    -1.1841350
  H       -0.2975250     2.7131790    -0.5250000
  H       -2.8475560     2.3997430     0.5086630
  H        0.4343110    -1.9634370     0.5690680
  H       -2.4338740    -3.7984320    -0.5432330
  H        2.8291120    -2.6453980     0.0739220
  H        5.1400220    -1.6617672    -0.1590889
  H        5.3324548    -0.0296248    -0.5603802
units angstrom
no_reorient  #important for SAPT in psi4, default
symmetry c1  #important for SAPT in psi4, default
}

set PROPERTIES_ORIGIN ["COM"]
properties('MP2/aug-cc-pvtz', properties = ['dipole'])
--------------------------------------------------------------------------

    Molecular point group: c1
  Charge       = 0
  Multiplicity = 1
  Basis Set: AUG-CC-PVTZ
    Blend: AUG-CC-PVTZ
  Basis Set: (AUG-CC-PVTZ AUX)
    Blend: AUG-CC-PVTZ-JKFIT

    Orbital Energies [Eh]
    ---------------------

    Doubly Occupied:

       1A    -20.582243     2A    -20.581622     3A    -20.557792
       4A    -20.557247     5A    -20.522021     6A    -15.637005
       7A    -15.599737     8A    -15.553471     9A    -11.388290
      10A    -11.358304    11A    -11.341581    12A    -11.328537
      13A    -11.301184    14A    -11.296932    15A    -11.296660
      16A    -11.292970    17A    -11.248606    18A     -1.429380
      19A     -1.396412    20A     -1.380122    21A     -1.372815
      22A     -1.346307    23A     -1.305983    24A     -1.273677
      25A     -1.182347    26A     -1.082007    27A     -1.067741
      28A     -1.021448    29A     -0.935671    30A     -0.909458
      31A     -0.877720    32A     -0.832547    33A     -0.811793
      34A     -0.766154    35A     -0.752404    36A     -0.736241
      37A     -0.721346    38A     -0.703137    39A     -0.698486
      40A     -0.683924    41A     -0.672880    42A     -0.654413
      43A     -0.651557    44A     -0.638404    45A     -0.620477
      46A     -0.614389    47A     -0.606762    48A     -0.593906
      49A     -0.575764    50A     -0.569741    51A     -0.554037
      52A     -0.545689    53A     -0.537549    54A     -0.531828
      55A     -0.498101    56A     -0.477506    57A     -0.474450
      58A     -0.462206    59A     -0.460049    60A     -0.452844
      61A     -0.440704    62A     -0.433191    63A     -0.395439
      64A     -0.349992

  @DF-RHF Final Energy:  -886.37331504500946

   => Energetics <=

    Nuclear Repulsion Energy =           1323.6501642261878260
    One-Electron Energy =               -3844.9605616731646478
    Two-Electron Energy =                1634.9370824019674728
    Total Energy =                       -886.3733150450093490
  Basis Set: (AUG-CC-PVTZ AUX)
    Blend: AUG-CC-PVTZ-RI
    Molecular point group: c1

    Geometry (in Angstrom), charge = 0, multiplicity = 1:

       Center              X                  Y                   Z               Mass
    ------------   -----------------  -----------------  -----------------  -----------------
         O           -1.248214976773    -0.652666012234     1.032468411350    15.994914619570
         O           -1.245088976773     2.482852987766    -0.686209588650    15.994914619570
         O           -3.216643976773     1.521100987766     0.744840411350    15.994914619570
         O           -2.357142976773    -3.066835012234     0.094893411350    15.994914619570
         O            1.360416023227     2.247035987766    -0.076588588650    15.994914619570
         N            0.843290023227     0.045224987766     0.255896411350    14.003074004430
         N            3.057112023227     0.720504987766    -0.293773588650    14.003074004430
         N            4.716349023227    -0.836653012234    -0.572344588650    14.003074004430
         C           -1.289597976773     1.078431987766    -0.592123588650    12.000000000000
         C           -2.715284976773     0.655208987766    -0.257439588650    12.000000000000
         C           -0.525521976773     0.481521987766     0.600047411350    12.000000000000
         C           -2.529369976773    -0.716884012234     0.361009411350    12.000000000000
         C           -2.528457976773    -1.850391012234    -0.639336588650    12.000000000000
         C            1.219661023227    -1.261406012234     0.311227411350    12.000000000000
         C            1.755480023227     1.067436987766    -0.059449588650    12.000000000000
         C            2.510987023227    -1.609138012234     0.046948411350    12.000000000000
         C            3.411869023227    -0.550651012234    -0.258971588650    12.000000000000
         H           -0.937719976773     0.591405987766    -1.514937588650     1.007825032230
         H           -3.362695976773     0.642666987766    -1.146511588650     1.007825032230
         H           -0.440403976773     1.221881987766     1.403951411350     1.007825032230
         H           -3.282070976773    -0.908732012234     1.130736411350     1.007825032230
         H           -1.713421976773    -1.700303012234    -1.369510588650     1.007825032230
         H           -3.485674976773    -1.834002012234    -1.184181588650     1.007825032230
         H           -0.297638976773     2.713180987766    -0.525046588650     1.007825032230
         H           -2.847669976773     2.399744987766     0.508616411350     1.007825032230
         H            0.434197023227    -1.963435012234     0.569021411350     1.007825032230
         H           -2.433987976773    -3.798430012234    -0.543279588650     1.007825032230
         H            2.828998023227    -2.645396012234     0.073875411350     1.007825032230
         H            5.139908023227    -1.661765212234    -0.159135488650     1.007825032230
         H            5.332340823227    -0.029622812234    -0.560426788650     1.007825032230

  Basis Set: AUG-CC-PVTZ
    Blend: AUG-CC-PVTZ
  Basis Set: (AUG-CC-PVTZ AUX)
    Blend: AUG-CC-PVTZ-JKFIT
	 Reference Energy          =    -886.3733150450094627 [Eh]
	 Singles Energy            =      -0.0000000000000000 [Eh]
	 Same-Spin Energy          =      -0.9012296423028470 [Eh]
	 Opposite-Spin Energy      =      -2.7149426196528506 [Eh]
	 Correlation Energy        =      -3.6161722619556977 [Eh]
	 Total Energy              =    -889.9894873069652022 [Eh]

	 ================> DF-SCS-MP2 Energies <==================
	-----------------------------------------------------------
	 SCS Same-Spin Scale       =       0.3333333333333333 [-]
	 SCS Opposite-Spin Scale   =       1.2000000000000000 [-]
	 SCS Same-Spin Energy      =      -0.3004098807676157 [Eh]
	 SCS Opposite-Spin Energy  =      -3.2579311435834204 [Eh]
	 SCS Correlation Energy    =      -3.5583410243510363 [Eh]
	 SCS Total Energy          =    -889.9316560693605425 [Eh]
	-----------------------------------------------------------

  Dipole Moment: [D]
     X:     1.7192      Y:    -5.9452      Z:    -1.8043     Total:     6.4465

*** Psi4 exiting successfully. Buy a developer a beer!
