                               Psi4 1.4a3.dev225

  ==> Input File <==

--------------------------------------------------------------------------
#psi4
#
memory 32 gb

molecule  {
0 1
  O       -1.3191770     0.6538360    -1.0992360
  O       -1.5735610    -2.4640850     0.5135810
  O       -3.5606630    -1.0699430    -0.4600060
  O       -1.4399290     3.1254620     0.1265180
  O        1.1065530    -2.3833650     0.0076020
  N        0.7686360    -0.1579440    -0.3706350
  N        2.9363770    -0.9938720     0.1460080
  N        4.7058880     0.4431110     0.3611260
  C       -1.3768610    -1.0680440     0.5552780
  C       -2.7379840    -0.3746360     0.4578480
  C       -0.6377490    -0.5042940    -0.6790150
  C       -2.3707440     0.9655450    -0.1585060
  C       -1.8992030     1.9895750     0.8571380
  C        1.2309690     1.1190800    -0.4442230
  C        1.6023519    -1.2653161    -0.0575127
  C        2.5474650     1.3753690    -0.1998620
  C        3.3802090     0.2523040     0.0808410
  H       -0.8441360    -0.7686950     1.4698480
  H       -3.2257400    -0.2778790     1.4400230
  H       -0.6227070    -1.2428120    -1.4883720
  H       -3.1941750     1.3785730    -0.7472070
  H       -1.0952130     1.5703990     1.4802000
  H       -2.7410530     2.2466610     1.5166010
  H       -0.6710550    -2.8260740     0.3542250
  H       -3.3063470    -2.0105220    -0.3629290
  H        0.4929290     1.8778260    -0.6840360
  H       -1.2098800     3.8154810     0.7720340
  H        2.9334840     2.3875570    -0.2389120
  H        5.1589650     1.2712730    -0.0008400
  H        5.2635310    -0.4031270     0.3606700
units angstrom
no_reorient  #important for SAPT in psi4, default
symmetry c1  #important for SAPT in psi4, default
}

set PROPERTIES_ORIGIN ["COM"]
properties('MP2/aug-cc-pvtz', properties = ['dipole'])
--------------------------------------------------------------------------

    Molecular point group: c1
  Charge       = 0
  Multiplicity = 1
  Basis Set: AUG-CC-PVTZ
    Blend: AUG-CC-PVTZ
  Basis Set: (AUG-CC-PVTZ AUX)
    Blend: AUG-CC-PVTZ-JKFIT

    Orbital Energies [Eh]
    ---------------------

    Doubly Occupied:

       1A    -20.586398     2A    -20.580975     3A    -20.560705
       4A    -20.556733     5A    -20.525415     6A    -15.630763
       7A    -15.598001     8A    -15.549754     9A    -11.386923
      10A    -11.356162    11A    -11.339011    12A    -11.323705
      13A    -11.303316    14A    -11.297798    15A    -11.297319
      16A    -11.293713    17A    -11.244557    18A     -1.429830
      19A     -1.402231    20A     -1.383490    21A     -1.375928
      22A     -1.347433    23A     -1.305330    24A     -1.269641
      25A     -1.177245    26A     -1.077967    27A     -1.068025
      28A     -1.016541    29A     -0.935716    30A     -0.904320
      31A     -0.875168    32A     -0.829334    33A     -0.812219
      34A     -0.764439    35A     -0.749665    36A     -0.735563
      37A     -0.721950    38A     -0.707693    39A     -0.703308
      40A     -0.684514    41A     -0.674795    42A     -0.653007
      43A     -0.652267    44A     -0.632951    45A     -0.621201
      46A     -0.614863    47A     -0.607266    48A     -0.595572
      49A     -0.576980    50A     -0.564523    51A     -0.555912
      52A     -0.548350    53A     -0.538031    54A     -0.532489
      55A     -0.498325    56A     -0.480732    57A     -0.473933
      58A     -0.465974    59A     -0.460403    60A     -0.453285
      61A     -0.442144    62A     -0.426768    63A     -0.391041
      64A     -0.346896

  @DF-RHF Final Energy:  -886.37442463918978

   => Energetics <=

    Nuclear Repulsion Energy =           1334.5118382030832436
    One-Electron Energy =               -3866.7395144989213804
    Two-Electron Energy =                1645.8532516566483537
    Total Energy =                       -886.3744246391897832
  Basis Set: (AUG-CC-PVTZ AUX)
    Blend: AUG-CC-PVTZ-RI
    Molecular point group: c1

    Geometry (in Angstrom), charge = 0, multiplicity = 1:

       Center              X                  Y                   Z               Mass
    ------------   -----------------  -----------------  -----------------  -----------------
         O           -1.331520988046     0.683348734743    -1.083508279262    15.994914619570
         O           -1.585904988046    -2.434572265257     0.529308720738    15.994914619570
         O           -3.573006988046    -1.040430265257    -0.444278279262    15.994914619570
         O           -1.452272988046     3.154974734743     0.142245720738    15.994914619570
         O            1.094209011954    -2.353852265257     0.023329720738    15.994914619570
         N            0.756292011954    -0.128431265257    -0.354907279262    14.003074004430
         N            2.924033011954    -0.964359265257     0.161735720738    14.003074004430
         N            4.693544011954     0.472623734743     0.376853720738    14.003074004430
         C           -1.389204988046    -1.038531265257     0.571005720738    12.000000000000
         C           -2.750327988046    -0.345123265257     0.473575720738    12.000000000000
         C           -0.650092988046    -0.474781265257    -0.663287279262    12.000000000000
         C           -2.383087988046     0.995057734743    -0.142778279262    12.000000000000
         C           -1.911546988046     2.019087734743     0.872865720738    12.000000000000
         C            1.218625011954     1.148592734743    -0.428495279262    12.000000000000
         C            1.590007911954    -1.235803365257    -0.041784979262    12.000000000000
         C            2.535121011954     1.404881734743    -0.184134279262    12.000000000000
         C            3.367865011954     0.281816734743     0.096568720738    12.000000000000
         H           -0.856479988046    -0.739182265257     1.485575720738     1.007825032230
         H           -3.238083988046    -0.248366265257     1.455750720738     1.007825032230
         H           -0.635050988046    -1.213299265257    -1.472644279262     1.007825032230
         H           -3.206518988046     1.408085734743    -0.731479279262     1.007825032230
         H           -1.107556988046     1.599911734743     1.495927720738     1.007825032230
         H           -2.753396988046     2.276173734743     1.532328720738     1.007825032230
         H           -0.683398988046    -2.796561265257     0.369952720738     1.007825032230
         H           -3.318690988046    -1.981009265257    -0.347201279262     1.007825032230
         H            0.480585011954     1.907338734743    -0.668308279262     1.007825032230
         H           -1.222223988046     3.844993734743     0.787761720738     1.007825032230
         H            2.921140011954     2.417069734743    -0.223184279262     1.007825032230
         H            5.146621011954     1.300785734743     0.014887720738     1.007825032230
         H            5.251187011954    -0.373614265257     0.376397720738     1.007825032230

  Basis Set: AUG-CC-PVTZ
    Blend: AUG-CC-PVTZ
  Basis Set: (AUG-CC-PVTZ AUX)
    Blend: AUG-CC-PVTZ-JKFIT
	 Reference Energy          =    -886.3744246391897832 [Eh]
	 Singles Energy            =      -0.0000000000000000 [Eh]
	 Same-Spin Energy          =      -0.9015253802362353 [Eh]
	 Opposite-Spin Energy      =      -2.7155261087937430 [Eh]
	 Correlation Energy        =      -3.6170514890299783 [Eh]
	 Total Energy              =    -889.9914761282198015 [Eh]

	 ================> DF-SCS-MP2 Energies <==================
	-----------------------------------------------------------
	 SCS Same-Spin Scale       =       0.3333333333333333 [-]
	 SCS Opposite-Spin Scale   =       1.2000000000000000 [-]
	 SCS Same-Spin Energy      =      -0.3005084600787451 [Eh]
	 SCS Opposite-Spin Energy  =      -3.2586313305524914 [Eh]
	 SCS Correlation Energy    =      -3.5591397906312365 [Eh]
	 SCS Total Energy          =    -889.9335644298209900 [Eh]
	-----------------------------------------------------------

  Dipole Moment: [D]
     X:     2.6300      Y:     5.6074      Z:     1.9561     Total:     6.4951

*** Psi4 exiting successfully. Buy a developer a beer!
