                               Psi4 1.4a3.dev225

  ==> Input File <==

--------------------------------------------------------------------------
#psi4
#
memory 32 gb

molecule  {
0 1
  O       -1.3191770     0.6538360    -1.0992360
  O       -1.5735610    -2.4640850     0.5135810
  O       -3.5606630    -1.0699430    -0.4600060
  O       -1.4399290     3.1254620     0.1265180
  O        1.1065530    -2.3833650     0.0076020
  N        0.7686360    -0.1579440    -0.3706350
  N        2.9363770    -0.9938720     0.1460080
  N        4.7058880     0.4431110     0.3611260
  C       -1.3768610    -1.0680440     0.5552780
  C       -2.7379840    -0.3746360     0.4578480
  C       -0.6474290    -0.4878422    -0.6849845
  C       -2.3707440     0.9655450    -0.1585060
  C       -1.8992030     1.9895750     0.8571380
  C        1.2309690     1.1190800    -0.4442230
  C        1.6104480    -1.2470590    -0.0585760
  C        2.5474650     1.3753690    -0.1998620
  C        3.3802090     0.2523040     0.0808410
  H       -0.8441360    -0.7686950     1.4698480
  H       -3.2257400    -0.2778790     1.4400230
  H       -0.6227070    -1.2428120    -1.4883720
  H       -3.1941750     1.3785730    -0.7472070
  H       -1.0952130     1.5703990     1.4802000
  H       -2.7410530     2.2466610     1.5166010
  H       -0.6710550    -2.8260740     0.3542250
  H       -3.3063470    -2.0105220    -0.3629290
  H        0.4929290     1.8778260    -0.6840360
  H       -1.2098800     3.8154810     0.7720340
  H        2.9334840     2.3875570    -0.2389120
  H        5.1589650     1.2712730    -0.0008400
  H        5.2635310    -0.4031270     0.3606700
units angstrom
no_reorient  #important for SAPT in psi4, default
symmetry c1  #important for SAPT in psi4, default
}

set PROPERTIES_ORIGIN ["COM"]
properties('MP2/aug-cc-pvtz', properties = ['dipole'])
--------------------------------------------------------------------------

    Molecular point group: c1
  Charge       = 0
  Multiplicity = 1
  Basis Set: AUG-CC-PVTZ
    Blend: AUG-CC-PVTZ
  Basis Set: (AUG-CC-PVTZ AUX)
    Blend: AUG-CC-PVTZ-JKFIT

    Orbital Energies [Eh]
    ---------------------

    Doubly Occupied:

       1A    -20.587342     2A    -20.583697     3A    -20.559431
       4A    -20.556721     5A    -20.518870     6A    -15.631845
       7A    -15.599177     8A    -15.551290     9A    -11.385403
      10A    -11.357471    11A    -11.339755    12A    -11.324318
      13A    -11.304380    14A    -11.299327    15A    -11.296914
      16A    -11.293668    17A    -11.245886    18A     -1.434568
      19A     -1.393920    20A     -1.383389    21A     -1.377153
      22A     -1.346639    23A     -1.303002    24A     -1.270346
      25A     -1.180477    26A     -1.078106    27A     -1.069821
      28A     -1.016850    29A     -0.936071    30A     -0.906284
      31A     -0.876444    32A     -0.829585    33A     -0.813786
      34A     -0.766177    35A     -0.750224    36A     -0.734900
      37A     -0.722123    38A     -0.708786    39A     -0.703601
      40A     -0.685212    41A     -0.675350    42A     -0.653543
      43A     -0.649487    44A     -0.633510    45A     -0.621365
      46A     -0.615197    47A     -0.608463    48A     -0.592006
      49A     -0.578391    50A     -0.565578    51A     -0.556283
      52A     -0.548376    53A     -0.536809    54A     -0.530855
      55A     -0.495209    56A     -0.481365    57A     -0.473918
      58A     -0.463873    59A     -0.457416    60A     -0.453773
      61A     -0.440856    62A     -0.429677    63A     -0.391512
      64A     -0.347278

  @DF-RHF Final Energy:  -886.37411589777332

   => Energetics <=

    Nuclear Repulsion Energy =           1334.6586416133352486
    One-Electron Energy =               -3867.0194160156866019
    Two-Electron Energy =                1645.9866585045779175
    Total Energy =                       -886.3741158977732084
  Basis Set: (AUG-CC-PVTZ AUX)
    Blend: AUG-CC-PVTZ-RI
    Molecular point group: c1

    Geometry (in Angstrom), charge = 0, multiplicity = 1:

       Center              X                  Y                   Z               Mass
    ------------   -----------------  -----------------  -----------------  -----------------
         O           -1.331442798280     0.681635318004    -1.083161102681    15.994914619570
         O           -1.585826798280    -2.436285681996     0.529655897319    15.994914619570
         O           -3.572928798280    -1.042143681996    -0.443931102681    15.994914619570
         O           -1.452194798280     3.153261318004     0.142592897319    15.994914619570
         O            1.094287201720    -2.355565681996     0.023676897319    15.994914619570
         N            0.756370201720    -0.130144681996    -0.354560102681    14.003074004430
         N            2.924111201720    -0.966072681996     0.162082897319    14.003074004430
         N            4.693622201720     0.470910318004     0.377200897319    14.003074004430
         C           -1.389126798280    -1.040244681996     0.571352897319    12.000000000000
         C           -2.750249798280    -0.346836681996     0.473922897319    12.000000000000
         C           -0.659694798280    -0.460042881996    -0.668909602681    12.000000000000
         C           -2.383009798280     0.993344318004    -0.142431102681    12.000000000000
         C           -1.911468798280     2.017374318004     0.873212897319    12.000000000000
         C            1.218703201720     1.146879318004    -0.428148102681    12.000000000000
         C            1.598182201720    -1.219259681996    -0.042501102681    12.000000000000
         C            2.535199201720     1.403168318004    -0.183787102681    12.000000000000
         C            3.367943201720     0.280103318004     0.096915897319    12.000000000000
         H           -0.856401798280    -0.740895681996     1.485922897319     1.007825032230
         H           -3.238005798280    -0.250079681996     1.456097897319     1.007825032230
         H           -0.634972798280    -1.215012681996    -1.472297102681     1.007825032230
         H           -3.206440798280     1.406372318004    -0.731132102681     1.007825032230
         H           -1.107478798280     1.598198318004     1.496274897319     1.007825032230
         H           -2.753318798280     2.274460318004     1.532675897319     1.007825032230
         H           -0.683320798280    -2.798274681996     0.370299897319     1.007825032230
         H           -3.318612798280    -1.982722681996    -0.346854102681     1.007825032230
         H            0.480663201720     1.905625318004    -0.667961102681     1.007825032230
         H           -1.222145798280     3.843280318004     0.788108897319     1.007825032230
         H            2.921218201720     2.415356318004    -0.222837102681     1.007825032230
         H            5.146699201720     1.299072318004     0.015234897319     1.007825032230
         H            5.251265201720    -0.375327681996     0.376744897319     1.007825032230

  Basis Set: AUG-CC-PVTZ
    Blend: AUG-CC-PVTZ
  Basis Set: (AUG-CC-PVTZ AUX)
    Blend: AUG-CC-PVTZ-JKFIT
	 Reference Energy          =    -886.3741158977733221 [Eh]
	 Singles Energy            =      -0.0000000000000000 [Eh]
	 Same-Spin Energy          =      -0.9018592863467323 [Eh]
	 Opposite-Spin Energy      =      -2.7157315730937821 [Eh]
	 Correlation Energy        =      -3.6175908594405142 [Eh]
	 Total Energy              =    -889.9917067572138194 [Eh]

	 ================> DF-SCS-MP2 Energies <==================
	-----------------------------------------------------------
	 SCS Same-Spin Scale       =       0.3333333333333333 [-]
	 SCS Opposite-Spin Scale   =       1.2000000000000000 [-]
	 SCS Same-Spin Energy      =      -0.3006197621155774 [Eh]
	 SCS Opposite-Spin Energy  =      -3.2588778877125386 [Eh]
	 SCS Correlation Energy    =      -3.5594976498281161 [Eh]
	 SCS Total Energy          =    -889.9336135476014533 [Eh]
	-----------------------------------------------------------

  Dipole Moment: [D]
     X:     2.6437      Y:     5.8493      Z:     1.9404     Total:     6.7059

*** Psi4 exiting successfully. Buy a developer a beer!
