                               Psi4 1.3.2 release

  ==> Input File <==

--------------------------------------------------------------------------
#psi4
#
memory 32 gb

molecule  {
0 1
  O       -1.2481010    -0.6526680     1.0325150
  O       -1.2449750     2.4828510    -0.6861630
  O       -3.2165300     1.5210990     0.7448870
  O       -2.3570290    -3.0668370     0.0949400
  O        1.3605300     2.2470340    -0.0765420
  N        0.8434040     0.0452230     0.2559430
  N        3.0572260     0.7205030    -0.2937270
  N        4.7164630    -0.8366550    -0.5722980
  C       -1.2894840     1.0784300    -0.5920770
  C       -2.7151710     0.6552070    -0.2573930
  C       -0.5254080     0.4815200     0.6000940
  C       -2.5292560    -0.7168860     0.3610560
  C       -2.5283440    -1.8503930    -0.6392900
  C        1.2197750    -1.2614080     0.3112740
  C        1.7555940     1.0674350    -0.0594030
  C        2.5111010    -1.6091400     0.0469950
  C        3.4119830    -0.5506530    -0.2589250
  H       -0.9376060     0.5914040    -1.5148910
  H       -3.3625820     0.6426650    -1.1464650
  H       -0.4402900     1.2218800     1.4039980
  H       -3.2819570    -0.9087340     1.1307830
  H       -1.7133080    -1.7003050    -1.3694640
  H       -3.4855610    -1.8340040    -1.1841350
  H       -0.2975250     2.7131790    -0.5250000
  H       -2.8475560     2.3997430     0.5086630
  H        0.4343110    -1.9634370     0.5690680
  H       -2.4496555    -3.9486786    -0.6742937
  H        2.8291120    -2.6453980     0.0739220
  H        5.1251800    -1.6708610    -0.1624140
  H        5.3198140    -0.0200540    -0.5682940
units angstrom
no_reorient  #important for SAPT in psi4, default
symmetry c1  #important for SAPT in psi4, default
}

set PROPERTIES_ORIGIN ["COM"]
properties('MP2/aug-cc-pvtz', properties = ['dipole'])
--------------------------------------------------------------------------

    Molecular point group: c1
  Charge       = 0
  Multiplicity = 1
  Basis Set: AUG-CC-PVTZ
    Blend: AUG-CC-PVTZ
  Basis Set: (AUG-CC-PVTZ AUX)
    Blend: AUG-CC-PVTZ-JKFIT

    Orbital Energies [Eh]
    ---------------------

    Doubly Occupied:

       1A    -20.597104     2A    -20.581063     3A    -20.557451
       4A    -20.556891     5A    -20.521686     6A    -15.636566
       7A    -15.599616     8A    -15.553049     9A    -11.387947
      10A    -11.357564    11A    -11.341149    12A    -11.328132
      13A    -11.299249    14A    -11.296358    15A    -11.296228
      16A    -11.292682    17A    -11.248195    18A     -1.428650
      19A     -1.395541    20A     -1.378151    21A     -1.345969
      22A     -1.343651    23A     -1.305684    24A     -1.273386
      25A     -1.181948    26A     -1.081438    27A     -1.064700
      28A     -1.018705    29A     -0.930247    30A     -0.908008
      31A     -0.875344    32A     -0.831417    33A     -0.811093
      34A     -0.766528    35A     -0.751540    36A     -0.733520
      37A     -0.717425    38A     -0.698002    39A     -0.686109
      40A     -0.673002    41A     -0.669006    42A     -0.652740
      43A     -0.650679    44A     -0.635672    45A     -0.619776
      46A     -0.613150    47A     -0.604987    48A     -0.593176
      49A     -0.574187    50A     -0.568155    51A     -0.552530
      52A     -0.542205    53A     -0.536580    54A     -0.523196
      55A     -0.497549    56A     -0.474997    57A     -0.472733
      58A     -0.460520    59A     -0.459393    60A     -0.452042
      61A     -0.439726    62A     -0.432643    63A     -0.394909
      64A     -0.349669

  @DF-RHF Final Energy:  -886.33744133020764

   => Energetics <=

    Nuclear Repulsion Energy =           1322.5084060645431236
    One-Electron Energy =               -3842.8492820736391877
    Two-Electron Energy =                1634.0034346788884250
    Total Energy =                       -886.3374413302076391
  Basis Set: (AUG-CC-PVTZ AUX)
    Blend: AUG-CC-PVTZ-RI
    Molecular point group: c1

    Geometry (in Angstrom), charge = 0, multiplicity = 1:

       Center              X                  Y                   Z               Mass
    ------------   -----------------  -----------------  -----------------  -----------------
         O           -1.248035604327    -0.652045072115     1.033058381080    15.994914619570
         O           -1.244909604327     2.483473927885    -0.685619618920    15.994914619570
         O           -3.216464604327     1.521721927885     0.745430381080    15.994914619570
         O           -2.356963604327    -3.066214072115     0.095483381080    15.994914619570
         O            1.360595395673     2.247656927885    -0.075998618920    15.994914619570
         N            0.843469395673     0.045845927885     0.256486381080    14.003074004430
         N            3.057291395673     0.721125927885    -0.293183618920    14.003074004430
         N            4.716528395673    -0.836032072115    -0.571754618920    14.003074004430
         C           -1.289418604327     1.079052927885    -0.591533618920    12.000000000000
         C           -2.715105604327     0.655829927885    -0.256849618920    12.000000000000
         C           -0.525342604327     0.482142927885     0.600637381080    12.000000000000
         C           -2.529190604327    -0.716263072115     0.361599381080    12.000000000000
         C           -2.528278604327    -1.849770072115    -0.638746618920    12.000000000000
         C            1.219840395673    -1.260785072115     0.311817381080    12.000000000000
         C            1.755659395673     1.068057927885    -0.058859618920    12.000000000000
         C            2.511166395673    -1.608517072115     0.047538381080    12.000000000000
         C            3.412048395673    -0.550030072115    -0.258381618920    12.000000000000
         H           -0.937540604327     0.592026927885    -1.514347618920     1.007825032230
         H           -3.362516604327     0.643287927885    -1.145921618920     1.007825032230
         H           -0.440224604327     1.222502927885     1.404541381080     1.007825032230
         H           -3.281891604327    -0.908111072115     1.131326381080     1.007825032230
         H           -1.713242604327    -1.699682072115    -1.368920618920     1.007825032230
         H           -3.485495604327    -1.833381072115    -1.183591618920     1.007825032230
         H           -0.297459604327     2.713801927885    -0.524456618920     1.007825032230
         H           -2.847490604327     2.400365927885     0.509206381080     1.007825032230
         H            0.434376395673    -1.962814072115     0.569611381080     1.007825032230
         H           -2.449590104327    -3.948055672115    -0.673750318920     1.007825032230
         H            2.829177395673    -2.644775072115     0.074465381080     1.007825032230
         H            5.125245395673    -1.670238072115    -0.161870618920     1.007825032230
         H            5.319879395673    -0.019431072115    -0.567750618920     1.007825032230

  Basis Set: AUG-CC-PVTZ
    Blend: AUG-CC-PVTZ
  Basis Set: (AUG-CC-PVTZ AUX)
    Blend: AUG-CC-PVTZ-JKFIT
	 Reference Energy          =    -886.3374413302076391 [Eh]
	 Singles Energy            =      -0.0000000000000000 [Eh]
	 Same-Spin Energy          =      -0.9033491723499227 [Eh]
	 Opposite-Spin Energy      =      -2.7216932423441094 [Eh]
	 Correlation Energy        =      -3.6250424146940321 [Eh]
	 Total Energy              =    -889.9624837449016468 [Eh]

	 ================> DF-SCS-MP2 Energies <==================
	-----------------------------------------------------------
	 SCS Same-Spin Scale       =       0.3333333333333333 [-]
	 SCS Opposite-Spin Scale   =       1.2000000000000000 [-]
	 SCS Same-Spin Energy      =      -0.3011163907833075 [Eh]
	 SCS Opposite-Spin Energy  =      -3.2660318908129313 [Eh]
	 SCS Correlation Energy    =      -3.5671482815962388 [Eh]
	 SCS Total Energy          =    -889.9045896118038854 [Eh]
	-----------------------------------------------------------

  Dipole Moment: [D]
     X:     1.6871      Y:    -6.0849      Z:    -1.8999     Total:     6.5941

*** Psi4 exiting successfully. Buy a developer a beer!
