                               Psi4 1.4a3.dev225

  ==> Input File <==

--------------------------------------------------------------------------
#psi4
#
memory 32 gb

molecule  {
0 1
  O       -1.3191770     0.6538360    -1.0992360
  O       -1.5735610    -2.4640850     0.5135810
  O       -3.5606630    -1.0699430    -0.4600060
  O       -1.4399290     3.1254620     0.1265180
  O        1.1065530    -2.3833650     0.0076020
  N        0.7686360    -0.1579440    -0.3706350
  N        2.9363770    -0.9938720     0.1460080
  N        4.7058880     0.4431110     0.3611260
  C       -1.3768610    -1.0680440     0.5552780
  C       -2.7379840    -0.3746360     0.4578480
  C       -0.6852341    -0.5159881    -0.6894271
  C       -2.3707440     0.9655450    -0.1585060
  C       -1.8992030     1.9895750     0.8571380
  C        1.2309690     1.1190800    -0.4442230
  C        1.6104480    -1.2470590    -0.0585760
  C        2.5474650     1.3753690    -0.1998620
  C        3.3802090     0.2523040     0.0808410
  H       -0.8441360    -0.7686950     1.4698480
  H       -3.2257400    -0.2778790     1.4400230
  H       -0.6227070    -1.2428120    -1.4883720
  H       -3.1941750     1.3785730    -0.7472070
  H       -1.0952130     1.5703990     1.4802000
  H       -2.7410530     2.2466610     1.5166010
  H       -0.6710550    -2.8260740     0.3542250
  H       -3.3063470    -2.0105220    -0.3629290
  H        0.4929290     1.8778260    -0.6840360
  H       -1.2098800     3.8154810     0.7720340
  H        2.9334840     2.3875570    -0.2389120
  H        5.1589650     1.2712730    -0.0008400
  H        5.2635310    -0.4031270     0.3606700
units angstrom
no_reorient  #important for SAPT in psi4, default
symmetry c1  #important for SAPT in psi4, default
}

set PROPERTIES_ORIGIN ["COM"]
properties('MP2/aug-cc-pvtz', properties = ['dipole'])
--------------------------------------------------------------------------

    Molecular point group: c1
  Charge       = 0
  Multiplicity = 1
  Basis Set: AUG-CC-PVTZ
    Blend: AUG-CC-PVTZ
  Basis Set: (AUG-CC-PVTZ AUX)
    Blend: AUG-CC-PVTZ-JKFIT

    Orbital Energies [Eh]
    ---------------------

    Doubly Occupied:

       1A    -20.587532     2A    -20.585574     3A    -20.560322
       4A    -20.558566     5A    -20.517059     6A    -15.628344
       7A    -15.597653     8A    -15.549267     9A    -11.382794
      10A    -11.355595    11A    -11.342373    12A    -11.322339
      13A    -11.304808    14A    -11.300068    15A    -11.298142
      16A    -11.295346    17A    -11.243847    18A     -1.434647
      19A     -1.391947    20A     -1.383862    21A     -1.378093
      22A     -1.348356    23A     -1.300465    24A     -1.264707
      25A     -1.177566    26A     -1.075350    27A     -1.071378
      28A     -1.021043    29A     -0.935240    30A     -0.903123
      31A     -0.874340    32A     -0.831281    33A     -0.815505
      34A     -0.762820    35A     -0.748243    36A     -0.736961
      37A     -0.721837    38A     -0.709591    39A     -0.703366
      40A     -0.684105    41A     -0.673503    42A     -0.654940
      43A     -0.648728    44A     -0.633294    45A     -0.620540
      46A     -0.615116    47A     -0.608076    48A     -0.590119
      49A     -0.578761    50A     -0.566682    51A     -0.555943
      52A     -0.549243    53A     -0.537182    54A     -0.531830
      55A     -0.493786    56A     -0.481858    57A     -0.475294
      58A     -0.464894    59A     -0.456970    60A     -0.456128
      61A     -0.444593    62A     -0.426584    63A     -0.390938
      64A     -0.345895

  @DF-RHF Final Energy:  -886.37221423408891

   => Energetics <=

    Nuclear Repulsion Energy =           1334.3231884121196344
    One-Electron Energy =               -3866.3820987305271046
    Two-Electron Energy =                1645.6866960843185552
    Total Energy =                       -886.3722142340889150
  Basis Set: (AUG-CC-PVTZ AUX)
    Blend: AUG-CC-PVTZ-RI
    Molecular point group: c1

    Geometry (in Angstrom), charge = 0, multiplicity = 1:

       Center              X                  Y                   Z               Mass
    ------------   -----------------  -----------------  -----------------  -----------------
         O           -1.329576536567     0.683024750000    -1.082941792210    15.994914619570
         O           -1.583960536567    -2.434896250000     0.529875207790    15.994914619570
         O           -3.571062536567    -1.040754250000    -0.443711792210    15.994914619570
         O           -1.450328536567     3.154650750000     0.142812207790    15.994914619570
         O            1.096153463433    -2.354176250000     0.023896207790    15.994914619570
         N            0.758236463433    -0.128755250000    -0.354340792210    14.003074004430
         N            2.925977463433    -0.964683250000     0.162302207790    14.003074004430
         N            4.695488463433     0.472299750000     0.377420207790    14.003074004430
         C           -1.387260536567    -1.038855250000     0.571572207790    12.000000000000
         C           -2.748383536567    -0.345447250000     0.474142207790    12.000000000000
         C           -0.695633636567    -0.486799350000    -0.673132892210    12.000000000000
         C           -2.381143536567     0.994733750000    -0.142211792210    12.000000000000
         C           -1.909602536567     2.018763750000     0.873432207790    12.000000000000
         C            1.220569463433     1.148268750000    -0.427928792210    12.000000000000
         C            1.600048463433    -1.217870250000    -0.042281792210    12.000000000000
         C            2.537065463433     1.404557750000    -0.183567792210    12.000000000000
         C            3.369809463433     0.281492750000     0.097135207790    12.000000000000
         H           -0.854535536567    -0.739506250000     1.486142207790     1.007825032230
         H           -3.236139536567    -0.248690250000     1.456317207790     1.007825032230
         H           -0.633106536567    -1.213623250000    -1.472077792210     1.007825032230
         H           -3.204574536567     1.407761750000    -0.730912792210     1.007825032230
         H           -1.105612536567     1.599587750000     1.496494207790     1.007825032230
         H           -2.751452536567     2.275849750000     1.532895207790     1.007825032230
         H           -0.681454536567    -2.796885250000     0.370519207790     1.007825032230
         H           -3.316746536567    -1.981333250000    -0.346634792210     1.007825032230
         H            0.482529463433     1.907014750000    -0.667741792210     1.007825032230
         H           -1.220279536567     3.844669750000     0.788328207790     1.007825032230
         H            2.923084463433     2.416745750000    -0.222617792210     1.007825032230
         H            5.148565463433     1.300461750000     0.015454207790     1.007825032230
         H            5.253131463433    -0.373938250000     0.376964207790     1.007825032230

  Basis Set: AUG-CC-PVTZ
    Blend: AUG-CC-PVTZ
  Basis Set: (AUG-CC-PVTZ AUX)
    Blend: AUG-CC-PVTZ-JKFIT
	 Reference Energy          =    -886.3722142340889150 [Eh]
	 Singles Energy            =      -0.0000000000000000 [Eh]
	 Same-Spin Energy          =      -0.9018758848288515 [Eh]
	 Opposite-Spin Energy      =      -2.7159191681462920 [Eh]
	 Correlation Energy        =      -3.6177950529751435 [Eh]
	 Total Energy              =    -889.9900092870640265 [Eh]

	 ================> DF-SCS-MP2 Energies <==================
	-----------------------------------------------------------
	 SCS Same-Spin Scale       =       0.3333333333333333 [-]
	 SCS Opposite-Spin Scale   =       1.2000000000000000 [-]
	 SCS Same-Spin Energy      =      -0.3006252949429505 [Eh]
	 SCS Opposite-Spin Energy  =      -3.2591030017755505 [Eh]
	 SCS Correlation Energy    =      -3.5597282967185011 [Eh]
	 SCS Total Energy          =    -889.9319425308074187 [Eh]
	-----------------------------------------------------------

  Dipole Moment: [D]
     X:     2.4314      Y:     5.8066      Z:     1.9165     Total:     6.5804

*** Psi4 exiting successfully. Buy a developer a beer!
