                               Psi4 1.4a3.dev225

  ==> Input File <==

--------------------------------------------------------------------------
#psi4
#
memory 32 gb

molecule  {
0 1
  O       -1.3191770     0.6538360    -1.0992360
  O       -1.5735610    -2.4640850     0.5135810
  O       -3.5606630    -1.0699430    -0.4600060
  O       -1.4399290     3.1254620     0.1265180
  O        1.1065530    -2.3833650     0.0076020
  N        0.7686360    -0.1579440    -0.3706350
  N        2.9363770    -0.9938720     0.1460080
  N        4.7058880     0.4431110     0.3611260
  C       -1.3768610    -1.0680440     0.5552780
  C       -2.7379840    -0.3746360     0.4578480
  C       -0.6377490    -0.5042940    -0.6790150
  C       -2.3707440     0.9655450    -0.1585060
  C       -1.8992030     1.9895750     0.8571380
  C        1.2309690     1.1190800    -0.4442230
  C        1.6104480    -1.2470590    -0.0585760
  C        2.5474650     1.3753690    -0.1998620
  C        3.3802090     0.2523040     0.0808410
  H       -0.8441360    -0.7686950     1.4698480
  H       -3.2257400    -0.2778790     1.4400230
  H       -0.6227070    -1.2428120    -1.4883720
  H       -3.1941750     1.3785730    -0.7472070
  H       -1.0952130     1.5703990     1.4802000
  H       -2.7410530     2.2466610     1.5166010
  H       -0.6893732    -2.8187267     0.3574595
  H       -3.3063470    -2.0105220    -0.3629290
  H        0.4929290     1.8778260    -0.6840360
  H       -1.2098800     3.8154810     0.7720340
  H        2.9334840     2.3875570    -0.2389120
  H        5.1589650     1.2712730    -0.0008400
  H        5.2635310    -0.4031270     0.3606700
units angstrom
no_reorient  #important for SAPT in psi4, default
symmetry c1  #important for SAPT in psi4, default
}

set PROPERTIES_ORIGIN ["COM"]
properties('MP2/aug-cc-pvtz', properties = ['dipole'])
--------------------------------------------------------------------------

    Molecular point group: c1
  Charge       = 0
  Multiplicity = 1
  Basis Set: AUG-CC-PVTZ
    Blend: AUG-CC-PVTZ
  Basis Set: (AUG-CC-PVTZ AUX)
    Blend: AUG-CC-PVTZ-JKFIT

    Orbital Energies [Eh]
    ---------------------

    Doubly Occupied:

       1A    -20.586821     2A    -20.581566     3A    -20.559110
       4A    -20.556809     5A    -20.518951     6A    -15.632734
       7A    -15.599442     8A    -15.551390     9A    -11.385352
      10A    -11.357777    11A    -11.339792    12A    -11.324938
      13A    -11.303702    14A    -11.298145    15A    -11.297540
      16A    -11.293867    17A    -11.246346    18A     -1.429549
      19A     -1.393680    20A     -1.384112    21A     -1.377247
      22A     -1.348868    23A     -1.303247    24A     -1.271091
      25A     -1.180900    26A     -1.079224    27A     -1.068514
      28A     -1.017967    29A     -0.936633    30A     -0.906477
      31A     -0.876779    32A     -0.831054    33A     -0.812606
      34A     -0.766243    35A     -0.750450    36A     -0.736973
      37A     -0.721904    38A     -0.708695    39A     -0.703774
      40A     -0.684945    41A     -0.675737    42A     -0.653443
      43A     -0.648759    44A     -0.633481    45A     -0.621090
      46A     -0.615119    47A     -0.607917    48A     -0.593243
      49A     -0.577569    50A     -0.565231    51A     -0.556599
      52A     -0.548686    53A     -0.537169    54A     -0.530984
      55A     -0.495392    56A     -0.481144    57A     -0.474327
      58A     -0.463698    59A     -0.457536    60A     -0.453754
      61A     -0.442571    62A     -0.429905    63A     -0.391954
      64A     -0.347926

  @DF-RHF Final Energy:  -886.37510467562765

   => Energetics <=

    Nuclear Repulsion Energy =           1334.6700797315204454
    One-Electron Energy =               -3867.0334653110444378
    Two-Electron Energy =                1645.9882809038965661
    Total Energy =                       -886.3751046756276537
  Basis Set: (AUG-CC-PVTZ AUX)
    Blend: AUG-CC-PVTZ-RI
    Molecular point group: c1

    Geometry (in Angstrom), charge = 0, multiplicity = 1:

       Center              X                  Y                   Z               Mass
    ------------   -----------------  -----------------  -----------------  -----------------
         O           -1.331844708107     0.682417005069    -1.083469199230    15.994914619570
         O           -1.586228708107    -2.435503994931     0.529347800770    15.994914619570
         O           -3.573330708107    -1.041361994931    -0.444239199230    15.994914619570
         O           -1.452596708107     3.154043005069     0.142284800770    15.994914619570
         O            1.093885291893    -2.354783994931     0.023368800770    15.994914619570
         N            0.755968291893    -0.129362994931    -0.354868199230    14.003074004430
         N            2.923709291893    -0.965290994931     0.161774800770    14.003074004430
         N            4.693220291893     0.471692005069     0.376892800770    14.003074004430
         C           -1.389528708107    -1.039462994931     0.571044800770    12.000000000000
         C           -2.750651708107    -0.346054994931     0.473614800770    12.000000000000
         C           -0.650416708107    -0.475712994931    -0.663248199230    12.000000000000
         C           -2.383411708107     0.994126005069    -0.142739199230    12.000000000000
         C           -1.911870708107     2.018156005069     0.872904800770    12.000000000000
         C            1.218301291893     1.147661005069    -0.428456199230    12.000000000000
         C            1.597780291893    -1.218477994931    -0.042809199230    12.000000000000
         C            2.534797291893     1.403950005069    -0.184095199230    12.000000000000
         C            3.367541291893     0.280885005069     0.096607800770    12.000000000000
         H           -0.856803708107    -0.740113994931     1.485614800770     1.007825032230
         H           -3.238407708107    -0.249297994931     1.455789800770     1.007825032230
         H           -0.635374708107    -1.214230994931    -1.472605199230     1.007825032230
         H           -3.206842708107     1.407154005069    -0.731440199230     1.007825032230
         H           -1.107880708107     1.598980005069     1.495966800770     1.007825032230
         H           -2.753720708107     2.275242005069     1.532367800770     1.007825032230
         H           -0.702040908107    -2.790145694931     0.373226300770     1.007825032230
         H           -3.319014708107    -1.981940994931    -0.347162199230     1.007825032230
         H            0.480261291893     1.906407005069    -0.668269199230     1.007825032230
         H           -1.222547708107     3.844062005069     0.787800800770     1.007825032230
         H            2.920816291893     2.416138005069    -0.223145199230     1.007825032230
         H            5.146297291893     1.299854005069     0.014926800770     1.007825032230
         H            5.250863291893    -0.374545994931     0.376436800770     1.007825032230

  Basis Set: AUG-CC-PVTZ
    Blend: AUG-CC-PVTZ
  Basis Set: (AUG-CC-PVTZ AUX)
    Blend: AUG-CC-PVTZ-JKFIT
	 Reference Energy          =    -886.3751046756276537 [Eh]
	 Singles Energy            =      -0.0000000000000000 [Eh]
	 Same-Spin Energy          =      -0.9014902368868274 [Eh]
	 Opposite-Spin Energy      =      -2.7153204120790613 [Eh]
	 Correlation Energy        =      -3.6168106489658887 [Eh]
	 Total Energy              =    -889.9919153245934922 [Eh]

	 ================> DF-SCS-MP2 Energies <==================
	-----------------------------------------------------------
	 SCS Same-Spin Scale       =       0.3333333333333333 [-]
	 SCS Opposite-Spin Scale   =       1.2000000000000000 [-]
	 SCS Same-Spin Energy      =      -0.3004967456289425 [Eh]
	 SCS Opposite-Spin Energy  =      -3.2583844944948734 [Eh]
	 SCS Correlation Energy    =      -3.5588812401238159 [Eh]
	 SCS Total Energy          =    -889.9339859157514638 [Eh]
	-----------------------------------------------------------

  Dipole Moment: [D]
     X:     2.6797      Y:     5.8012      Z:     1.9562     Total:     6.6829

*** Psi4 exiting successfully. Buy a developer a beer!
