                               Psi4 1.4a3.dev225

  ==> Input File <==

--------------------------------------------------------------------------
#psi4
#
memory 32 gb

molecule  {
0 1
  O       -1.3191770     0.6538360    -1.0992360
  O       -1.5735610    -2.4640850     0.5135810
  O       -3.5606630    -1.0699430    -0.4600060
  O       -1.4399290     3.1254620     0.1265180
  O        1.1065530    -2.3833650     0.0076020
  N        0.7686360    -0.1579440    -0.3706350
  N        2.9363770    -0.9938720     0.1460080
  N        4.7058880     0.4431110     0.3611260
  C       -1.3768610    -1.0680440     0.5552780
  C       -2.7379840    -0.3746360     0.4578480
  C       -0.6377490    -0.5042940    -0.6790150
  C       -2.3707440     0.9655450    -0.1585060
  C       -1.8992030     1.9895750     0.8571380
  C        1.2309690     1.1190800    -0.4442230
  C        1.6185441    -1.2288019    -0.0596393
  C        2.5474650     1.3753690    -0.1998620
  C        3.3802090     0.2523040     0.0808410
  H       -0.8441360    -0.7686950     1.4698480
  H       -3.2257400    -0.2778790     1.4400230
  H       -0.6227070    -1.2428120    -1.4883720
  H       -3.1941750     1.3785730    -0.7472070
  H       -1.0952130     1.5703990     1.4802000
  H       -2.7410530     2.2466610     1.5166010
  H       -0.6710550    -2.8260740     0.3542250
  H       -3.3063470    -2.0105220    -0.3629290
  H        0.4929290     1.8778260    -0.6840360
  H       -1.2098800     3.8154810     0.7720340
  H        2.9334840     2.3875570    -0.2389120
  H        5.1589650     1.2712730    -0.0008400
  H        5.2635310    -0.4031270     0.3606700
units angstrom
no_reorient  #important for SAPT in psi4, default
symmetry c1  #important for SAPT in psi4, default
}

set PROPERTIES_ORIGIN ["COM"]
properties('MP2/aug-cc-pvtz', properties = ['dipole'])
--------------------------------------------------------------------------

    Molecular point group: c1
  Charge       = 0
  Multiplicity = 1
  Basis Set: AUG-CC-PVTZ
    Blend: AUG-CC-PVTZ
  Basis Set: (AUG-CC-PVTZ AUX)
    Blend: AUG-CC-PVTZ-JKFIT

    Orbital Energies [Eh]
    ---------------------

    Doubly Occupied:

       1A    -20.587039     2A    -20.581815     3A    -20.558003
       4A    -20.556115     5A    -20.514049     6A    -15.635066
       7A    -15.601280     8A    -15.553700     9A    -11.384861
      10A    -11.359903    11A    -11.340129    12A    -11.326457
      13A    -11.303782    14A    -11.298050    15A    -11.296612
      16A    -11.293276    17A    -11.248484    18A     -1.429115
      19A     -1.388648    20A     -1.381921    21A     -1.374879
      22A     -1.345678    23A     -1.300689    24A     -1.272478
      25A     -1.185017    26A     -1.080615    27A     -1.068074
      28A     -1.017935    29A     -0.937302    30A     -0.908970
      31A     -0.878374    32A     -0.830770    33A     -0.812497
      34A     -0.768563    35A     -0.751046    36A     -0.734775
      37A     -0.722192    38A     -0.708194    39A     -0.703306
      40A     -0.685728    41A     -0.675376    42A     -0.653974
      43A     -0.646459    44A     -0.634069    45A     -0.619937
      46A     -0.615201    47A     -0.608132    48A     -0.589689
      49A     -0.577071    50A     -0.565440    51A     -0.555627
      52A     -0.548065    53A     -0.535904    54A     -0.529691
      55A     -0.492485    56A     -0.480851    57A     -0.473500
      58A     -0.463057    59A     -0.453808    60A     -0.452588
      61A     -0.441937    62A     -0.432859    63A     -0.393260
      64A     -0.349381

  @DF-RHF Final Energy:  -886.37270082454734

   => Energetics <=

    Nuclear Repulsion Energy =           1334.6489780248093666
    One-Electron Energy =               -3867.0158559287251592
    Two-Electron Energy =                1645.9941770793684555
    Total Energy =                       -886.3727008245473371
  Basis Set: (AUG-CC-PVTZ AUX)
    Blend: AUG-CC-PVTZ-RI
    Molecular point group: c1

    Geometry (in Angstrom), charge = 0, multiplicity = 1:

       Center              X                  Y                   Z               Mass
    ------------   -----------------  -----------------  -----------------  -----------------
         O           -1.332320321547     0.681546198751    -1.083403298925    15.994914619570
         O           -1.586704321547    -2.436374801249     0.529413701075    15.994914619570
         O           -3.573806321547    -1.042232801249    -0.444173298925    15.994914619570
         O           -1.453072321547     3.153172198751     0.142350701075    15.994914619570
         O            1.093409678453    -2.355654801249     0.023434701075    15.994914619570
         N            0.755492678453    -0.130233801249    -0.354802298925    14.003074004430
         N            2.923233678453    -0.966161801249     0.161840701075    14.003074004430
         N            4.692744678453     0.470821198751     0.376958701075    14.003074004430
         C           -1.390004321547    -1.040333801249     0.571110701075    12.000000000000
         C           -2.751127321547    -0.346925801249     0.473680701075    12.000000000000
         C           -0.650892321547    -0.476583801249    -0.663182298925    12.000000000000
         C           -2.383887321547     0.993255198751    -0.142673298925    12.000000000000
         C           -1.912346321547     2.017285198751     0.872970701075    12.000000000000
         C            1.217825678453     1.146790198751    -0.428390298925    12.000000000000
         C            1.605400778453    -1.201091701249    -0.043806598925    12.000000000000
         C            2.534321678453     1.403079198751    -0.184029298925    12.000000000000
         C            3.367065678453     0.280014198751     0.096673701075    12.000000000000
         H           -0.857279321547    -0.740984801249     1.485680701075     1.007825032230
         H           -3.238883321547    -0.250168801249     1.455855701075     1.007825032230
         H           -0.635850321547    -1.215101801249    -1.472539298925     1.007825032230
         H           -3.207318321547     1.406283198751    -0.731374298925     1.007825032230
         H           -1.108356321547     1.598109198751     1.496032701075     1.007825032230
         H           -2.754196321547     2.274371198751     1.532433701075     1.007825032230
         H           -0.684198321547    -2.798363801249     0.370057701075     1.007825032230
         H           -3.319490321547    -1.982811801249    -0.347096298925     1.007825032230
         H            0.479785678453     1.905536198751    -0.668203298925     1.007825032230
         H           -1.223023321547     3.843191198751     0.787866701075     1.007825032230
         H            2.920340678453     2.415267198751    -0.223079298925     1.007825032230
         H            5.145821678453     1.298983198751     0.014992701075     1.007825032230
         H            5.250387678453    -0.375416801249     0.376502701075     1.007825032230

  Basis Set: AUG-CC-PVTZ
    Blend: AUG-CC-PVTZ
  Basis Set: (AUG-CC-PVTZ AUX)
    Blend: AUG-CC-PVTZ-JKFIT
	 Reference Energy          =    -886.3727008245473371 [Eh]
	 Singles Energy            =      -0.0000000000000000 [Eh]
	 Same-Spin Energy          =      -0.9021075151613951 [Eh]
	 Opposite-Spin Energy      =      -2.7163160877746209 [Eh]
	 Correlation Energy        =      -3.6184236029360157 [Eh]
	 Total Energy              =    -889.9911244274833280 [Eh]

	 ================> DF-SCS-MP2 Energies <==================
	-----------------------------------------------------------
	 SCS Same-Spin Scale       =       0.3333333333333333 [-]
	 SCS Opposite-Spin Scale   =       1.2000000000000000 [-]
	 SCS Same-Spin Energy      =      -0.3007025050537984 [Eh]
	 SCS Opposite-Spin Energy  =      -3.2595793053295448 [Eh]
	 SCS Correlation Energy    =      -3.5602818103833429 [Eh]
	 SCS Total Energy          =    -889.9329826349306813 [Eh]
	-----------------------------------------------------------

  Dipole Moment: [D]
     X:     2.8398      Y:     5.9885      Z:     1.9391     Total:     6.9056

*** Psi4 exiting successfully. Buy a developer a beer!
