                               Psi4 1.4a3.dev225

  ==> Input File <==

--------------------------------------------------------------------------
#psi4
#
memory 32 gb

molecule  {
0 1
  O       -1.3191770     0.6538360    -1.0992360
  O       -1.5735610    -2.4640850     0.5135810
  O       -3.5606630    -1.0699430    -0.4600060
  O       -1.4399290     3.1254620     0.1265180
  O        1.1065530    -2.3833650     0.0076020
  N        0.7686360    -0.1579440    -0.3706350
  N        2.9363770    -0.9938720     0.1460080
  N        4.7058880     0.4431110     0.3611260
  C       -1.3740718    -1.0482483     0.5558693
  C       -2.7379840    -0.3746360     0.4578480
  C       -0.6377490    -0.5042940    -0.6790150
  C       -2.3707440     0.9655450    -0.1585060
  C       -1.8992030     1.9895750     0.8571380
  C        1.2309690     1.1190800    -0.4442230
  C        1.6104480    -1.2470590    -0.0585760
  C        2.5474650     1.3753690    -0.1998620
  C        3.3802090     0.2523040     0.0808410
  H       -0.8441360    -0.7686950     1.4698480
  H       -3.2257400    -0.2778790     1.4400230
  H       -0.6227070    -1.2428120    -1.4883720
  H       -3.1941750     1.3785730    -0.7472070
  H       -1.0952130     1.5703990     1.4802000
  H       -2.7410530     2.2466610     1.5166010
  H       -0.6710550    -2.8260740     0.3542250
  H       -3.3063470    -2.0105220    -0.3629290
  H        0.4929290     1.8778260    -0.6840360
  H       -1.2098800     3.8154810     0.7720340
  H        2.9334840     2.3875570    -0.2389120
  H        5.1589650     1.2712730    -0.0008400
  H        5.2635310    -0.4031270     0.3606700
units angstrom
no_reorient  #important for SAPT in psi4, default
symmetry c1  #important for SAPT in psi4, default
}

set PROPERTIES_ORIGIN ["COM"]
properties('MP2/aug-cc-pvtz', properties = ['dipole'])
--------------------------------------------------------------------------

    Molecular point group: c1
  Charge       = 0
  Multiplicity = 1
  Basis Set: AUG-CC-PVTZ
    Blend: AUG-CC-PVTZ
  Basis Set: (AUG-CC-PVTZ AUX)
    Blend: AUG-CC-PVTZ-JKFIT

    Orbital Energies [Eh]
    ---------------------

    Doubly Occupied:

       1A    -20.586950     2A    -20.581533     3A    -20.557410
       4A    -20.556738     5A    -20.519548     6A    -15.633053
       7A    -15.599753     8A    -15.551806     9A    -11.385948
      10A    -11.358160    11A    -11.340105    12A    -11.325292
      13A    -11.303868    14A    -11.298094    15A    -11.296569
      16A    -11.293824    17A    -11.246703    18A     -1.429536
      19A     -1.394101    20A     -1.382354    21A     -1.372614
      22A     -1.342732    23A     -1.303679    24A     -1.271513
      25A     -1.181293    26A     -1.079767    27A     -1.069589
      28A     -1.018883    29A     -0.937135    30A     -0.906873
      31A     -0.876944    32A     -0.830136    33A     -0.813062
      34A     -0.766671    35A     -0.750645    36A     -0.733959
      37A     -0.722287    38A     -0.707737    39A     -0.703125
      40A     -0.685217    41A     -0.674648    42A     -0.653664
      43A     -0.648734    44A     -0.633575    45A     -0.619003
      46A     -0.614811    47A     -0.607735    48A     -0.592431
      49A     -0.577045    50A     -0.565030    51A     -0.555067
      52A     -0.547222    53A     -0.534586    54A     -0.530833
      55A     -0.495597    56A     -0.481036    57A     -0.475185
      58A     -0.464085    59A     -0.457845    60A     -0.454026
      61A     -0.443631    62A     -0.430294    63A     -0.392524
      64A     -0.348452

  @DF-RHF Final Energy:  -886.37330198040900

   => Energetics <=

    Nuclear Repulsion Energy =           1334.6922832556335834
    One-Electron Energy =               -3867.1066435685975193
    Two-Electron Energy =                1646.0410583325551670
    Total Energy =                       -886.3733019804089963
  Basis Set: (AUG-CC-PVTZ AUX)
    Blend: AUG-CC-PVTZ-RI
    Molecular point group: c1

    Geometry (in Angstrom), charge = 0, multiplicity = 1:

       Center              X                  Y                   Z               Mass
    ------------   -----------------  -----------------  -----------------  -----------------
         O           -1.332058344610     0.681470245235    -1.083484978820    15.994914619570
         O           -1.586442344610    -2.436450754765     0.529332021180    15.994914619570
         O           -3.573544344610    -1.042308754765    -0.444254978820    15.994914619570
         O           -1.452810344610     3.153096245235     0.142269021180    15.994914619570
         O            1.093671655390    -2.355730754765     0.023353021180    15.994914619570
         N            0.755754655390    -0.130309754765    -0.354883978820    14.003074004430
         N            2.923495655390    -0.966237754765     0.161759021180    14.003074004430
         N            4.693006655390     0.470745245235     0.376877021180    14.003074004430
         C           -1.386953144610    -1.020614054765     0.571620321180    12.000000000000
         C           -2.750865344610    -0.347001754765     0.473599021180    12.000000000000
         C           -0.650630344610    -0.476659754765    -0.663263978820    12.000000000000
         C           -2.383625344610     0.993179245235    -0.142754978820    12.000000000000
         C           -1.912084344610     2.017209245235     0.872889021180    12.000000000000
         C            1.218087655390     1.146714245235    -0.428471978820    12.000000000000
         C            1.597566655390    -1.219424754765    -0.042824978820    12.000000000000
         C            2.534583655390     1.403003245235    -0.184110978820    12.000000000000
         C            3.367327655390     0.279938245235     0.096592021180    12.000000000000
         H           -0.857017344610    -0.741060754765     1.485599021180     1.007825032230
         H           -3.238621344610    -0.250244754765     1.455774021180     1.007825032230
         H           -0.635588344610    -1.215177754765    -1.472620978820     1.007825032230
         H           -3.207056344610     1.406207245235    -0.731455978820     1.007825032230
         H           -1.108094344610     1.598033245235     1.495951021180     1.007825032230
         H           -2.753934344610     2.274295245235     1.532352021180     1.007825032230
         H           -0.683936344610    -2.798439754765     0.369976021180     1.007825032230
         H           -3.319228344610    -1.982887754765    -0.347177978820     1.007825032230
         H            0.480047655390     1.905460245235    -0.668284978820     1.007825032230
         H           -1.222761344610     3.843115245235     0.787785021180     1.007825032230
         H            2.920602655390     2.415191245235    -0.223160978820     1.007825032230
         H            5.146083655390     1.298907245235     0.014911021180     1.007825032230
         H            5.250649655390    -0.375492754765     0.376421021180     1.007825032230

  Basis Set: AUG-CC-PVTZ
    Blend: AUG-CC-PVTZ
  Basis Set: (AUG-CC-PVTZ AUX)
    Blend: AUG-CC-PVTZ-JKFIT
	 Reference Energy          =    -886.3733019804089963 [Eh]
	 Singles Energy            =      -0.0000000000000000 [Eh]
	 Same-Spin Energy          =      -0.9018978355389229 [Eh]
	 Opposite-Spin Energy      =      -2.7162837021212263 [Eh]
	 Correlation Energy        =      -3.6181815376601492 [Eh]
	 Total Energy              =    -889.9914835180691171 [Eh]

	 ================> DF-SCS-MP2 Energies <==================
	-----------------------------------------------------------
	 SCS Same-Spin Scale       =       0.3333333333333333 [-]
	 SCS Opposite-Spin Scale   =       1.2000000000000000 [-]
	 SCS Same-Spin Energy      =      -0.3006326118463076 [Eh]
	 SCS Opposite-Spin Energy  =      -3.2595404425454713 [Eh]
	 SCS Correlation Energy    =      -3.5601730543917789 [Eh]
	 SCS Total Energy          =    -889.9334750348007219 [Eh]
	-----------------------------------------------------------

  Dipole Moment: [D]
     X:     2.7451      Y:     5.8570      Z:     1.9463     Total:     6.7549

*** Psi4 exiting successfully. Buy a developer a beer!
