                               Psi4 1.3.2 release

  ==> Input File <==

--------------------------------------------------------------------------
#psi4
#
memory 32 gb

molecule  {
0 1
  O       -1.2481010    -0.6526680     1.0325150
  O       -1.2449750     2.4828510    -0.6861630
  O       -3.2165300     1.5210990     0.7448870
  O       -2.3570290    -3.0668370     0.0949400
  O        1.3605300     2.2470340    -0.0765420
  N        0.8234426     0.0137655     0.2202928
  N        3.0572260     0.7205030    -0.2937270
  N        4.7164630    -0.8366550    -0.5722980
  C       -1.2894840     1.0784300    -0.5920770
  C       -2.7151710     0.6552070    -0.2573930
  C       -0.5254080     0.4815200     0.6000940
  C       -2.5292560    -0.7168860     0.3610560
  C       -2.5283440    -1.8503930    -0.6392900
  C        1.2197750    -1.2614080     0.3112740
  C        1.7555940     1.0674350    -0.0594030
  C        2.5111010    -1.6091400     0.0469950
  C        3.4119830    -0.5506530    -0.2589250
  H       -0.9376060     0.5914040    -1.5148910
  H       -3.3625820     0.6426650    -1.1464650
  H       -0.4784089     1.2251896     1.4040755
  H       -3.2819570    -0.9087340     1.1307830
  H       -1.7133080    -1.7003050    -1.3694640
  H       -3.4855610    -1.8340040    -1.1841350
  H       -0.2975250     2.7131790    -0.5250000
  H       -2.8475560     2.3997430     0.5086630
  H        0.4343110    -1.9634370     0.5690680
  H       -2.4338740    -3.7984320    -0.5432330
  H        2.8291120    -2.6453980     0.0739220
  H        5.1251800    -1.6708610    -0.1624140
  H        5.3198140    -0.0200540    -0.5682940
units angstrom
no_reorient  #important for SAPT in psi4, default
symmetry c1  #important for SAPT in psi4, default
}

set PROPERTIES_ORIGIN ["COM"]
properties('MP2/aug-cc-pvtz', properties = ['dipole'])
--------------------------------------------------------------------------

    Molecular point group: c1
  Charge       = 0
  Multiplicity = 1
  Basis Set: AUG-CC-PVTZ
    Blend: AUG-CC-PVTZ
  Basis Set: (AUG-CC-PVTZ AUX)
    Blend: AUG-CC-PVTZ-JKFIT

    Orbital Energies [Eh]
    ---------------------

    Doubly Occupied:

       1A    -20.581821     2A    -20.580331     3A    -20.558095
       4A    -20.557836     5A    -20.526504     6A    -15.638262
       7A    -15.599460     8A    -15.553617     9A    -11.392342
      10A    -11.357555    11A    -11.342194    12A    -11.326472
      13A    -11.300750    14A    -11.296393    15A    -11.296140
      16A    -11.292813    17A    -11.245564    18A     -1.429400
      19A     -1.396207    20A     -1.380321    21A     -1.372676
      22A     -1.346738    23A     -1.308017    24A     -1.275748
      25A     -1.182713    26A     -1.080992    27A     -1.067441
      28A     -1.020671    29A     -0.935571    30A     -0.906512
      31A     -0.877765    32A     -0.832109    33A     -0.811688
      34A     -0.766423    35A     -0.753982    36A     -0.737622
      37A     -0.719775    38A     -0.702220    39A     -0.698508
      40A     -0.684849    41A     -0.672749    42A     -0.653866
      43A     -0.651965    44A     -0.636647    45A     -0.620898
      46A     -0.613205    47A     -0.606715    48A     -0.597382
      49A     -0.574976    50A     -0.568796    51A     -0.554442
      52A     -0.545947    53A     -0.537656    54A     -0.532029
      55A     -0.502531    56A     -0.477370    57A     -0.474521
      58A     -0.463671    59A     -0.460670    60A     -0.452954
      61A     -0.440069    62A     -0.432426    63A     -0.396080
      64A     -0.348018

  @DF-RHF Final Energy:  -886.37115038142224

   => Energetics <=

    Nuclear Repulsion Energy =           1323.8096186234852212
    One-Electron Energy =               -3845.2621713795251708
    Two-Electron Energy =                1635.0814023746177099
    Total Energy =                       -886.3711503814222397
  Basis Set: (AUG-CC-PVTZ AUX)
    Blend: AUG-CC-PVTZ-RI
    Molecular point group: c1

    Geometry (in Angstrom), charge = 0, multiplicity = 1:

       Center              X                  Y                   Z               Mass
    ------------   -----------------  -----------------  -----------------  -----------------
         O           -1.246793106823    -0.650869584914     1.034568335385    15.994914619570
         O           -1.243667106823     2.484649415086    -0.684109664615    15.994914619570
         O           -3.215222106823     1.522897415086     0.746940335385    15.994914619570
         O           -2.355721106823    -3.065038584914     0.096993335385    15.994914619570
         O            1.361837893177     2.248832415086    -0.074488664615    15.994914619570
         N            0.824750493177     0.015563915086     0.222346135385    14.003074004430
         N            3.058533893177     0.722301415086    -0.291673664615    14.003074004430
         N            4.717770893177    -0.834856584914    -0.570244664615    14.003074004430
         C           -1.288176106823     1.080228415086    -0.590023664615    12.000000000000
         C           -2.713863106823     0.657005415086    -0.255339664615    12.000000000000
         C           -0.524100106823     0.483318415086     0.602147335385    12.000000000000
         C           -2.527948106823    -0.715087584914     0.363109335385    12.000000000000
         C           -2.527036106823    -1.848594584914    -0.637236664615    12.000000000000
         C            1.221082893177    -1.259609584914     0.313327335385    12.000000000000
         C            1.756901893177     1.069233415086    -0.057349664615    12.000000000000
         C            2.512408893177    -1.607341584914     0.049048335385    12.000000000000
         C            3.413290893177    -0.548854584914    -0.256871664615    12.000000000000
         H           -0.936298106823     0.593202415086    -1.512837664615     1.007825032230
         H           -3.361274106823     0.644463415086    -1.144411664615     1.007825032230
         H           -0.477101006823     1.226988015086     1.406128835385     1.007825032230
         H           -3.280649106823    -0.906935584914     1.132836335385     1.007825032230
         H           -1.712000106823    -1.698506584914    -1.367410664615     1.007825032230
         H           -3.484253106823    -1.832205584914    -1.182081664615     1.007825032230
         H           -0.296217106823     2.714977415086    -0.522946664615     1.007825032230
         H           -2.846248106823     2.401541415086     0.510716335385     1.007825032230
         H            0.435618893177    -1.961638584914     0.571121335385     1.007825032230
         H           -2.432566106823    -3.796633584914    -0.541179664615     1.007825032230
         H            2.830419893177    -2.643599584914     0.075975335385     1.007825032230
         H            5.126487893177    -1.669062584914    -0.160360664615     1.007825032230
         H            5.321121893177    -0.018255584914    -0.566240664615     1.007825032230

  Basis Set: AUG-CC-PVTZ
    Blend: AUG-CC-PVTZ
  Basis Set: (AUG-CC-PVTZ AUX)
    Blend: AUG-CC-PVTZ-JKFIT
	 Reference Energy          =    -886.3711503814222397 [Eh]
	 Singles Energy            =      -0.0000000000000000 [Eh]
	 Same-Spin Energy          =      -0.9014772769725512 [Eh]
	 Opposite-Spin Energy      =      -2.7153087628054506 [Eh]
	 Correlation Energy        =      -3.6167860397780016 [Eh]
	 Total Energy              =    -889.9879364212002884 [Eh]

	 ================> DF-SCS-MP2 Energies <==================
	-----------------------------------------------------------
	 SCS Same-Spin Scale       =       0.3333333333333333 [-]
	 SCS Opposite-Spin Scale   =       1.2000000000000000 [-]
	 SCS Same-Spin Energy      =      -0.3004924256575170 [Eh]
	 SCS Opposite-Spin Energy  =      -3.2583705153665408 [Eh]
	 SCS Correlation Energy    =      -3.5588629410240578 [Eh]
	 SCS Total Energy          =    -889.9300133224462570 [Eh]
	-----------------------------------------------------------

  Dipole Moment: [D]
     X:     1.7002      Y:    -5.7983      Z:    -1.8147     Total:     6.3090

*** Psi4 exiting successfully. Buy a developer a beer!
