                               Psi4 1.3.2 release

  ==> Input File <==

--------------------------------------------------------------------------
#psi4
#
memory 32 gb

molecule  {
0 1
  O       -1.2481010    -0.6526680     1.0325150
  O       -1.2274326     2.4783733    -0.7318628
  O       -3.2165300     1.5210990     0.7448870
  O       -2.3570290    -3.0668370     0.0949400
  O        1.3605300     2.2470340    -0.0765420
  N        0.8434040     0.0452230     0.2559430
  N        3.0572260     0.7205030    -0.2937270
  N        4.7164630    -0.8366550    -0.5722980
  C       -1.2894840     1.0784300    -0.5920770
  C       -2.7151710     0.6552070    -0.2573930
  C       -0.5254080     0.4815200     0.6000940
  C       -2.5292560    -0.7168860     0.3610560
  C       -2.5283440    -1.8503930    -0.6392900
  C        1.2197750    -1.2614080     0.3112740
  C        1.7555940     1.0674350    -0.0594030
  C        2.5111010    -1.6091400     0.0469950
  C        3.4119830    -0.5506530    -0.2589250
  H       -0.9315428     0.6261677    -1.5301255
  H       -3.3625820     0.6426650    -1.1464650
  H       -0.4402900     1.2218800     1.4039980
  H       -3.2819570    -0.9087340     1.1307830
  H       -1.7133080    -1.7003050    -1.3694640
  H       -3.4855610    -1.8340040    -1.1841350
  H       -0.2975250     2.7131790    -0.5250000
  H       -2.8475560     2.3997430     0.5086630
  H        0.4343110    -1.9634370     0.5690680
  H       -2.4338740    -3.7984320    -0.5432330
  H        2.8291120    -2.6453980     0.0739220
  H        5.1251800    -1.6708610    -0.1624140
  H        5.3198140    -0.0200540    -0.5682940
units angstrom
no_reorient  #important for SAPT in psi4, default
symmetry c1  #important for SAPT in psi4, default
}

set PROPERTIES_ORIGIN ["COM"]
properties('MP2/aug-cc-pvtz', properties = ['dipole'])
--------------------------------------------------------------------------

    Molecular point group: c1
  Charge       = 0
  Multiplicity = 1
  Basis Set: AUG-CC-PVTZ
    Blend: AUG-CC-PVTZ
  Basis Set: (AUG-CC-PVTZ AUX)
    Blend: AUG-CC-PVTZ-JKFIT

    Orbital Energies [Eh]
    ---------------------

    Doubly Occupied:

       1A    -20.582347     2A    -20.582343     3A    -20.559682
       4A    -20.554946     5A    -20.521587     6A    -15.636998
       7A    -15.599752     8A    -15.553181     9A    -11.388034
      10A    -11.357743    11A    -11.342794    12A    -11.328523
      13A    -11.301263    14A    -11.297528    15A    -11.296220
      16A    -11.293860    17A    -11.248496    18A     -1.429683
      19A     -1.396347    20A     -1.379982    21A     -1.372940
      22A     -1.347940    23A     -1.305907    24A     -1.273776
      25A     -1.182139    26A     -1.081978    27A     -1.067956
      28A     -1.021448    29A     -0.935662    30A     -0.909456
      31A     -0.877405    32A     -0.833062    33A     -0.812164
      34A     -0.766994    35A     -0.753143    36A     -0.734684
      37A     -0.720251    38A     -0.703651    39A     -0.699305
      40A     -0.685681    41A     -0.672745    42A     -0.654358
      43A     -0.652369    44A     -0.638594    45A     -0.621425
      46A     -0.614180    47A     -0.606512    48A     -0.593527
      49A     -0.576250    50A     -0.570660    51A     -0.553639
      52A     -0.546105    53A     -0.537734    54A     -0.532082
      55A     -0.498639    56A     -0.478157    57A     -0.473496
      58A     -0.462906    59A     -0.460059    60A     -0.451425
      61A     -0.441430    62A     -0.433054    63A     -0.395155
      64A     -0.349864

  @DF-RHF Final Energy:  -886.37362484827213

   => Energetics <=

    Nuclear Repulsion Energy =           1323.3442198726572769
    One-Electron Energy =               -3844.3332604851548240
    Two-Electron Energy =                1634.6154157642256450
    Total Energy =                       -886.3736248482721294
  Basis Set: (AUG-CC-PVTZ AUX)
    Blend: AUG-CC-PVTZ-RI
    Molecular point group: c1

    Geometry (in Angstrom), charge = 0, multiplicity = 1:

       Center              X                  Y                   Z               Mass
    ------------   -----------------  -----------------  -----------------  -----------------
         O           -1.249280453567    -0.652517488498     1.035585194911    15.994914619570
         O           -1.228612053567     2.478523811502    -0.728792605089    15.994914619570
         O           -3.217709453567     1.521249511502     0.747957194911    15.994914619570
         O           -2.358208453567    -3.066686488498     0.098010194911    15.994914619570
         O            1.359350546433     2.247184511502    -0.073471805089    15.994914619570
         N            0.842224546433     0.045373511502     0.259013194911    14.003074004430
         N            3.056046546433     0.720653511502    -0.290656805089    14.003074004430
         N            4.715283546433    -0.836504488498    -0.569227805089    14.003074004430
         C           -1.290663453567     1.078580511502    -0.589006805089    12.000000000000
         C           -2.716350453567     0.655357511502    -0.254322805089    12.000000000000
         C           -0.526587453567     0.481670511502     0.603164194911    12.000000000000
         C           -2.530435453567    -0.716735488498     0.364126194911    12.000000000000
         C           -2.529523453567    -1.850242488498    -0.636219805089    12.000000000000
         C            1.218595546433    -1.261257488498     0.314344194911    12.000000000000
         C            1.754414546433     1.067585511502    -0.056332805089    12.000000000000
         C            2.509921546433    -1.608989488498     0.050065194911    12.000000000000
         C            3.410803546433    -0.550502488498    -0.255854805089    12.000000000000
         H           -0.932722253567     0.626318211502    -1.527055305089     1.007825032230
         H           -3.363761453567     0.642815511502    -1.143394805089     1.007825032230
         H           -0.441469453567     1.222030511502     1.407068194911     1.007825032230
         H           -3.283136453567    -0.908583488498     1.133853194911     1.007825032230
         H           -1.714487453567    -1.700154488498    -1.366393805089     1.007825032230
         H           -3.486740453567    -1.833853488498    -1.181064805089     1.007825032230
         H           -0.298704453567     2.713329511502    -0.521929805089     1.007825032230
         H           -2.848735453567     2.399893511502     0.511733194911     1.007825032230
         H            0.433131546433    -1.963286488498     0.572138194911     1.007825032230
         H           -2.435053453567    -3.798281488498    -0.540162805089     1.007825032230
         H            2.827932546433    -2.645247488498     0.076992194911     1.007825032230
         H            5.124000546433    -1.670710488498    -0.159343805089     1.007825032230
         H            5.318634546433    -0.019903488498    -0.565223805089     1.007825032230

  Basis Set: AUG-CC-PVTZ
    Blend: AUG-CC-PVTZ
  Basis Set: (AUG-CC-PVTZ AUX)
    Blend: AUG-CC-PVTZ-JKFIT
	 Reference Energy          =    -886.3736248482721294 [Eh]
	 Singles Energy            =      -0.0000000000000000 [Eh]
	 Same-Spin Energy          =      -0.9009443516996090 [Eh]
	 Opposite-Spin Energy      =      -2.7145806417129923 [Eh]
	 Correlation Energy        =      -3.6155249934126013 [Eh]
	 Total Energy              =    -889.9891498416847071 [Eh]

	 ================> DF-SCS-MP2 Energies <==================
	-----------------------------------------------------------
	 SCS Same-Spin Scale       =       0.3333333333333333 [-]
	 SCS Opposite-Spin Scale   =       1.2000000000000000 [-]
	 SCS Same-Spin Energy      =      -0.3003147838998697 [Eh]
	 SCS Opposite-Spin Energy  =      -3.2574967700555906 [Eh]
	 SCS Correlation Energy    =      -3.5578115539554602 [Eh]
	 SCS Total Energy          =    -889.9314364022276322 [Eh]
	-----------------------------------------------------------

  Dipole Moment: [D]
     X:     1.6561      Y:    -5.9591      Z:    -1.7319     Total:     6.4229

*** Psi4 exiting successfully. Buy a developer a beer!
