                               Psi4 1.3.2 release

  ==> Input File <==

--------------------------------------------------------------------------
#psi4
#
memory 32 gb

molecule  {
0 1
  O       -1.2481010    -0.6526680     1.0325150
  O       -1.2449750     2.4828510    -0.6861630
  O       -3.2165300     1.5210990     0.7448870
  O       -2.3570290    -3.0668370     0.0949400
  O        1.3605300     2.2470340    -0.0765420
  N        0.8434040     0.0452230     0.2559430
  N        3.0572260     0.7205030    -0.2937270
  N        4.7164630    -0.8366550    -0.5722980
  C       -1.2894840     1.0784300    -0.5920770
  C       -2.7158815     0.6496441    -0.2693796
  C       -0.5254080     0.4815200     0.6000940
  C       -2.5292560    -0.7168860     0.3610560
  C       -2.5301126    -1.8416999    -0.6490549
  C        1.2197750    -1.2614080     0.3112740
  C        1.7555940     1.0674350    -0.0594030
  C        2.5111010    -1.6091400     0.0469950
  C        3.4119830    -0.5506530    -0.2589250
  H       -0.9376060     0.5914040    -1.5148910
  H       -3.3625820     0.6426650    -1.1464650
  H       -0.4402900     1.2218800     1.4039980
  H       -3.2819570    -0.9087340     1.1307830
  H       -1.7133080    -1.7003050    -1.3694640
  H       -3.4855610    -1.8340040    -1.1841350
  H       -0.2975250     2.7131790    -0.5250000
  H       -2.8475560     2.3997430     0.5086630
  H        0.4343110    -1.9634370     0.5690680
  H       -2.4338740    -3.7984320    -0.5432330
  H        2.8291120    -2.6453980     0.0739220
  H        5.1251800    -1.6708610    -0.1624140
  H        5.3198140    -0.0200540    -0.5682940
units angstrom
no_reorient  #important for SAPT in psi4, default
symmetry c1  #important for SAPT in psi4, default
}

set PROPERTIES_ORIGIN ["COM"]
properties('MP2/aug-cc-pvtz', properties = ['dipole'])
--------------------------------------------------------------------------

    Molecular point group: c1
  Charge       = 0
  Multiplicity = 1
  Basis Set: AUG-CC-PVTZ
    Blend: AUG-CC-PVTZ
  Basis Set: (AUG-CC-PVTZ AUX)
    Blend: AUG-CC-PVTZ-JKFIT

    Orbital Energies [Eh]
    ---------------------

    Doubly Occupied:

       1A    -20.582200     2A    -20.581056     3A    -20.557349
       4A    -20.556671     5A    -20.522117     6A    -15.637114
       7A    -15.599950     8A    -15.553464     9A    -11.388401
      10A    -11.357977    11A    -11.341926    12A    -11.328645
      13A    -11.300825    14A    -11.297619    15A    -11.297162
      16A    -11.292733    17A    -11.248684    18A     -1.429194
      19A     -1.396209    20A     -1.377811    21A     -1.369013
      22A     -1.343668    23A     -1.306188    24A     -1.273936
      25A     -1.182369    26A     -1.082108    27A     -1.069177
      28A     -1.021553    29A     -0.936083    30A     -0.909745
      31A     -0.877465    32A     -0.832328    33A     -0.813291
      34A     -0.767154    35A     -0.752662    36A     -0.735759
      37A     -0.720101    38A     -0.699825    39A     -0.697744
      40A     -0.685661    41A     -0.672319    42A     -0.654977
      43A     -0.651524    44A     -0.638576    45A     -0.620772
      46A     -0.614153    47A     -0.606038    48A     -0.593912
      49A     -0.574772    50A     -0.569451    51A     -0.552699
      52A     -0.544510    53A     -0.537103    54A     -0.532170
      55A     -0.498241    56A     -0.478975    57A     -0.475048
      58A     -0.462893    59A     -0.460563    60A     -0.453065
      61A     -0.441746    62A     -0.433342    63A     -0.395398
      64A     -0.350195

  @DF-RHF Final Energy:  -886.37273017880966

   => Energetics <=

    Nuclear Repulsion Energy =           1323.4845488867654240
    One-Electron Energy =               -3844.6437955302249065
    Two-Electron Energy =                1634.7865164646498215
    Total Energy =                       -886.3727301788096611
  Basis Set: (AUG-CC-PVTZ AUX)
    Blend: AUG-CC-PVTZ-RI
    Molecular point group: c1

    Geometry (in Angstrom), charge = 0, multiplicity = 1:

       Center              X                  Y                   Z               Mass
    ------------   -----------------  -----------------  -----------------  -----------------
         O           -1.247978652315    -0.652822513257     1.033588777730    15.994914619570
         O           -1.244852652315     2.482696486743    -0.685089222270    15.994914619570
         O           -3.216407652315     1.520944486743     0.745960777730    15.994914619570
         O           -2.356906652315    -3.066991513257     0.096013777730    15.994914619570
         O            1.360652347685     2.246879486743    -0.075468222270    15.994914619570
         N            0.843526347685     0.045068486743     0.257016777730    14.003074004430
         N            3.057348347685     0.720348486743    -0.292653222270    14.003074004430
         N            4.716585347685    -0.836809513257    -0.571224222270    14.003074004430
         C           -1.289361652315     1.078275486743    -0.591003222270    12.000000000000
         C           -2.715759152315     0.649489586743    -0.268305822270    12.000000000000
         C           -0.525285652315     0.481365486743     0.601167777730    12.000000000000
         C           -2.529133652315    -0.717040513257     0.362129777730    12.000000000000
         C           -2.529990252315    -1.841854413257    -0.647981122270    12.000000000000
         C            1.219897347685    -1.261562513257     0.312347777730    12.000000000000
         C            1.755716347685     1.067280486743    -0.058329222270    12.000000000000
         C            2.511223347685    -1.609294513257     0.048068777730    12.000000000000
         C            3.412105347685    -0.550807513257    -0.257851222270    12.000000000000
         H           -0.937483652315     0.591249486743    -1.513817222270     1.007825032230
         H           -3.362459652315     0.642510486743    -1.145391222270     1.007825032230
         H           -0.440167652315     1.221725486743     1.405071777730     1.007825032230
         H           -3.281834652315    -0.908888513257     1.131856777730     1.007825032230
         H           -1.713185652315    -1.700459513257    -1.368390222270     1.007825032230
         H           -3.485438652315    -1.834158513257    -1.183061222270     1.007825032230
         H           -0.297402652315     2.713024486743    -0.523926222270     1.007825032230
         H           -2.847433652315     2.399588486743     0.509736777730     1.007825032230
         H            0.434433347685    -1.963591513257     0.570141777730     1.007825032230
         H           -2.433751652315    -3.798586513257    -0.542159222270     1.007825032230
         H            2.829234347685    -2.645552513257     0.074995777730     1.007825032230
         H            5.125302347685    -1.671015513257    -0.161340222270     1.007825032230
         H            5.319936347685    -0.020208513257    -0.567220222270     1.007825032230

  Basis Set: AUG-CC-PVTZ
    Blend: AUG-CC-PVTZ
  Basis Set: (AUG-CC-PVTZ AUX)
    Blend: AUG-CC-PVTZ-JKFIT
	 Reference Energy          =    -886.3727301788096611 [Eh]
	 Singles Energy            =      -0.0000000000000000 [Eh]
	 Same-Spin Energy          =      -0.9012633311380137 [Eh]
	 Opposite-Spin Energy      =      -2.7153509224760191 [Eh]
	 Correlation Energy        =      -3.6166142536140327 [Eh]
	 Total Energy              =    -889.9893444324236498 [Eh]

	 ================> DF-SCS-MP2 Energies <==================
	-----------------------------------------------------------
	 SCS Same-Spin Scale       =       0.3333333333333333 [-]
	 SCS Opposite-Spin Scale   =       1.2000000000000000 [-]
	 SCS Same-Spin Energy      =      -0.3004211103793379 [Eh]
	 SCS Opposite-Spin Energy  =      -3.2584211069712228 [Eh]
	 SCS Correlation Energy    =      -3.5588422173505605 [Eh]
	 SCS Total Energy          =    -889.9315723961602771 [Eh]
	-----------------------------------------------------------

  Dipole Moment: [D]
     X:     1.7198      Y:    -5.9340      Z:    -1.8704     Total:     6.4551

*** Psi4 exiting successfully. Buy a developer a beer!
