                               Psi4 1.3.2 release

  ==> Input File <==

--------------------------------------------------------------------------
#psi4
#
memory 32 gb

molecule  {
0 1
  O       -1.2481010    -0.6526680     1.0325150
  O       -1.2449750     2.4828510    -0.6861630
  O       -3.2165300     1.5210990     0.7448870
  O       -2.3570290    -3.0668370     0.0949400
  O        1.3605300     2.2470340    -0.0765420
  N        0.7774076     0.0250190     0.2736199
  N        3.0572260     0.7205030    -0.2937270
  N        4.7164630    -0.8366550    -0.5722980
  C       -1.2894840     1.0784300    -0.5920770
  C       -2.7151710     0.6552070    -0.2573930
  C       -0.5254080     0.4815200     0.6000940
  C       -2.5292560    -0.7168860     0.3610560
  C       -2.5283440    -1.8503930    -0.6392900
  C        1.2197750    -1.2614080     0.3112740
  C        1.7555940     1.0674350    -0.0594030
  C        2.4931829    -1.6772288     0.0586691
  C        3.4119830    -0.5506530    -0.2589250
  H       -0.9376060     0.5914040    -1.5148910
  H       -3.3625820     0.6426650    -1.1464650
  H       -0.4402900     1.2218800     1.4039980
  H       -3.2819570    -0.9087340     1.1307830
  H       -1.7133080    -1.7003050    -1.3694640
  H       -3.4855610    -1.8340040    -1.1841350
  H       -0.2975250     2.7131790    -0.5250000
  H       -2.8475560     2.3997430     0.5086630
  H        0.4343110    -1.9634370     0.5690680
  H       -2.4338740    -3.7984320    -0.5432330
  H        2.8291120    -2.6453980     0.0739220
  H        5.1251800    -1.6708610    -0.1624140
  H        5.3198140    -0.0200540    -0.5682940
units angstrom
no_reorient  #important for SAPT in psi4, default
symmetry c1  #important for SAPT in psi4, default
}

set PROPERTIES_ORIGIN ["COM"]
properties('MP2/aug-cc-pvtz', properties = ['dipole'])
--------------------------------------------------------------------------

    Molecular point group: c1
  Charge       = 0
  Multiplicity = 1
  Basis Set: AUG-CC-PVTZ
    Blend: AUG-CC-PVTZ
  Basis Set: (AUG-CC-PVTZ AUX)
    Blend: AUG-CC-PVTZ-JKFIT

    Orbital Energies [Eh]
    ---------------------

    Doubly Occupied:

       1A    -20.580031     2A    -20.576625     3A    -20.557008
       4A    -20.556359     5A    -20.530402     6A    -15.634824
       7A    -15.604056     8A    -15.559282     9A    -11.397306
      10A    -11.366897    11A    -11.335655    12A    -11.325755
      13A    -11.298910    14A    -11.294385    15A    -11.294029
      16A    -11.291060    17A    -11.249021    18A     -1.428873
      19A     -1.395299    20A     -1.378840    21A     -1.371190
      22A     -1.345444    23A     -1.304363    24A     -1.274976
      25A     -1.187206    26A     -1.081259    27A     -1.065457
      28A     -1.016705    29A     -0.936196    30A     -0.895097
      31A     -0.879706    32A     -0.833840    33A     -0.809742
      34A     -0.765461    35A     -0.753044    36A     -0.736970
      37A     -0.719777    38A     -0.702152    39A     -0.697330
      40A     -0.685526    41A     -0.675791    42A     -0.660497
      43A     -0.652291    44A     -0.637789    45A     -0.614487
      46A     -0.611364    47A     -0.607445    48A     -0.596117
      49A     -0.573190    50A     -0.567417    51A     -0.554327
      52A     -0.545351    53A     -0.536611    54A     -0.530184
      55A     -0.500164    56A     -0.475809    57A     -0.473173
      58A     -0.465083    59A     -0.458859    60A     -0.451495
      61A     -0.439459    62A     -0.432581    63A     -0.397529
      64A     -0.348027

  @DF-RHF Final Energy:  -886.36089154371723

   => Energetics <=

    Nuclear Repulsion Energy =           1322.6770064296863438
    One-Electron Energy =               -3843.0336006970023845
    Two-Electron Energy =                1633.9957027235986970
    Total Energy =                       -886.3608915437171163
  Basis Set: (AUG-CC-PVTZ AUX)
    Blend: AUG-CC-PVTZ-RI
    Molecular point group: c1

    Geometry (in Angstrom), charge = 0, multiplicity = 1:

       Center              X                  Y                   Z               Mass
    ------------   -----------------  -----------------  -----------------  -----------------
         O           -1.243414742171    -0.648142900482     1.030920424068    15.994914619570
         O           -1.240288742171     2.487376099518    -0.687757575932    15.994914619570
         O           -3.211843742171     1.525624099518     0.743292424068    15.994914619570
         O           -2.352342742171    -3.062311900482     0.093345424068    15.994914619570
         O            1.365216257829     2.251559099518    -0.078136575932    15.994914619570
         N            0.782093857829     0.029544099518     0.272025324068    14.003074004430
         N            3.061912257829     0.725028099518    -0.295321575932    14.003074004430
         N            4.721149257829    -0.832129900482    -0.573892575932    14.003074004430
         C           -1.284797742171     1.082955099518    -0.593671575932    12.000000000000
         C           -2.710484742171     0.659732099518    -0.258987575932    12.000000000000
         C           -0.520721742171     0.486045099518     0.598499424068    12.000000000000
         C           -2.524569742171    -0.712360900482     0.359461424068    12.000000000000
         C           -2.523657742171    -1.845867900482    -0.640884575932    12.000000000000
         C            1.224461257829    -1.256882900482     0.309679424068    12.000000000000
         C            1.760280257829     1.071960099518    -0.060997575932    12.000000000000
         C            2.497869157829    -1.672703700482     0.057074524068    12.000000000000
         C            3.416669257829    -0.546127900482    -0.260519575932    12.000000000000
         H           -0.932919742171     0.595929099518    -1.516485575932     1.007825032230
         H           -3.357895742171     0.647190099518    -1.148059575932     1.007825032230
         H           -0.435603742171     1.226405099518     1.402403424068     1.007825032230
         H           -3.277270742171    -0.904208900482     1.129188424068     1.007825032230
         H           -1.708621742171    -1.695779900482    -1.371058575932     1.007825032230
         H           -3.480874742171    -1.829478900482    -1.185729575932     1.007825032230
         H           -0.292838742171     2.717704099518    -0.526594575932     1.007825032230
         H           -2.842869742171     2.404268099518     0.507068424068     1.007825032230
         H            0.438997257829    -1.958911900482     0.567473424068     1.007825032230
         H           -2.429187742171    -3.793906900482    -0.544827575932     1.007825032230
         H            2.833798257829    -2.640872900482     0.072327424068     1.007825032230
         H            5.129866257829    -1.666335900482    -0.164008575932     1.007825032230
         H            5.324500257829    -0.015528900482    -0.569888575932     1.007825032230

  Basis Set: AUG-CC-PVTZ
    Blend: AUG-CC-PVTZ
  Basis Set: (AUG-CC-PVTZ AUX)
    Blend: AUG-CC-PVTZ-JKFIT
	 Reference Energy          =    -886.3608915437172300 [Eh]
	 Singles Energy            =      -0.0000000000000000 [Eh]
	 Same-Spin Energy          =      -0.9008385614551297 [Eh]
	 Opposite-Spin Energy      =      -2.7155793754251523 [Eh]
	 Correlation Energy        =      -3.6164179368802820 [Eh]
	 Total Energy              =    -889.9773094805975688 [Eh]

	 ================> DF-SCS-MP2 Energies <==================
	-----------------------------------------------------------
	 SCS Same-Spin Scale       =       0.3333333333333333 [-]
	 SCS Opposite-Spin Scale   =       1.2000000000000000 [-]
	 SCS Same-Spin Energy      =      -0.3002795204850432 [Eh]
	 SCS Opposite-Spin Energy  =      -3.2586952505101827 [Eh]
	 SCS Correlation Energy    =      -3.5589747709952260 [Eh]
	 SCS Total Energy          =    -889.9198663147124080 [Eh]
	-----------------------------------------------------------

  Dipole Moment: [D]
     X:     2.1035      Y:    -5.6712      Z:    -1.9194     Total:     6.3460

*** Psi4 exiting successfully. Buy a developer a beer!
