                               Psi4 1.3.2 release

  ==> Input File <==

--------------------------------------------------------------------------
#psi4
#
memory 32 gb

molecule  {
0 1
  O       -1.2481010    -0.6526680     1.0325150
  O       -1.2449750     2.4828510    -0.6861630
  O       -3.2165300     1.5210990     0.7448870
  O       -2.3570290    -3.0668370     0.0949400
  O        1.3605300     2.2470340    -0.0765420
  N        0.8434040     0.0452230     0.2559430
  N        3.0572260     0.7205030    -0.2937270
  N        4.7164630    -0.8366550    -0.5722980
  C       -1.2894840     1.0784300    -0.5920770
  C       -2.7151710     0.6552070    -0.2573930
  C       -0.5254080     0.4815200     0.6000940
  C       -2.5292560    -0.7168860     0.3610560
  C       -2.5283440    -1.8503930    -0.6392900
  C        1.2197750    -1.2614080     0.3112740
  C        1.7555940     1.0674350    -0.0594030
  C        2.5111010    -1.6091400     0.0469950
  C        3.4119830    -0.5506530    -0.2589250
  H       -0.9376060     0.5914040    -1.5148910
  H       -3.2448586     0.6449456    -0.9847987
  H       -0.4402900     1.2218800     1.4039980
  H       -3.2819570    -0.9087340     1.1307830
  H       -1.7133080    -1.7003050    -1.3694640
  H       -3.4855610    -1.8340040    -1.1841350
  H       -0.2975250     2.7131790    -0.5250000
  H       -2.8475560     2.3997430     0.5086630
  H        0.4343110    -1.9634370     0.5690680
  H       -2.4338740    -3.7984320    -0.5432330
  H        2.8291120    -2.6453980     0.0739220
  H        5.1251800    -1.6708610    -0.1624140
  H        5.3198140    -0.0200540    -0.5682940
units angstrom
no_reorient  #important for SAPT in psi4, default
symmetry c1  #important for SAPT in psi4, default
}

set PROPERTIES_ORIGIN ["COM"]
properties('MP2/aug-cc-pvtz', properties = ['dipole'])
--------------------------------------------------------------------------

    Molecular point group: c1
  Charge       = 0
  Multiplicity = 1
  Basis Set: AUG-CC-PVTZ
    Blend: AUG-CC-PVTZ
  Basis Set: (AUG-CC-PVTZ AUX)
    Blend: AUG-CC-PVTZ-JKFIT

    Orbital Energies [Eh]
    ---------------------

    Doubly Occupied:

       1A    -20.582768     2A    -20.580336     3A    -20.556854
       4A    -20.554474     5A    -20.521610     6A    -15.636368
       7A    -15.599591     8A    -15.553024     9A    -11.387859
      10A    -11.357535    11A    -11.340528    12A    -11.328142
      13A    -11.301851    14A    -11.295667    15A    -11.295340
      16A    -11.268323    17A    -11.248204    18A     -1.428428
      19A     -1.395900    20A     -1.379731    21A     -1.372829
      22A     -1.345204    23A     -1.305679    24A     -1.273356
      25A     -1.181920    26A     -1.081520    27A     -1.074943
      28A     -1.021329    29A     -0.940307    30A     -0.909097
      31A     -0.880740    32A     -0.836018    33A     -0.829344
      34A     -0.767199    35A     -0.756188    36A     -0.735890
      37A     -0.724314    38A     -0.702660    39A     -0.697777
      40A     -0.685305    41A     -0.679572    42A     -0.656629
      43A     -0.651277    44A     -0.641397    45A     -0.620495
      46A     -0.615694    47A     -0.606260    48A     -0.594706
      49A     -0.580043    50A     -0.569115    51A     -0.553558
      52A     -0.545733    53A     -0.536761    54A     -0.531639
      55A     -0.497441    56A     -0.477908    57A     -0.475428
      58A     -0.464142    59A     -0.460841    60A     -0.452956
      61A     -0.442462    62A     -0.432727    63A     -0.395012
      64A     -0.349661

  @DF-RHF Final Energy:  -886.34213158095122

   => Energetics <=

    Nuclear Repulsion Energy =           1325.1357746030839735
    One-Electron Energy =               -3847.8245955193610826
    Two-Electron Energy =                1636.3466893353258911
    Total Energy =                       -886.3421315809512180
  Basis Set: (AUG-CC-PVTZ AUX)
    Blend: AUG-CC-PVTZ-RI
    Molecular point group: c1

    Geometry (in Angstrom), charge = 0, multiplicity = 1:

       Center              X                  Y                   Z               Mass
    ------------   -----------------  -----------------  -----------------  -----------------
         O           -1.248589111503    -0.652677445158     1.031844744013    15.994914619570
         O           -1.245463111503     2.482841554842    -0.686833255987    15.994914619570
         O           -3.217018111503     1.521089554842     0.744216744013    15.994914619570
         O           -2.357517111503    -3.066846445158     0.094269744013    15.994914619570
         O            1.360041888497     2.247024554842    -0.077212255987    15.994914619570
         N            0.842915888497     0.045213554842     0.255272744013    14.003074004430
         N            3.056737888497     0.720493554842    -0.294397255987    14.003074004430
         N            4.715974888497    -0.836664445158    -0.572968255987    14.003074004430
         C           -1.289972111503     1.078420554842    -0.592747255987    12.000000000000
         C           -2.715659111503     0.655197554842    -0.258063255987    12.000000000000
         C           -0.525896111503     0.481510554842     0.599423744013    12.000000000000
         C           -2.529744111503    -0.716895445158     0.360385744013    12.000000000000
         C           -2.528832111503    -1.850402445158    -0.639960255987    12.000000000000
         C            1.219286888497    -1.261417445158     0.310603744013    12.000000000000
         C            1.755105888497     1.067425554842    -0.060073255987    12.000000000000
         C            2.510612888497    -1.609149445158     0.046324744013    12.000000000000
         C            3.411494888497    -0.550662445158    -0.259595255987    12.000000000000
         H           -0.938094111503     0.591394554842    -1.515561255987     1.007825032230
         H           -3.245346711503     0.644936154842    -0.985468955987     1.007825032230
         H           -0.440778111503     1.221870554842     1.403327744013     1.007825032230
         H           -3.282445111503    -0.908743445158     1.130112744013     1.007825032230
         H           -1.713796111503    -1.700314445158    -1.370134255987     1.007825032230
         H           -3.486049111503    -1.834013445158    -1.184805255987     1.007825032230
         H           -0.298013111503     2.713169554842    -0.525670255987     1.007825032230
         H           -2.848044111503     2.399733554842     0.507992744013     1.007825032230
         H            0.433822888497    -1.963446445158     0.568397744013     1.007825032230
         H           -2.434362111503    -3.798441445158    -0.543903255987     1.007825032230
         H            2.828623888497    -2.645407445158     0.073251744013     1.007825032230
         H            5.124691888497    -1.670870445158    -0.163084255987     1.007825032230
         H            5.319325888497    -0.020063445158    -0.568964255987     1.007825032230

  Basis Set: AUG-CC-PVTZ
    Blend: AUG-CC-PVTZ
  Basis Set: (AUG-CC-PVTZ AUX)
    Blend: AUG-CC-PVTZ-JKFIT
	 Reference Energy          =    -886.3421315809512180 [Eh]
	 Singles Energy            =      -0.0000000000000000 [Eh]
	 Same-Spin Energy          =      -0.9009847849263588 [Eh]
	 Opposite-Spin Energy      =      -2.7138461902571924 [Eh]
	 Correlation Energy        =      -3.6148309751835512 [Eh]
	 Total Energy              =    -889.9569625561347266 [Eh]

	 ================> DF-SCS-MP2 Energies <==================
	-----------------------------------------------------------
	 SCS Same-Spin Scale       =       0.3333333333333333 [-]
	 SCS Opposite-Spin Scale   =       1.2000000000000000 [-]
	 SCS Same-Spin Energy      =      -0.3003282616421196 [Eh]
	 SCS Opposite-Spin Energy  =      -3.2566154283086308 [Eh]
	 SCS Correlation Energy    =      -3.5569436899507503 [Eh]
	 SCS Total Energy          =    -889.8990752709020171 [Eh]
	-----------------------------------------------------------

  Dipole Moment: [D]
     X:     1.6593      Y:    -5.9958      Z:    -1.9122     Total:     6.5084

*** Psi4 exiting successfully. Buy a developer a beer!
