                               Psi4 1.3.2 release

  ==> Input File <==

--------------------------------------------------------------------------
#psi4
#
memory 32 gb

molecule  {
0 1
  O       -1.2481010    -0.6526680     1.0325150
  O       -1.2449750     2.4828510    -0.6861630
  O       -3.2165300     1.5210990     0.7448870
  O       -2.3570290    -3.0668370     0.0949400
  O        1.3605300     2.2470340    -0.0765420
  N        0.8434040     0.0452230     0.2559430
  N        3.0572260     0.7205030    -0.2937270
  N        4.7164630    -0.8366550    -0.5722980
  C       -1.2894840     1.0784300    -0.5920770
  C       -2.7151710     0.6552070    -0.2573930
  C       -0.5254080     0.4815200     0.6000940
  C       -2.5292560    -0.7168860     0.3610560
  C       -2.5283440    -1.8503930    -0.6392900
  C        1.2197750    -1.2614080     0.3112740
  C        1.7555940     1.0674350    -0.0594030
  C        2.4931255    -1.6772553     0.0584237
  C        3.4119830    -0.5506530    -0.2589250
  H       -0.9376060     0.5914040    -1.5148910
  H       -3.3625820     0.6426650    -1.1464650
  H       -0.4402900     1.2218800     1.4039980
  H       -3.2819570    -0.9087340     1.1307830
  H       -1.7133080    -1.7003050    -1.3694640
  H       -3.4855610    -1.8340040    -1.1841350
  H       -0.2975250     2.7131790    -0.5250000
  H       -2.8475560     2.3997430     0.5086630
  H        0.4723667    -2.0053443     0.5646428
  H       -2.4338740    -3.7984320    -0.5432330
  H        2.8291120    -2.6453980     0.0739220
  H        5.1251800    -1.6708610    -0.1624140
  H        5.3198140    -0.0200540    -0.5682940
units angstrom
no_reorient  #important for SAPT in psi4, default
symmetry c1  #important for SAPT in psi4, default
}

set PROPERTIES_ORIGIN ["COM"]
properties('MP2/aug-cc-pvtz', properties = ['dipole'])
--------------------------------------------------------------------------

    Molecular point group: c1
  Charge       = 0
  Multiplicity = 1
  Basis Set: AUG-CC-PVTZ
    Blend: AUG-CC-PVTZ
  Basis Set: (AUG-CC-PVTZ AUX)
    Blend: AUG-CC-PVTZ-JKFIT

    Orbital Energies [Eh]
    ---------------------

    Doubly Occupied:

       1A    -20.581043     2A    -20.579689     3A    -20.557134
       4A    -20.557021     5A    -20.524291     6A    -15.636124
       7A    -15.601928     8A    -15.555668     9A    -11.390272
      10A    -11.364090    11A    -11.340879    12A    -11.325550
      13A    -11.299982    14A    -11.295904    15A    -11.295668
      16A    -11.292134    17A    -11.249419    18A     -1.427980
      19A     -1.396786    20A     -1.379364    21A     -1.371656
      22A     -1.345843    23A     -1.304300    24A     -1.273103
      25A     -1.183252    26A     -1.079734    27A     -1.066591
      28A     -1.019883    29A     -0.932776    30A     -0.903623
      31A     -0.878634    32A     -0.832907    33A     -0.810347
      34A     -0.764700    35A     -0.754069    36A     -0.736165
      37A     -0.718879    38A     -0.702406    39A     -0.698043
      40A     -0.687441    41A     -0.676509    42A     -0.658244
      43A     -0.653982    44A     -0.639109    45A     -0.616716
      46A     -0.611899    47A     -0.601363    48A     -0.597011
      49A     -0.574040    50A     -0.567816    51A     -0.553362
      52A     -0.545219    53A     -0.536798    54A     -0.530963
      55A     -0.498114    56A     -0.476527    57A     -0.473709
      58A     -0.462633    59A     -0.460038    60A     -0.452119
      61A     -0.439727    62A     -0.432437    63A     -0.395590
      64A     -0.350541

  @DF-RHF Final Energy:  -886.36795025654874

   => Energetics <=

    Nuclear Repulsion Energy =           1322.2822969203680259
    One-Electron Energy =               -3842.2610038577549858
    Two-Electron Energy =                1633.6107566808382217
    Total Energy =                       -886.3679502565487383
  Basis Set: (AUG-CC-PVTZ AUX)
    Blend: AUG-CC-PVTZ-RI
    Molecular point group: c1

    Geometry (in Angstrom), charge = 0, multiplicity = 1:

       Center              X                  Y                   Z               Mass
    ------------   -----------------  -----------------  -----------------  -----------------
         O           -1.247371444973    -0.649131708374     1.031969172532    15.994914619570
         O           -1.244245444973     2.486387291626    -0.686708827468    15.994914619570
         O           -3.215800444973     1.524635291626     0.744341172532    15.994914619570
         O           -2.356299444973    -3.063300708374     0.094394172532    15.994914619570
         O            1.361259555027     2.250570291626    -0.077087827468    15.994914619570
         N            0.844133555027     0.048759291626     0.255397172532    14.003074004430
         N            3.057955555027     0.724039291626    -0.294272827468    14.003074004430
         N            4.717192555027    -0.833118708374    -0.572843827468    14.003074004430
         C           -1.288754444973     1.081966291626    -0.592622827468    12.000000000000
         C           -2.714441444973     0.658743291626    -0.257938827468    12.000000000000
         C           -0.524678444973     0.485056291626     0.599548172532    12.000000000000
         C           -2.528526444973    -0.713349708374     0.360510172532    12.000000000000
         C           -2.527614444973    -1.846856708374    -0.639835827468    12.000000000000
         C            1.220504555027    -1.257871708374     0.310728172532    12.000000000000
         C            1.756323555027     1.070971291626    -0.059948827468    12.000000000000
         C            2.493855055027    -1.673719008374     0.057877872532    12.000000000000
         C            3.412712555027    -0.547116708374    -0.259470827468    12.000000000000
         H           -0.936876444973     0.594940291626    -1.515436827468     1.007825032230
         H           -3.361852444973     0.646201291626    -1.147010827468     1.007825032230
         H           -0.439560444973     1.225416291626     1.403452172532     1.007825032230
         H           -3.281227444973    -0.905197708374     1.130237172532     1.007825032230
         H           -1.712578444973    -1.696768708374    -1.370009827468     1.007825032230
         H           -3.484831444973    -1.830467708374    -1.184680827468     1.007825032230
         H           -0.296795444973     2.716715291626    -0.525545827468     1.007825032230
         H           -2.846826444973     2.403279291626     0.508117172532     1.007825032230
         H            0.473096255027    -2.001808008374     0.564096972532     1.007825032230
         H           -2.433144444973    -3.794895708374    -0.543778827468     1.007825032230
         H            2.829841555027    -2.641861708374     0.073376172532     1.007825032230
         H            5.125909555027    -1.667324708374    -0.162959827468     1.007825032230
         H            5.320543555027    -0.016517708374    -0.568839827468     1.007825032230

  Basis Set: AUG-CC-PVTZ
    Blend: AUG-CC-PVTZ
  Basis Set: (AUG-CC-PVTZ AUX)
    Blend: AUG-CC-PVTZ-JKFIT
	 Reference Energy          =    -886.3679502565487383 [Eh]
	 Singles Energy            =      -0.0000000000000000 [Eh]
	 Same-Spin Energy          =      -0.9002524985187648 [Eh]
	 Opposite-Spin Energy      =      -2.7144169689239526 [Eh]
	 Correlation Energy        =      -3.6146694674427176 [Eh]
	 Total Energy              =    -889.9826197239914336 [Eh]

	 ================> DF-SCS-MP2 Energies <==================
	-----------------------------------------------------------
	 SCS Same-Spin Scale       =       0.3333333333333333 [-]
	 SCS Opposite-Spin Scale   =       1.2000000000000000 [-]
	 SCS Same-Spin Energy      =      -0.3000841661729216 [Eh]
	 SCS Opposite-Spin Energy  =      -3.2573003627087429 [Eh]
	 SCS Correlation Energy    =      -3.5573845288816646 [Eh]
	 SCS Total Energy          =    -889.9253347854304366 [Eh]
	-----------------------------------------------------------

  Dipole Moment: [D]
     X:     1.9197      Y:    -5.8942      Z:    -1.8665     Total:     6.4738

*** Psi4 exiting successfully. Buy a developer a beer!
