                               Psi4 1.3.2 release

  ==> Input File <==

--------------------------------------------------------------------------
#psi4
#
memory 32 gb

molecule  {
0 1
  O       -1.2481010    -0.6526680     1.0325150
  O       -1.2449750     2.4828510    -0.6861630
  O       -3.2165300     1.5210990     0.7448870
  O       -2.3570290    -3.0668370     0.0949400
  O        1.3006806     2.2253927    -0.0626792
  N        0.8434040     0.0452230     0.2559430
  N        3.0386862     0.6520000    -0.2843555
  N        4.7164630    -0.8366550    -0.5722980
  C       -1.2894840     1.0784300    -0.5920770
  C       -2.7151710     0.6552070    -0.2573930
  C       -0.5254080     0.4815200     0.6000940
  C       -2.5292560    -0.7168860     0.3610560
  C       -2.5283440    -1.8503930    -0.6392900
  C        1.2197750    -1.2614080     0.3112740
  C        1.7555940     1.0674350    -0.0594030
  C        2.5111010    -1.6091400     0.0469950
  C        3.4119830    -0.5506530    -0.2589250
  H       -0.9376060     0.5914040    -1.5148910
  H       -3.3625820     0.6426650    -1.1464650
  H       -0.4402900     1.2218800     1.4039980
  H       -3.2819570    -0.9087340     1.1307830
  H       -1.7133080    -1.7003050    -1.3694640
  H       -3.4855610    -1.8340040    -1.1841350
  H       -0.2975250     2.7131790    -0.5250000
  H       -2.8475560     2.3997430     0.5086630
  H        0.4343110    -1.9634370     0.5690680
  H       -2.4338740    -3.7984320    -0.5432330
  H        2.8291120    -2.6453980     0.0739220
  H        5.1251800    -1.6708610    -0.1624140
  H        5.3198140    -0.0200540    -0.5682940
units angstrom
no_reorient  #important for SAPT in psi4, default
symmetry c1  #important for SAPT in psi4, default
}

set PROPERTIES_ORIGIN ["COM"]
properties('MP2/aug-cc-pvtz', properties = ['dipole'])
--------------------------------------------------------------------------

    Molecular point group: c1
  Charge       = 0
  Multiplicity = 1
  Basis Set: AUG-CC-PVTZ
    Blend: AUG-CC-PVTZ
  Basis Set: (AUG-CC-PVTZ AUX)
    Blend: AUG-CC-PVTZ-JKFIT

    Orbital Energies [Eh]
    ---------------------

    Doubly Occupied:

       1A    -20.581093     2A    -20.579686     3A    -20.556828
       4A    -20.555493     5A    -20.530091     6A    -15.633267
       7A    -15.595872     8A    -15.550153     9A    -11.396784
      10A    -11.350441    11A    -11.339351    12A    -11.323499
      13A    -11.300010    14A    -11.295608    15A    -11.295352
      16A    -11.291834    17A    -11.244602    18A     -1.429532
      19A     -1.401606    20A     -1.379039    21A     -1.371705
      22A     -1.345380    23A     -1.317174    24A     -1.273635
      25A     -1.190736    26A     -1.078854    27A     -1.066505
      28A     -1.020693    29A     -0.936937    30A     -0.907951
      31A     -0.885034    32A     -0.831124    33A     -0.810906
      34A     -0.767708    35A     -0.752489    36A     -0.735454
      37A     -0.722686    38A     -0.702597    39A     -0.697285
      40A     -0.685973    41A     -0.671915    42A     -0.660070
      43A     -0.652266    44A     -0.639509    45A     -0.620640
      46A     -0.614622    47A     -0.606176    48A     -0.595292
      49A     -0.574772    50A     -0.569753    51A     -0.553234
      52A     -0.545903    53A     -0.538156    54A     -0.531517
      55A     -0.498066    56A     -0.476532    57A     -0.473642
      58A     -0.468211    59A     -0.459643    60A     -0.451538
      61A     -0.439037    62A     -0.427063    63A     -0.402987
      64A     -0.348440

  @DF-RHF Final Energy:  -886.36911689459134

   => Energetics <=

    Nuclear Repulsion Energy =           1326.7079976314819305
    One-Electron Energy =               -3851.0543205419062360
    Two-Electron Energy =                1637.9772060158331897
    Total Energy =                       -886.3691168945913432
  Basis Set: (AUG-CC-PVTZ AUX)
    Blend: AUG-CC-PVTZ-RI
    Molecular point group: c1

    Geometry (in Angstrom), charge = 0, multiplicity = 1:

       Center              X                  Y                   Z               Mass
    ------------   -----------------  -----------------  -----------------  -----------------
         O           -1.243094975855    -0.647297849668     1.031062991295    15.994914619570
         O           -1.239968975855     2.488221150332    -0.687615008705    15.994914619570
         O           -3.211523975855     1.526469150332     0.743434991295    15.994914619570
         O           -2.352022975855    -3.061466849668     0.093487991295    15.994914619570
         O            1.305686624145     2.230762850332    -0.064131208705    15.994914619570
         N            0.848410024145     0.050593150332     0.254490991295    14.003074004430
         N            3.043692224145     0.657370150332    -0.285807508705    14.003074004430
         N            4.721469024145    -0.831284849668    -0.573750008705    14.003074004430
         C           -1.284477975855     1.083800150332    -0.593529008705    12.000000000000
         C           -2.710164975855     0.660577150332    -0.258845008705    12.000000000000
         C           -0.520401975855     0.486890150332     0.598641991295    12.000000000000
         C           -2.524249975855    -0.711515849668     0.359603991295    12.000000000000
         C           -2.523337975855    -1.845022849668    -0.640742008705    12.000000000000
         C            1.224781024145    -1.256037849668     0.309821991295    12.000000000000
         C            1.760600024145     1.072805150332    -0.060855008705    12.000000000000
         C            2.516107024145    -1.603769849668     0.045542991295    12.000000000000
         C            3.416989024145    -0.545282849668    -0.260377008705    12.000000000000
         H           -0.932599975855     0.596774150332    -1.516343008705     1.007825032230
         H           -3.357575975855     0.648035150332    -1.147917008705     1.007825032230
         H           -0.435283975855     1.227250150332     1.402545991295     1.007825032230
         H           -3.276950975855    -0.903363849668     1.129330991295     1.007825032230
         H           -1.708301975855    -1.694934849668    -1.370916008705     1.007825032230
         H           -3.480554975855    -1.828633849668    -1.185587008705     1.007825032230
         H           -0.292518975855     2.718549150332    -0.526452008705     1.007825032230
         H           -2.842549975855     2.405113150332     0.507210991295     1.007825032230
         H            0.439317024145    -1.958066849668     0.567615991295     1.007825032230
         H           -2.428867975855    -3.793061849668    -0.544685008705     1.007825032230
         H            2.834118024145    -2.640027849668     0.072469991295     1.007825032230
         H            5.130186024145    -1.665490849668    -0.163866008705     1.007825032230
         H            5.324820024145    -0.014683849668    -0.569746008705     1.007825032230

  Basis Set: AUG-CC-PVTZ
    Blend: AUG-CC-PVTZ
  Basis Set: (AUG-CC-PVTZ AUX)
    Blend: AUG-CC-PVTZ-JKFIT
	 Reference Energy          =    -886.3691168945913432 [Eh]
	 Singles Energy            =      -0.0000000000000000 [Eh]
	 Same-Spin Energy          =      -0.9014143879329104 [Eh]
	 Opposite-Spin Energy      =      -2.7142615292262438 [Eh]
	 Correlation Energy        =      -3.6156759171591544 [Eh]
	 Total Energy              =    -889.9847928117504807 [Eh]

	 ================> DF-SCS-MP2 Energies <==================
	-----------------------------------------------------------
	 SCS Same-Spin Scale       =       0.3333333333333333 [-]
	 SCS Opposite-Spin Scale   =       1.2000000000000000 [-]
	 SCS Same-Spin Energy      =      -0.3004714626443035 [Eh]
	 SCS Opposite-Spin Energy  =      -3.2571138350714923 [Eh]
	 SCS Correlation Energy    =      -3.5575852977157956 [Eh]
	 SCS Total Energy          =    -889.9267021923071752 [Eh]
	-----------------------------------------------------------

  Dipole Moment: [D]
     X:     1.8292      Y:    -5.6328      Z:    -1.8474     Total:     6.2038

*** Psi4 exiting successfully. Buy a developer a beer!
