                               Psi4 1.3.2 release

  ==> Input File <==

--------------------------------------------------------------------------
#psi4
#
memory 32 gb

molecule  {
0 1
  O       -1.2481010    -0.6526680     1.0325150
  O       -1.2449750     2.4828510    -0.6861630
  O       -3.2165300     1.5210990     0.7448870
  O       -2.3570290    -3.0668370     0.0949400
  O        1.3605300     2.2470340    -0.0765420
  N        0.8434040     0.0452230     0.2559430
  N        3.0572260     0.7205030    -0.2937270
  N        4.7164630    -0.8366550    -0.5722980
  C       -1.2894840     1.0784300    -0.5920770
  C       -2.7505721     0.7163478    -0.1866218
  C       -0.5254080     0.4815200     0.6000940
  C       -2.5292560    -0.7168860     0.3610560
  C       -2.5283440    -1.8503930    -0.6392900
  C        1.2197750    -1.2614080     0.3112740
  C        1.7555940     1.0674350    -0.0594030
  C        2.5111010    -1.6091400     0.0469950
  C        3.4119830    -0.5506530    -0.2589250
  H       -0.9376060     0.5914040    -1.5148910
  H       -3.3625820     0.6426650    -1.1464650
  H       -0.4402900     1.2218800     1.4039980
  H       -3.2819570    -0.9087340     1.1307830
  H       -1.7133080    -1.7003050    -1.3694640
  H       -3.4855610    -1.8340040    -1.1841350
  H       -0.2975250     2.7131790    -0.5250000
  H       -2.8475560     2.3997430     0.5086630
  H        0.4343110    -1.9634370     0.5690680
  H       -2.4338740    -3.7984320    -0.5432330
  H        2.8291120    -2.6453980     0.0739220
  H        5.1251800    -1.6708610    -0.1624140
  H        5.3198140    -0.0200540    -0.5682940
units angstrom
no_reorient  #important for SAPT in psi4, default
symmetry c1  #important for SAPT in psi4, default
}

set PROPERTIES_ORIGIN ["COM"]
properties('MP2/aug-cc-pvtz', properties = ['dipole'])
--------------------------------------------------------------------------

    Molecular point group: c1
  Charge       = 0
  Multiplicity = 1
  Basis Set: AUG-CC-PVTZ
    Blend: AUG-CC-PVTZ
  Basis Set: (AUG-CC-PVTZ AUX)
    Blend: AUG-CC-PVTZ-JKFIT

    Orbital Energies [Eh]
    ---------------------

    Doubly Occupied:

       1A    -20.581122     2A    -20.579548     3A    -20.568268
       4A    -20.556628     5A    -20.521458     6A    -15.636112
       7A    -15.599369     8A    -15.552792     9A    -11.387650
      10A    -11.357278    11A    -11.339829    12A    -11.327752
      13A    -11.299980    14A    -11.296060    15A    -11.294347
      16A    -11.294001    17A    -11.247856    18A     -1.435062
      19A     -1.407773    20A     -1.392958    21A     -1.372603
      22A     -1.358727    23A     -1.305428    24A     -1.273067
      25A     -1.181659    26A     -1.080978    27A     -1.055678
      28A     -1.017140    29A     -0.932606    30A     -0.908658
      31A     -0.877078    32A     -0.832260    33A     -0.809107
      34A     -0.766463    35A     -0.750821    36A     -0.738199
      37A     -0.719753    38A     -0.715562    39A     -0.699284
      40A     -0.685415    41A     -0.677300    42A     -0.653663
      43A     -0.652157    44A     -0.639544    45A     -0.620863
      46A     -0.613634    47A     -0.610007    48A     -0.593891
      49A     -0.584550    50A     -0.571347    51A     -0.563758
      52A     -0.549477    53A     -0.537181    54A     -0.531112
      55A     -0.496747    56A     -0.475656    57A     -0.462176
      58A     -0.458616    59A     -0.457155    60A     -0.448920
      61A     -0.432683    62A     -0.432192    63A     -0.394072
      64A     -0.348960

  @DF-RHF Final Energy:  -886.36427417767322

   => Energetics <=

    Nuclear Repulsion Energy =           1323.7253108248451099
    One-Electron Energy =               -3845.0551896575657338
    Two-Electron Energy =                1634.9656046550474002
    Total Energy =                       -886.3642741776732237
  Basis Set: (AUG-CC-PVTZ AUX)
    Blend: AUG-CC-PVTZ-RI
    Molecular point group: c1

    Geometry (in Angstrom), charge = 0, multiplicity = 1:

       Center              X                  Y                   Z               Mass
    ------------   -----------------  -----------------  -----------------  -----------------
         O           -1.246353446507    -0.655686226400     1.029021362947    15.994914619570
         O           -1.243227446507     2.479832773600    -0.689656637053    15.994914619570
         O           -3.214782446507     1.518080773600     0.741393362947    15.994914619570
         O           -2.355281446507    -3.069855226400     0.091446362947    15.994914619570
         O            1.362277553493     2.244015773600    -0.080035637053    15.994914619570
         N            0.845151553493     0.042204773600     0.252449362947    14.003074004430
         N            3.058973553493     0.717484773600    -0.297220637053    14.003074004430
         N            4.718210553493    -0.839673226400    -0.575791637053    14.003074004430
         C           -1.287736446507     1.075411773600    -0.595570637053    12.000000000000
         C           -2.748824546507     0.713329573600    -0.190115437053    12.000000000000
         C           -0.523660446507     0.478501773600     0.596600362947    12.000000000000
         C           -2.527508446507    -0.719904226400     0.357562362947    12.000000000000
         C           -2.526596446507    -1.853411226400    -0.642783637053    12.000000000000
         C            1.221522553493    -1.264426226400     0.307780362947    12.000000000000
         C            1.757341553493     1.064416773600    -0.062896637053    12.000000000000
         C            2.512848553493    -1.612158226400     0.043501362947    12.000000000000
         C            3.413730553493    -0.553671226400    -0.262418637053    12.000000000000
         H           -0.935858446507     0.588385773600    -1.518384637053     1.007825032230
         H           -3.360834446507     0.639646773600    -1.149958637053     1.007825032230
         H           -0.438542446507     1.218861773600     1.400504362947     1.007825032230
         H           -3.280209446507    -0.911752226400     1.127289362947     1.007825032230
         H           -1.711560446507    -1.703323226400    -1.372957637053     1.007825032230
         H           -3.483813446507    -1.837022226400    -1.187628637053     1.007825032230
         H           -0.295777446507     2.710160773600    -0.528493637053     1.007825032230
         H           -2.845808446507     2.396724773600     0.505169362947     1.007825032230
         H            0.436058553493    -1.966455226400     0.565574362947     1.007825032230
         H           -2.432126446507    -3.801450226400    -0.546726637053     1.007825032230
         H            2.830859553493    -2.648416226400     0.070428362947     1.007825032230
         H            5.126927553493    -1.673879226400    -0.165907637053     1.007825032230
         H            5.321561553493    -0.023072226400    -0.571787637053     1.007825032230

  Basis Set: AUG-CC-PVTZ
    Blend: AUG-CC-PVTZ
  Basis Set: (AUG-CC-PVTZ AUX)
    Blend: AUG-CC-PVTZ-JKFIT
	 Reference Energy          =    -886.3642741776732237 [Eh]
	 Singles Energy            =      -0.0000000000000000 [Eh]
	 Same-Spin Energy          =      -0.9014918655557183 [Eh]
	 Opposite-Spin Energy      =      -2.7141283252428590 [Eh]
	 Correlation Energy        =      -3.6156201907985772 [Eh]
	 Total Energy              =    -889.9798943684718324 [Eh]

	 ================> DF-SCS-MP2 Energies <==================
	-----------------------------------------------------------
	 SCS Same-Spin Scale       =       0.3333333333333333 [-]
	 SCS Opposite-Spin Scale   =       1.2000000000000000 [-]
	 SCS Same-Spin Energy      =      -0.3004972885185727 [Eh]
	 SCS Opposite-Spin Energy  =      -3.2569539902914308 [Eh]
	 SCS Correlation Energy    =      -3.5574512788100034 [Eh]
	 SCS Total Energy          =    -889.9217254564832729 [Eh]
	-----------------------------------------------------------

  Dipole Moment: [D]
     X:     1.5764      Y:    -5.6886      Z:    -1.5869     Total:     6.1126

*** Psi4 exiting successfully. Buy a developer a beer!
