                               Psi4 1.3.2 release

  ==> Input File <==

--------------------------------------------------------------------------
#psi4
#
memory 32 gb

molecule  {
0 1
  O       -1.2481010    -0.6526680     1.0325150
  O       -1.2449750     2.4828510    -0.6861630
  O       -3.2165300     1.5210990     0.7448870
  O       -2.3570290    -3.0668370     0.0949400
  O        1.4209377     2.2652318    -0.0927354
  N        0.8979758    -0.0034355     0.2474821
  N        3.0572260     0.7205030    -0.2937270
  N        4.7164630    -0.8366550    -0.5722980
  C       -1.2894840     1.0784300    -0.5920770
  C       -2.7151710     0.6552070    -0.2573930
  C       -0.5254080     0.4815200     0.6000940
  C       -2.5292560    -0.7168860     0.3610560
  C       -2.5283440    -1.8503930    -0.6392900
  C        1.2197750    -1.2614080     0.3112740
  C        1.7555940     1.0674350    -0.0594030
  C        2.5111010    -1.6091400     0.0469950
  C        3.4119830    -0.5506530    -0.2589250
  H       -0.9376060     0.5914040    -1.5148910
  H       -3.3625820     0.6426650    -1.1464650
  H       -0.4402900     1.2218800     1.4039980
  H       -3.2819570    -0.9087340     1.1307830
  H       -1.7133080    -1.7003050    -1.3694640
  H       -3.4855610    -1.8340040    -1.1841350
  H       -0.2975250     2.7131790    -0.5250000
  H       -2.8475560     2.3997430     0.5086630
  H        0.4343110    -1.9634370     0.5690680
  H       -2.4338740    -3.7984320    -0.5432330
  H        2.8291120    -2.6453980     0.0739220
  H        5.1251800    -1.6708610    -0.1624140
  H        5.3198140    -0.0200540    -0.5682940
units angstrom
no_reorient  #important for SAPT in psi4, default
symmetry c1  #important for SAPT in psi4, default
}

set PROPERTIES_ORIGIN ["COM"]
properties('MP2/aug-cc-pvtz', properties = ['dipole'])
--------------------------------------------------------------------------

    Molecular point group: c1
  Charge       = 0
  Multiplicity = 1
  Basis Set: AUG-CC-PVTZ
    Blend: AUG-CC-PVTZ
  Basis Set: (AUG-CC-PVTZ AUX)
    Blend: AUG-CC-PVTZ-JKFIT

    Orbital Energies [Eh]
    ---------------------

    Doubly Occupied:

       1A    -20.585906     2A    -20.583899     3A    -20.563142
       4A    -20.561465     5A    -20.524926     6A    -15.640410
       7A    -15.593930     8A    -15.546737     9A    -11.387938
      10A    -11.351088    11A    -11.350463    12A    -11.321745
      13A    -11.303383    14A    -11.302550    15A    -11.300077
      16A    -11.297123    17A    -11.240707    18A     -1.431312
      19A     -1.397303    20A     -1.384159    21A     -1.375007
      22A     -1.350756    23A     -1.313412    24A     -1.275182
      25A     -1.176251    26A     -1.078343    27A     -1.071135
      28A     -1.024225    29A     -0.934528    30A     -0.915947
      31A     -0.875827    32A     -0.833480    33A     -0.814257
      34A     -0.764542    35A     -0.756868    36A     -0.739180
      37A     -0.717421    38A     -0.703568    39A     -0.700931
      40A     -0.683705    41A     -0.672097    42A     -0.656690
      43A     -0.649672    44A     -0.640553    45A     -0.623198
      46A     -0.617039    47A     -0.608059    48A     -0.592716
      49A     -0.577359    50A     -0.571782    51A     -0.555062
      52A     -0.546710    53A     -0.539010    54A     -0.532315
      55A     -0.506353    56A     -0.480811    57A     -0.478136
      58A     -0.465659    59A     -0.459076    60A     -0.457105
      61A     -0.442927    62A     -0.428488    63A     -0.391571
      64A     -0.344607

  @DF-RHF Final Energy:  -886.36369984706971

   => Energetics <=

    Nuclear Repulsion Energy =           1322.2681749284356556
    One-Electron Energy =               -3842.0441093191029722
    Two-Electron Energy =                1633.4122345435976058
    Total Energy =                       -886.3636998470697108
  Basis Set: (AUG-CC-PVTZ AUX)
    Blend: AUG-CC-PVTZ-RI
    Molecular point group: c1

    Geometry (in Angstrom), charge = 0, multiplicity = 1:

       Center              X                  Y                   Z               Mass
    ------------   -----------------  -----------------  -----------------  -----------------
         O           -1.255219470913    -0.651062397235     1.034067920457    15.994914619570
         O           -1.252093470913     2.484456602765    -0.684610079543    15.994914619570
         O           -3.223648470913     1.522704602765     0.746439920457    15.994914619570
         O           -2.364147470913    -3.065231397235     0.096492920457    15.994914619570
         O            1.413819229087     2.266837402765    -0.091182479543    15.994914619570
         N            0.890857329087    -0.001829897235     0.249035020457    14.003074004430
         N            3.050107529087     0.722108602765    -0.292174079543    14.003074004430
         N            4.709344529087    -0.835049397235    -0.570745079543    14.003074004430
         C           -1.296602470913     1.080035602765    -0.590524079543    12.000000000000
         C           -2.722289470913     0.656812602765    -0.255840079543    12.000000000000
         C           -0.532526470913     0.483125602765     0.601646920457    12.000000000000
         C           -2.536374470913    -0.715280397235     0.362608920457    12.000000000000
         C           -2.535462470913    -1.848787397235    -0.637737079543    12.000000000000
         C            1.212656529087    -1.259802397235     0.312826920457    12.000000000000
         C            1.748475529087     1.069040602765    -0.057850079543    12.000000000000
         C            2.503982529087    -1.607534397235     0.048547920457    12.000000000000
         C            3.404864529087    -0.549047397235    -0.257372079543    12.000000000000
         H           -0.944724470913     0.593009602765    -1.513338079543     1.007825032230
         H           -3.369700470913     0.644270602765    -1.144912079543     1.007825032230
         H           -0.447408470913     1.223485602765     1.405550920457     1.007825032230
         H           -3.289075470913    -0.907128397235     1.132335920457     1.007825032230
         H           -1.720426470913    -1.698699397235    -1.367911079543     1.007825032230
         H           -3.492679470913    -1.832398397235    -1.182582079543     1.007825032230
         H           -0.304643470913     2.714784602765    -0.523447079543     1.007825032230
         H           -2.854674470913     2.401348602765     0.510215920457     1.007825032230
         H            0.427192529087    -1.961831397235     0.570620920457     1.007825032230
         H           -2.440992470913    -3.796826397235    -0.541680079543     1.007825032230
         H            2.821993529087    -2.643792397235     0.075474920457     1.007825032230
         H            5.118061529087    -1.669255397235    -0.160861079543     1.007825032230
         H            5.312695529087    -0.018448397235    -0.566741079543     1.007825032230

  Basis Set: AUG-CC-PVTZ
    Blend: AUG-CC-PVTZ
  Basis Set: (AUG-CC-PVTZ AUX)
    Blend: AUG-CC-PVTZ-JKFIT
	 Reference Energy          =    -886.3636998470697108 [Eh]
	 Singles Energy            =      -0.0000000000000000 [Eh]
	 Same-Spin Energy          =      -0.9018751639786632 [Eh]
	 Opposite-Spin Energy      =      -2.7156696197271977 [Eh]
	 Correlation Energy        =      -3.6175447837058607 [Eh]
	 Total Energy              =    -889.9812446307755636 [Eh]

	 ================> DF-SCS-MP2 Energies <==================
	-----------------------------------------------------------
	 SCS Same-Spin Scale       =       0.3333333333333333 [-]
	 SCS Opposite-Spin Scale   =       1.2000000000000000 [-]
	 SCS Same-Spin Energy      =      -0.3006250546595544 [Eh]
	 SCS Opposite-Spin Energy  =      -3.2588035436726370 [Eh]
	 SCS Correlation Energy    =      -3.5594285983321914 [Eh]
	 SCS Total Energy          =    -889.9231284454018578 [Eh]
	-----------------------------------------------------------

  Dipole Moment: [D]
     X:     1.0998      Y:    -5.7983      Z:    -1.7545     Total:     6.1569

*** Psi4 exiting successfully. Buy a developer a beer!
