                               Psi4 1.3.2 release

  ==> Input File <==

--------------------------------------------------------------------------
#psi4
#
memory 32 gb

molecule  {
0 1
  O       -1.2481010    -0.6526680     1.0325150
  O       -1.2449750     2.4828510    -0.6861630
  O       -3.2165300     1.5210990     0.7448870
  O       -2.3570290    -3.0668370     0.0949400
  O        1.3605300     2.2470340    -0.0765420
  N        0.8434040     0.0452230     0.2559430
  N        3.0572260     0.7205030    -0.2937270
  N        4.7164630    -0.8366550    -0.5722980
  C       -1.2894840     1.0784300    -0.5920770
  C       -2.7151710     0.6552070    -0.2573930
  C       -0.5254080     0.4815200     0.6000940
  C       -2.5292560    -0.7168860     0.3610560
  C       -2.5283440    -1.8503930    -0.6392900
  C        1.2197750    -1.2614080     0.3112740
  C        1.7555940     1.0674350    -0.0594030
  C        2.5163084    -1.5862138     0.0433449
  C        3.4119830    -0.5506530    -0.2589250
  H       -0.9376060     0.5914040    -1.5148910
  H       -3.3625820     0.6426650    -1.1464650
  H       -0.4402900     1.2218800     1.4039980
  H       -3.2819570    -0.9087340     1.1307830
  H       -1.7133080    -1.7003050    -1.3694640
  H       -3.4855610    -1.8340040    -1.1841350
  H       -0.2975250     2.7131790    -0.5250000
  H       -2.8475560     2.3997430     0.5086630
  H        0.4220992    -1.9490345     0.5703866
  H       -2.4338740    -3.7984320    -0.5432330
  H        2.8291120    -2.6453980     0.0739220
  H        5.1251800    -1.6708610    -0.1624140
  H        5.3198140    -0.0200540    -0.5682940
units angstrom
no_reorient  #important for SAPT in psi4, default
symmetry c1  #important for SAPT in psi4, default
}

set PROPERTIES_ORIGIN ["COM"]
properties('MP2/aug-cc-pvtz', properties = ['dipole'])
--------------------------------------------------------------------------

    Molecular point group: c1
  Charge       = 0
  Multiplicity = 1
  Basis Set: AUG-CC-PVTZ
    Blend: AUG-CC-PVTZ
  Basis Set: (AUG-CC-PVTZ AUX)
    Blend: AUG-CC-PVTZ-JKFIT

    Orbital Energies [Eh]
    ---------------------

    Doubly Occupied:

       1A    -20.582675     2A    -20.582343     3A    -20.558043
       4A    -20.557350     5A    -20.521234     6A    -15.637369
       7A    -15.599089     8A    -15.552543     9A    -11.387605
      10A    -11.355470    11A    -11.341862    12A    -11.329787
      13A    -11.301625    14A    -11.297399    15A    -11.296955
      16A    -11.293287    17A    -11.248431    18A     -1.429924
      19A     -1.396317    20A     -1.380410    21A     -1.373236
      22A     -1.346494    23A     -1.306764    24A     -1.274107
      25A     -1.181927    26A     -1.082885    27A     -1.068170
      28A     -1.022034    29A     -0.936676    30A     -0.911574
      31A     -0.876869    32A     -0.832160    33A     -0.812405
      34A     -0.767965    35A     -0.751942    36A     -0.736277
      37A     -0.720734    38A     -0.703285    39A     -0.698710
      40A     -0.685398    41A     -0.672448    42A     -0.654688
      43A     -0.649421    44A     -0.638010    45A     -0.623772
      46A     -0.614706    47A     -0.608171    48A     -0.590727
      49A     -0.576253    50A     -0.570355    51A     -0.554264
      52A     -0.545807    53A     -0.537715    54A     -0.532121
      55A     -0.498142    56A     -0.477862    57A     -0.474720
      58A     -0.462423    59A     -0.459586    60A     -0.453119
      61A     -0.440968    62A     -0.433182    63A     -0.395150
      64A     -0.349888

  @DF-RHF Final Energy:  -886.37200274675615

   => Energetics <=

    Nuclear Repulsion Energy =           1324.2100580420678853
    One-Electron Energy =               -3846.0584584975117650
    Two-Electron Energy =                1635.4763977086877276
    Total Energy =                       -886.3720027467561522
  Basis Set: (AUG-CC-PVTZ AUX)
    Blend: AUG-CC-PVTZ-RI
    Molecular point group: c1

    Geometry (in Angstrom), charge = 0, multiplicity = 1:

       Center              X                  Y                   Z               Mass
    ------------   -----------------  -----------------  -----------------  -----------------
         O           -1.248307469277    -0.653859461897     1.032689729043    15.994914619570
         O           -1.245181469277     2.481659538103    -0.685988270957    15.994914619570
         O           -3.216736469277     1.519907538103     0.745061729043    15.994914619570
         O           -2.357235469277    -3.068028461897     0.095114729043    15.994914619570
         O            1.360323530723     2.245842538103    -0.076367270957    15.994914619570
         N            0.843197530723     0.044031538103     0.256117729043    14.003074004430
         N            3.057019530723     0.719311538103    -0.293552270957    14.003074004430
         N            4.716256530723    -0.837846461897    -0.572123270957    14.003074004430
         C           -1.289690469277     1.077238538103    -0.591902270957    12.000000000000
         C           -2.715377469277     0.654015538103    -0.257218270957    12.000000000000
         C           -0.525614469277     0.480328538103     0.600268729043    12.000000000000
         C           -2.529462469277    -0.718077461897     0.361230729043    12.000000000000
         C           -2.528550469277    -1.851584461897    -0.639115270957    12.000000000000
         C            1.219568530723    -1.262599461897     0.311448729043    12.000000000000
         C            1.755387530723     1.066243538103    -0.059228270957    12.000000000000
         C            2.516101930723    -1.587405261897     0.043519629043    12.000000000000
         C            3.411776530723    -0.551844461897    -0.258750270957    12.000000000000
         H           -0.937812469277     0.590212538103    -1.514716270957     1.007825032230
         H           -3.362788469277     0.641473538103    -1.146290270957     1.007825032230
         H           -0.440496469277     1.220688538103     1.404172729043     1.007825032230
         H           -3.282163469277    -0.909925461897     1.130957729043     1.007825032230
         H           -1.713514469277    -1.701496461897    -1.369289270957     1.007825032230
         H           -3.485767469277    -1.835195461897    -1.183960270957     1.007825032230
         H           -0.297731469277     2.711987538103    -0.524825270957     1.007825032230
         H           -2.847762469277     2.398551538103     0.508837729043     1.007825032230
         H            0.421892730723    -1.950225961897     0.570561329043     1.007825032230
         H           -2.434080469277    -3.799623461897    -0.543058270957     1.007825032230
         H            2.828905530723    -2.646589461897     0.074096729043     1.007825032230
         H            5.124973530723    -1.672052461897    -0.162239270957     1.007825032230
         H            5.319607530723    -0.021245461897    -0.568119270957     1.007825032230

  Basis Set: AUG-CC-PVTZ
    Blend: AUG-CC-PVTZ
  Basis Set: (AUG-CC-PVTZ AUX)
    Blend: AUG-CC-PVTZ-JKFIT
	 Reference Energy          =    -886.3720027467561522 [Eh]
	 Singles Energy            =      -0.0000000000000000 [Eh]
	 Same-Spin Energy          =      -0.9016657851753186 [Eh]
	 Opposite-Spin Energy      =      -2.7153222690711276 [Eh]
	 Correlation Energy        =      -3.6169880542464461 [Eh]
	 Total Energy              =    -889.9889908010026147 [Eh]

	 ================> DF-SCS-MP2 Energies <==================
	-----------------------------------------------------------
	 SCS Same-Spin Scale       =       0.3333333333333333 [-]
	 SCS Opposite-Spin Scale   =       1.2000000000000000 [-]
	 SCS Same-Spin Energy      =      -0.3005552617251062 [Eh]
	 SCS Opposite-Spin Energy  =      -3.2583867228853531 [Eh]
	 SCS Correlation Energy    =      -3.5589419846104593 [Eh]
	 SCS Total Energy          =    -889.9309447313665942 [Eh]
	-----------------------------------------------------------

  Dipole Moment: [D]
     X:     1.6351      Y:    -5.9638      Z:    -1.8080     Total:     6.4428

*** Psi4 exiting successfully. Buy a developer a beer!
