                               Psi4 1.3.2 release

  ==> Input File <==

--------------------------------------------------------------------------
#psi4
#
memory 32 gb

molecule  {
0 1
  O       -1.2481010    -0.6526680     1.0325150
  O       -1.2449750     2.4828510    -0.6861630
  O       -3.2165300     1.5210990     0.7448870
  O       -2.3570290    -3.0668370     0.0949400
  O        1.3605300     2.2470340    -0.0765420
  N        0.8434040     0.0452230     0.2559430
  N        3.0356989     0.7144381    -0.2881856
  N        4.7164630    -0.8366550    -0.5722980
  C       -1.2894840     1.0784300    -0.5920770
  C       -2.7151710     0.6552070    -0.2573930
  C       -0.5254080     0.4815200     0.6000940
  C       -2.5292560    -0.7168860     0.3610560
  C       -2.5283440    -1.8503930    -0.6392900
  C        1.2197750    -1.2614080     0.3112740
  C        1.7555940     1.0674350    -0.0594030
  C        2.4928363    -1.5925231     0.0496948
  C        3.4119830    -0.5506530    -0.2589250
  H       -0.9376060     0.5914040    -1.5148910
  H       -3.3625820     0.6426650    -1.1464650
  H       -0.4402900     1.2218800     1.4039980
  H       -3.2819570    -0.9087340     1.1307830
  H       -1.7133080    -1.7003050    -1.3694640
  H       -3.4855610    -1.8340040    -1.1841350
  H       -0.2975250     2.7131790    -0.5250000
  H       -2.8475560     2.3997430     0.5086630
  H        0.4343110    -1.9634370     0.5690680
  H       -2.4338740    -3.7984320    -0.5432330
  H        2.8291120    -2.6453980     0.0739220
  H        5.1251800    -1.6708610    -0.1624140
  H        5.3198140    -0.0200540    -0.5682940
units angstrom
no_reorient  #important for SAPT in psi4, default
symmetry c1  #important for SAPT in psi4, default
}

set PROPERTIES_ORIGIN ["COM"]
properties('MP2/aug-cc-pvtz', properties = ['dipole'])
--------------------------------------------------------------------------

    Molecular point group: c1
  Charge       = 0
  Multiplicity = 1
  Basis Set: AUG-CC-PVTZ
    Blend: AUG-CC-PVTZ
  Basis Set: (AUG-CC-PVTZ AUX)
    Blend: AUG-CC-PVTZ-JKFIT

    Orbital Energies [Eh]
    ---------------------

    Doubly Occupied:

       1A    -20.581734     2A    -20.580484     3A    -20.557005
       4A    -20.556144     5A    -20.519243     6A    -15.633789
       7A    -15.603541     8A    -15.551241     9A    -11.385317
      10A    -11.360574    11A    -11.339916    12A    -11.324211
      13A    -11.300572    14A    -11.296109    15A    -11.295523
      16A    -11.292096    17A    -11.248138    18A     -1.428343
      19A     -1.396034    20A     -1.379306    21A     -1.372100
      22A     -1.345438    23A     -1.307050    24A     -1.273446
      25A     -1.186937    26A     -1.085277    27A     -1.066867
      28A     -1.020764    29A     -0.935805    30A     -0.907509
      31A     -0.880227    32A     -0.832266    33A     -0.811275
      34A     -0.769562    35A     -0.751385    36A     -0.735029
      37A     -0.722060    38A     -0.702612    39A     -0.697573
      40A     -0.687013    41A     -0.672035    42A     -0.654793
      43A     -0.648460    44A     -0.637022    45A     -0.622426
      46A     -0.614624    47A     -0.607973    48A     -0.591618
      49A     -0.575357    50A     -0.569383    51A     -0.553425
      52A     -0.545048    53A     -0.536710    54A     -0.531434
      55A     -0.498413    56A     -0.476835    57A     -0.473658
      58A     -0.461126    59A     -0.457347    60A     -0.451871
      61A     -0.439932    62A     -0.431615    63A     -0.396362
      64A     -0.351682

  @DF-RHF Final Energy:  -886.37323010315527

   => Energetics <=

    Nuclear Repulsion Energy =           1324.9251559896658819
    One-Electron Energy =               -3847.5594398876978630
    Two-Electron Energy =                1636.2610537948764886
    Total Energy =                       -886.3732301031552652
  Basis Set: (AUG-CC-PVTZ AUX)
    Blend: AUG-CC-PVTZ-RI
    Molecular point group: c1

    Geometry (in Angstrom), charge = 0, multiplicity = 1:

       Center              X                  Y                   Z               Mass
    ------------   -----------------  -----------------  -----------------  -----------------
         O           -1.245959310426    -0.653138916950     1.032062515559    15.994914619570
         O           -1.242833310426     2.482380083050    -0.686615484441    15.994914619570
         O           -3.214388310426     1.520628083050     0.744434515559    15.994914619570
         O           -2.354887310426    -3.067307916950     0.094487515559    15.994914619570
         O            1.362671689574     2.246563083050    -0.076994484441    15.994914619570
         N            0.845545689574     0.044752083050     0.255490515559    14.003074004430
         N            3.037840589574     0.713967183050    -0.288638084441    14.003074004430
         N            4.718604689574    -0.837125916950    -0.572750484441    14.003074004430
         C           -1.287342310426     1.077959083050    -0.592529484441    12.000000000000
         C           -2.713029310426     0.654736083050    -0.257845484441    12.000000000000
         C           -0.523266310426     0.481049083050     0.599641515559    12.000000000000
         C           -2.527114310426    -0.717356916950     0.360603515559    12.000000000000
         C           -2.526202310426    -1.850863916950    -0.639742484441    12.000000000000
         C            1.221916689574    -1.261878916950     0.310821515559    12.000000000000
         C            1.757735689574     1.066964083050    -0.059855484441    12.000000000000
         C            2.494977989574    -1.592994016950     0.049242315559    12.000000000000
         C            3.414124689574    -0.551123916950    -0.259377484441    12.000000000000
         H           -0.935464310426     0.590933083050    -1.515343484441     1.007825032230
         H           -3.360440310426     0.642194083050    -1.146917484441     1.007825032230
         H           -0.438148310426     1.221409083050     1.403545515559     1.007825032230
         H           -3.279815310426    -0.909204916950     1.130330515559     1.007825032230
         H           -1.711166310426    -1.700775916950    -1.369916484441     1.007825032230
         H           -3.483419310426    -1.834474916950    -1.184587484441     1.007825032230
         H           -0.295383310426     2.712708083050    -0.525452484441     1.007825032230
         H           -2.845414310426     2.399272083050     0.508210515559     1.007825032230
         H            0.436452689574    -1.963907916950     0.568615515559     1.007825032230
         H           -2.431732310426    -3.798902916950    -0.543685484441     1.007825032230
         H            2.831253689574    -2.645868916950     0.073469515559     1.007825032230
         H            5.127321689574    -1.671331916950    -0.162866484441     1.007825032230
         H            5.321955689574    -0.020524916950    -0.568746484441     1.007825032230

  Basis Set: AUG-CC-PVTZ
    Blend: AUG-CC-PVTZ
  Basis Set: (AUG-CC-PVTZ AUX)
    Blend: AUG-CC-PVTZ-JKFIT
	 Reference Energy          =    -886.3732301031552652 [Eh]
	 Singles Energy            =      -0.0000000000000000 [Eh]
	 Same-Spin Energy          =      -0.9012358608874005 [Eh]
	 Opposite-Spin Energy      =      -2.7144039993520606 [Eh]
	 Correlation Energy        =      -3.6156398602394608 [Eh]
	 Total Energy              =    -889.9888699633946771 [Eh]

	 ================> DF-SCS-MP2 Energies <==================
	-----------------------------------------------------------
	 SCS Same-Spin Scale       =       0.3333333333333333 [-]
	 SCS Opposite-Spin Scale   =       1.2000000000000000 [-]
	 SCS Same-Spin Energy      =      -0.3004119536291335 [Eh]
	 SCS Opposite-Spin Energy  =      -3.2572847992224725 [Eh]
	 SCS Correlation Energy    =      -3.5576967528516059 [Eh]
	 SCS Total Energy          =    -889.9309268560068631 [Eh]
	-----------------------------------------------------------

  Dipole Moment: [D]
     X:     1.8790      Y:    -6.0017      Z:    -1.8469     Total:     6.5545

*** Psi4 exiting successfully. Buy a developer a beer!
