                               Psi4 1.3.2 release

  ==> Input File <==

--------------------------------------------------------------------------
#psi4
#
memory 32 gb

molecule  {
0 1
  O       -1.2481010    -0.6526680     1.0325150
  O       -1.2449750     2.4828510    -0.6861630
  O       -3.2165300     1.5210990     0.7448870
  O       -2.3570290    -3.0668370     0.0949400
  O        1.3605300     2.2470340    -0.0765420
  N        0.8451972     0.0414250     0.2681315
  N        3.0572260     0.7205030    -0.2937270
  N        4.7164630    -0.8366550    -0.5722980
  C       -1.3001136     1.0804800    -0.5841626
  C       -2.7151710     0.6552070    -0.2573930
  C       -0.5254080     0.4815200     0.6000940
  C       -2.5292560    -0.7168860     0.3610560
  C       -2.5283440    -1.8503930    -0.6392900
  C        1.2197750    -1.2614080     0.3112740
  C        1.7555940     1.0674350    -0.0594030
  C        2.5111010    -1.6091400     0.0469950
  C        3.4119830    -0.5506530    -0.2589250
  H       -0.9376060     0.5914040    -1.5148910
  H       -3.3625820     0.6426650    -1.1464650
  H       -0.4402900     1.2218800     1.4039980
  H       -3.2819570    -0.9087340     1.1307830
  H       -1.7133080    -1.7003050    -1.3694640
  H       -3.4855610    -1.8340040    -1.1841350
  H       -0.2975250     2.7131790    -0.5250000
  H       -2.8475560     2.3997430     0.5086630
  H        0.4343110    -1.9634370     0.5690680
  H       -2.4338740    -3.7984320    -0.5432330
  H        2.8291120    -2.6453980     0.0739220
  H        5.1251800    -1.6708610    -0.1624140
  H        5.3198140    -0.0200540    -0.5682940
units angstrom
no_reorient  #important for SAPT in psi4, default
symmetry c1  #important for SAPT in psi4, default
}

set PROPERTIES_ORIGIN ["COM"]
properties('MP2/aug-cc-pvtz', properties = ['dipole'])
--------------------------------------------------------------------------

    Molecular point group: c1
  Charge       = 0
  Multiplicity = 1
  Basis Set: AUG-CC-PVTZ
    Blend: AUG-CC-PVTZ
  Basis Set: (AUG-CC-PVTZ AUX)
    Blend: AUG-CC-PVTZ-JKFIT

    Orbital Energies [Eh]
    ---------------------

    Doubly Occupied:

       1A    -20.582272     2A    -20.581485     3A    -20.557926
       4A    -20.557431     5A    -20.522727     6A    -15.637322
       7A    -15.599693     8A    -15.553337     9A    -11.388949
      10A    -11.357707    11A    -11.341649    12A    -11.328142
      13A    -11.301237    14A    -11.297475    15A    -11.297202
      16A    -11.292946    17A    -11.247970    18A     -1.429651
      19A     -1.396427    20A     -1.380721    21A     -1.372981
      22A     -1.346662    23A     -1.306433    24A     -1.274199
      25A     -1.182266    26A     -1.081747    27A     -1.068790
      28A     -1.021812    29A     -0.936143    30A     -0.909163
      31A     -0.877462    32A     -0.832295    33A     -0.812015
      34A     -0.766730    35A     -0.753163    36A     -0.736338
      37A     -0.720149    38A     -0.703224    39A     -0.698343
      40A     -0.685512    41A     -0.672855    42A     -0.654616
      43A     -0.651690    44A     -0.638354    45A     -0.620671
      46A     -0.614272    47A     -0.606599    48A     -0.594559
      49A     -0.576500    50A     -0.569888    51A     -0.553880
      52A     -0.545450    53A     -0.537538    54A     -0.531832
      55A     -0.498906    56A     -0.478071    57A     -0.475251
      58A     -0.462655    59A     -0.460310    60A     -0.452307
      61A     -0.440842    62A     -0.432849    63A     -0.395266
      64A     -0.349581

  @DF-RHF Final Energy:  -886.37318093669705

   => Energetics <=

    Nuclear Repulsion Energy =           1323.7351249188791371
    One-Electron Energy =               -3845.1117309355295220
    Two-Electron Energy =                1635.0034250799533311
    Total Energy =                       -886.3731809366970538
  Basis Set: (AUG-CC-PVTZ AUX)
    Blend: AUG-CC-PVTZ-RI
    Molecular point group: c1

    Geometry (in Angstrom), charge = 0, multiplicity = 1:

       Center              X                  Y                   Z               Mass
    ------------   -----------------  -----------------  -----------------  -----------------
         O           -1.247679598355    -0.652550402952     1.031422185222    15.994914619570
         O           -1.244553598355     2.482968597048    -0.687255814778    15.994914619570
         O           -3.216108598355     1.521216597048     0.743794185222    15.994914619570
         O           -2.356607598355    -3.066719402952     0.093847185222    15.994914619570
         O            1.360951401645     2.247151597048    -0.077634814778    15.994914619570
         N            0.845618601645     0.041542597048     0.267038685222    14.003074004430
         N            3.057647401645     0.720620597048    -0.294819814778    14.003074004430
         N            4.716884401645    -0.836537402952    -0.573390814778    14.003074004430
         C           -1.299692198355     1.080597597048    -0.585255414778    12.000000000000
         C           -2.714749598355     0.655324597048    -0.258485814778    12.000000000000
         C           -0.524986598355     0.481637597048     0.599001185222    12.000000000000
         C           -2.528834598355    -0.716768402952     0.359963185222    12.000000000000
         C           -2.527922598355    -1.850275402952    -0.640382814778    12.000000000000
         C            1.220196401645    -1.261290402952     0.310181185222    12.000000000000
         C            1.756015401645     1.067552597048    -0.060495814778    12.000000000000
         C            2.511522401645    -1.609022402952     0.045902185222    12.000000000000
         C            3.412404401645    -0.550535402952    -0.260017814778    12.000000000000
         H           -0.937184598355     0.591521597048    -1.515983814778     1.007825032230
         H           -3.362160598355     0.642782597048    -1.147557814778     1.007825032230
         H           -0.439868598355     1.221997597048     1.402905185222     1.007825032230
         H           -3.281535598355    -0.908616402952     1.129690185222     1.007825032230
         H           -1.712886598355    -1.700187402952    -1.370556814778     1.007825032230
         H           -3.485139598355    -1.833886402952    -1.185227814778     1.007825032230
         H           -0.297103598355     2.713296597048    -0.526092814778     1.007825032230
         H           -2.847134598355     2.399860597048     0.507570185222     1.007825032230
         H            0.434732401645    -1.963319402952     0.567975185222     1.007825032230
         H           -2.433452598355    -3.798314402952    -0.544325814778     1.007825032230
         H            2.829533401645    -2.645280402952     0.072829185222     1.007825032230
         H            5.125601401645    -1.670743402952    -0.163506814778     1.007825032230
         H            5.320235401645    -0.019936402952    -0.569386814778     1.007825032230

  Basis Set: AUG-CC-PVTZ
    Blend: AUG-CC-PVTZ
  Basis Set: (AUG-CC-PVTZ AUX)
    Blend: AUG-CC-PVTZ-JKFIT
	 Reference Energy          =    -886.3731809366970538 [Eh]
	 Singles Energy            =      -0.0000000000000000 [Eh]
	 Same-Spin Energy          =      -0.9012859070565791 [Eh]
	 Opposite-Spin Energy      =      -2.7148900704606147 [Eh]
	 Correlation Energy        =      -3.6161759775171936 [Eh]
	 Total Energy              =    -889.9893569142142269 [Eh]

	 ================> DF-SCS-MP2 Energies <==================
	-----------------------------------------------------------
	 SCS Same-Spin Scale       =       0.3333333333333333 [-]
	 SCS Opposite-Spin Scale   =       1.2000000000000000 [-]
	 SCS Same-Spin Energy      =      -0.3004286356855264 [Eh]
	 SCS Opposite-Spin Energy  =      -3.2578680845527375 [Eh]
	 SCS Correlation Energy    =      -3.5582967202382640 [Eh]
	 SCS Total Energy          =    -889.9314776569352716 [Eh]
	-----------------------------------------------------------

  Dipole Moment: [D]
     X:     1.6909      Y:    -5.9271      Z:    -1.8195     Total:     6.4265

*** Psi4 exiting successfully. Buy a developer a beer!
