                               Psi4 1.3.2 release

  ==> Input File <==

--------------------------------------------------------------------------
#psi4
#
memory 32 gb

molecule  {
0 1
  O       -1.2481010    -0.6526680     1.0325150
  O       -1.2449750     2.4828510    -0.6861630
  O       -3.2165300     1.5210990     0.7448870
  O       -2.3570290    -3.0668370     0.0949400
  O        1.3605300     2.2470340    -0.0765420
  N        0.8656584     0.0511724     0.2501566
  N        3.0572260     0.7205030    -0.2937270
  N        4.7164630    -0.8366550    -0.5722980
  C       -1.2894840     1.0784300    -0.5920770
  C       -2.7151710     0.6552070    -0.2573930
  C       -0.5254080     0.4815200     0.6000940
  C       -2.5292560    -0.7168860     0.3610560
  C       -2.5283440    -1.8503930    -0.6392900
  C        1.2197750    -1.2614080     0.3112740
  C        1.7555940     1.0674350    -0.0594030
  C        2.5111010    -1.6091400     0.0469950
  C        3.4119830    -0.5506530    -0.2589250
  H       -0.9376060     0.5914040    -1.5148910
  H       -3.3625820     0.6426650    -1.1464650
  H       -0.4402900     1.2218800     1.4039980
  H       -3.2819570    -0.9087340     1.1307830
  H       -1.7133080    -1.7003050    -1.3694640
  H       -3.4855610    -1.8340040    -1.1841350
  H       -0.2975250     2.7131790    -0.5250000
  H       -2.8475560     2.3997430     0.5086630
  H        0.4467766    -1.9776190     0.5677334
  H       -2.4338740    -3.7984320    -0.5432330
  H        2.8291120    -2.6453980     0.0739220
  H        5.1251800    -1.6708610    -0.1624140
  H        5.3198140    -0.0200540    -0.5682940
units angstrom
no_reorient  #important for SAPT in psi4, default
symmetry c1  #important for SAPT in psi4, default
}

set PROPERTIES_ORIGIN ["COM"]
properties('MP2/aug-cc-pvtz', properties = ['dipole'])
--------------------------------------------------------------------------

    Molecular point group: c1
  Charge       = 0
  Multiplicity = 1
  Basis Set: AUG-CC-PVTZ
    Blend: AUG-CC-PVTZ
  Basis Set: (AUG-CC-PVTZ AUX)
    Blend: AUG-CC-PVTZ-JKFIT

    Orbital Energies [Eh]
    ---------------------

    Doubly Occupied:

       1A    -20.582602     2A    -20.582580     3A    -20.558039
       4A    -20.557231     5A    -20.519948     6A    -15.637151
       7A    -15.599171     8A    -15.552265     9A    -11.385750
      10A    -11.356940    11A    -11.343276    12A    -11.328569
      13A    -11.301535    14A    -11.297456    15A    -11.297140
      16A    -11.293320    17A    -11.248816    18A     -1.429242
      19A     -1.397207    20A     -1.380321    21A     -1.372991
      22A     -1.346455    23A     -1.306153    24A     -1.273222
      25A     -1.180924    26A     -1.081887    27A     -1.068106
      28A     -1.022398    29A     -0.934288    30A     -0.912510
      31A     -0.876978    32A     -0.831925    33A     -0.812014
      34A     -0.767158    35A     -0.752765    36A     -0.736067
      37A     -0.719750    38A     -0.702968    39A     -0.698555
      40A     -0.685875    41A     -0.672938    42A     -0.654928
      43A     -0.651423    44A     -0.639316    45A     -0.620974
      46A     -0.615316    47A     -0.606839    48A     -0.591505
      49A     -0.575963    50A     -0.569917    51A     -0.553713
      52A     -0.545432    53A     -0.537513    54A     -0.532120
      55A     -0.497184    56A     -0.477775    57A     -0.474629
      58A     -0.462274    59A     -0.459403    60A     -0.453040
      61A     -0.440750    62A     -0.432641    63A     -0.394574
      64A     -0.350784

  @DF-RHF Final Energy:  -886.37303041239500

   => Energetics <=

    Nuclear Repulsion Energy =           1323.5994234559157121
    One-Electron Energy =               -3844.8599096115731300
    Two-Electron Energy =                1634.8874557432625352
    Total Energy =                       -886.3730304123948827
  Basis Set: (AUG-CC-PVTZ AUX)
    Blend: AUG-CC-PVTZ-RI
    Molecular point group: c1

    Geometry (in Angstrom), charge = 0, multiplicity = 1:

       Center              X                  Y                   Z               Mass
    ------------   -----------------  -----------------  -----------------  -----------------
         O           -1.249434692778    -0.652951910161     1.032853869419    15.994914619570
         O           -1.246308692778     2.482567089839    -0.685824130581    15.994914619570
         O           -3.217863692778     1.520815089839     0.745225869419    15.994914619570
         O           -2.358362692778    -3.067120910161     0.095278869419    15.994914619570
         O            1.359196307222     2.246750089839    -0.076203130581    15.994914619570
         N            0.864324707222     0.050888489839     0.250495469419    14.003074004430
         N            3.055892307222     0.720219089839    -0.293388130581    14.003074004430
         N            4.715129307222    -0.836938910161    -0.571959130581    14.003074004430
         C           -1.290817692778     1.078146089839    -0.591738130581    12.000000000000
         C           -2.716504692778     0.654923089839    -0.257054130581    12.000000000000
         C           -0.526741692778     0.481236089839     0.600432869419    12.000000000000
         C           -2.530589692778    -0.717169910161     0.361394869419    12.000000000000
         C           -2.529677692778    -1.850676910161    -0.638951130581    12.000000000000
         C            1.218441307222    -1.261691910161     0.311612869419    12.000000000000
         C            1.754260307222     1.067151089839    -0.059064130581    12.000000000000
         C            2.509767307222    -1.609423910161     0.047333869419    12.000000000000
         C            3.410649307222    -0.550936910161    -0.258586130581    12.000000000000
         H           -0.938939692778     0.591120089839    -1.514552130581     1.007825032230
         H           -3.363915692778     0.642381089839    -1.146126130581     1.007825032230
         H           -0.441623692778     1.221596089839     1.404336869419     1.007825032230
         H           -3.283290692778    -0.909017910161     1.131121869419     1.007825032230
         H           -1.714641692778    -1.700588910161    -1.369125130581     1.007825032230
         H           -3.486894692778    -1.834287910161    -1.183796130581     1.007825032230
         H           -0.298858692778     2.712895089839    -0.524661130581     1.007825032230
         H           -2.848889692778     2.399459089839     0.509001869419     1.007825032230
         H            0.445442907222    -1.977902910161     0.568072269419     1.007825032230
         H           -2.435207692778    -3.798715910161    -0.542894130581     1.007825032230
         H            2.827778307222    -2.645681910161     0.074260869419     1.007825032230
         H            5.123846307222    -1.671144910161    -0.162075130581     1.007825032230
         H            5.318480307222    -0.020337910161    -0.567955130581     1.007825032230

  Basis Set: AUG-CC-PVTZ
    Blend: AUG-CC-PVTZ
  Basis Set: (AUG-CC-PVTZ AUX)
    Blend: AUG-CC-PVTZ-JKFIT
	 Reference Energy          =    -886.3730304123949963 [Eh]
	 Singles Energy            =      -0.0000000000000000 [Eh]
	 Same-Spin Energy          =      -0.9011960748320355 [Eh]
	 Opposite-Spin Energy      =      -2.7148381961140604 [Eh]
	 Correlation Energy        =      -3.6160342709460958 [Eh]
	 Total Energy              =    -889.9890646833410983 [Eh]

	 ================> DF-SCS-MP2 Energies <==================
	-----------------------------------------------------------
	 SCS Same-Spin Scale       =       0.3333333333333333 [-]
	 SCS Opposite-Spin Scale   =       1.2000000000000000 [-]
	 SCS Same-Spin Energy      =      -0.3003986916106784 [Eh]
	 SCS Opposite-Spin Energy  =      -3.2578058353368724 [Eh]
	 SCS Correlation Energy    =      -3.5582045269475508 [Eh]
	 SCS Total Energy          =    -889.9312349393425166 [Eh]
	-----------------------------------------------------------

  Dipole Moment: [D]
     X:     1.6527      Y:    -6.0216      Z:    -1.8063     Total:     6.5003

*** Psi4 exiting successfully. Buy a developer a beer!
