                               Psi4 1.3.2 release

  ==> Input File <==

--------------------------------------------------------------------------
#psi4
#
memory 32 gb

molecule  {
0 1
  O       -1.2481010    -0.6526680     1.0325150
  O       -1.2449750     2.4828510    -0.6861630
  O       -3.2165300     1.5210990     0.7448870
  O       -2.3570290    -3.0668370     0.0949400
  O        1.3605300     2.2470340    -0.0765420
  N        0.8434040     0.0452230     0.2559430
  N        3.0572260     0.7205030    -0.2937270
  N        4.7164630    -0.8366550    -0.5722980
  C       -1.2894840     1.0784300    -0.5920770
  C       -2.7151710     0.6552070    -0.2573930
  C       -0.5254080     0.4815200     0.6000940
  C       -2.5292560    -0.7168860     0.3610560
  C       -2.5283440    -1.8503930    -0.6392900
  C        1.2197750    -1.2614080     0.3112740
  C        1.7555940     1.0674350    -0.0594030
  C        2.5111010    -1.6091400     0.0469950
  C        3.4119830    -0.5506530    -0.2589250
  H       -0.9376060     0.5914040    -1.5148910
  H       -3.3625820     0.6426650    -1.1464650
  H       -0.4402900     1.2218800     1.4039980
  H       -3.1442946    -0.8736467     0.9900067
  H       -1.7133080    -1.7003050    -1.3694640
  H       -3.4855610    -1.8340040    -1.1841350
  H       -0.2975250     2.7131790    -0.5250000
  H       -2.8475560     2.3997430     0.5086630
  H        0.4343110    -1.9634370     0.5690680
  H       -2.4338740    -3.7984320    -0.5432330
  H        2.8291120    -2.6453980     0.0739220
  H        5.1251800    -1.6708610    -0.1624140
  H        5.3198140    -0.0200540    -0.5682940
units angstrom
no_reorient  #important for SAPT in psi4, default
symmetry c1  #important for SAPT in psi4, default
}

set PROPERTIES_ORIGIN ["COM"]
properties('MP2/aug-cc-pvtz', properties = ['dipole'])
--------------------------------------------------------------------------

    Molecular point group: c1
  Charge       = 0
  Multiplicity = 1
  Basis Set: AUG-CC-PVTZ
    Blend: AUG-CC-PVTZ
  Basis Set: (AUG-CC-PVTZ AUX)
    Blend: AUG-CC-PVTZ-JKFIT

    Orbital Energies [Eh]
    ---------------------

    Doubly Occupied:

       1A    -20.582684     2A    -20.580035     3A    -20.558186
       4A    -20.556884     5A    -20.521689     6A    -15.636492
       7A    -15.599641     8A    -15.553075     9A    -11.387933
      10A    -11.357600    11A    -11.340880    12A    -11.328225
      13A    -11.300414    14A    -11.296061    15A    -11.292321
      16A    -11.274115    17A    -11.248280    18A     -1.429147
      19A     -1.396288    20A     -1.380195    21A     -1.372904
      22A     -1.346391    23A     -1.305804    24A     -1.273602
      25A     -1.182080    26A     -1.083160    27A     -1.074267
      28A     -1.025180    29A     -0.935095    30A     -0.910768
      31A     -0.881254    32A     -0.841512    33A     -0.821528
      34A     -0.768862    35A     -0.752746    36A     -0.740006
      37A     -0.720289    38A     -0.707967    39A     -0.700516
      40A     -0.685655    41A     -0.673024    42A     -0.654673
      43A     -0.651524    44A     -0.638309    45A     -0.620839
      46A     -0.614387    47A     -0.611231    48A     -0.594927
      49A     -0.584364    50A     -0.575261    51A     -0.554045
      52A     -0.546186    53A     -0.537762    54A     -0.532103
      55A     -0.499246    56A     -0.478676    57A     -0.475645
      58A     -0.463805    59A     -0.459999    60A     -0.452871
      61A     -0.440866    62A     -0.433392    63A     -0.394971
      64A     -0.349721

  @DF-RHF Final Energy:  -886.34037928554085

   => Energetics <=

    Nuclear Repulsion Energy =           1325.1619756296083779
    One-Electron Energy =               -3847.8295937840098304
    Two-Electron Energy =                1636.3272388688608316
    Total Energy =                       -886.3403792855408483
  Basis Set: (AUG-CC-PVTZ AUX)
    Blend: AUG-CC-PVTZ-RI
    Molecular point group: c1

    Geometry (in Angstrom), charge = 0, multiplicity = 1:

       Center              X                  Y                   Z               Mass
    ------------   -----------------  -----------------  -----------------  -----------------
         O           -1.248671777979    -0.652813460719     1.033098661656    15.994914619570
         O           -1.245545777979     2.482705539281    -0.685579338344    15.994914619570
         O           -3.217100777979     1.520953539281     0.745470661656    15.994914619570
         O           -2.357599777979    -3.066982460719     0.095523661656    15.994914619570
         O            1.359959222021     2.246888539281    -0.075958338344    15.994914619570
         N            0.842833222021     0.045077539281     0.256526661656    14.003074004430
         N            3.056655222021     0.720357539281    -0.293143338344    14.003074004430
         N            4.715892222021    -0.836800460719    -0.571714338344    14.003074004430
         C           -1.290054777979     1.078284539281    -0.591493338344    12.000000000000
         C           -2.715741777979     0.655061539281    -0.256809338344    12.000000000000
         C           -0.525978777979     0.481374539281     0.600677661656    12.000000000000
         C           -2.529826777979    -0.717031460719     0.361639661656    12.000000000000
         C           -2.528914777979    -1.850538460719    -0.638706338344    12.000000000000
         C            1.219204222021    -1.261553460719     0.311857661656    12.000000000000
         C            1.755023222021     1.067289539281    -0.058819338344    12.000000000000
         C            2.510530222021    -1.609285460719     0.047578661656    12.000000000000
         C            3.411412222021    -0.550798460719    -0.258341338344    12.000000000000
         H           -0.938176777979     0.591258539281    -1.514307338344     1.007825032230
         H           -3.363152777979     0.642519539281    -1.145881338344     1.007825032230
         H           -0.440860777979     1.221734539281     1.404581661656     1.007825032230
         H           -3.144865377979    -0.873792160719     0.990590361656     1.007825032230
         H           -1.713878777979    -1.700450460719    -1.368880338344     1.007825032230
         H           -3.486131777979    -1.834149460719    -1.183551338344     1.007825032230
         H           -0.298095777979     2.713033539281    -0.524416338344     1.007825032230
         H           -2.848126777979     2.399597539281     0.509246661656     1.007825032230
         H            0.433740222021    -1.963582460719     0.569651661656     1.007825032230
         H           -2.434444777979    -3.798577460719    -0.542649338344     1.007825032230
         H            2.828541222021    -2.645543460719     0.074505661656     1.007825032230
         H            5.124609222021    -1.671006460719    -0.161830338344     1.007825032230
         H            5.319243222021    -0.020199460719    -0.567710338344     1.007825032230

  Basis Set: AUG-CC-PVTZ
    Blend: AUG-CC-PVTZ
  Basis Set: (AUG-CC-PVTZ AUX)
    Blend: AUG-CC-PVTZ-JKFIT
	 Reference Energy          =    -886.3403792855408483 [Eh]
	 Singles Energy            =      -0.0000000000000000 [Eh]
	 Same-Spin Energy          =      -0.9008551580757489 [Eh]
	 Opposite-Spin Energy      =      -2.7137694476703076 [Eh]
	 Correlation Energy        =      -3.6146246057460565 [Eh]
	 Total Energy              =    -889.9550038912868786 [Eh]

	 ================> DF-SCS-MP2 Energies <==================
	-----------------------------------------------------------
	 SCS Same-Spin Scale       =       0.3333333333333333 [-]
	 SCS Opposite-Spin Scale   =       1.2000000000000000 [-]
	 SCS Same-Spin Energy      =      -0.3002850526919163 [Eh]
	 SCS Opposite-Spin Energy  =      -3.2565233372043689 [Eh]
	 SCS Correlation Energy    =      -3.5568083898962852 [Eh]
	 SCS Total Energy          =    -889.8971876754371806 [Eh]
	-----------------------------------------------------------

  Dipole Moment: [D]
     X:     1.6642      Y:    -5.9656      Z:    -1.8362     Total:     6.4599

*** Psi4 exiting successfully. Buy a developer a beer!
