                               Psi4 1.4a3.dev225

  ==> Input File <==

--------------------------------------------------------------------------
#psi4
#
memory 32 gb

molecule  {
0 1
  O       -1.3191770     0.6538360    -1.0992360
  O       -1.5735610    -2.4640850     0.5135810
  O       -3.5606630    -1.0699430    -0.4600060
  O       -1.4399290     3.1254620     0.1265180
  O        1.1065530    -2.3833650     0.0076020
  N        0.7686360    -0.1579440    -0.3706350
  N        2.9363770    -0.9938720     0.1460080
  N        4.7058880     0.4431110     0.3611260
  C       -1.3768610    -1.0680440     0.5552780
  C       -2.7379840    -0.3746360     0.4578480
  C       -0.6377490    -0.5042940    -0.6790150
  C       -2.3707440     0.9655450    -0.1585060
  C       -1.8992030     1.9895750     0.8571380
  C        1.2309690     1.1190800    -0.4442230
  C        1.5806272    -1.2084777    -0.0696305
  C        2.5474650     1.3753690    -0.1998620
  C        3.3802090     0.2523040     0.0808410
  H       -0.8441360    -0.7686950     1.4698480
  H       -3.2257400    -0.2778790     1.4400230
  H       -0.6227070    -1.2428120    -1.4883720
  H       -3.1941750     1.3785730    -0.7472070
  H       -1.0952130     1.5703990     1.4802000
  H       -2.7410530     2.2466610     1.5166010
  H       -0.6710550    -2.8260740     0.3542250
  H       -3.3063470    -2.0105220    -0.3629290
  H        0.4929290     1.8778260    -0.6840360
  H       -1.2098800     3.8154810     0.7720340
  H        2.9334840     2.3875570    -0.2389120
  H        5.1589650     1.2712730    -0.0008400
  H        5.2635310    -0.4031270     0.3606700
units angstrom
no_reorient  #important for SAPT in psi4, default
symmetry c1  #important for SAPT in psi4, default
}

set PROPERTIES_ORIGIN ["COM"]
properties('MP2/aug-cc-pvtz', properties = ['dipole'])
--------------------------------------------------------------------------

    Molecular point group: c1
  Charge       = 0
  Multiplicity = 1
  Basis Set: AUG-CC-PVTZ
    Blend: AUG-CC-PVTZ
  Basis Set: (AUG-CC-PVTZ AUX)
    Blend: AUG-CC-PVTZ-JKFIT

    Orbital Energies [Eh]
    ---------------------

    Doubly Occupied:

       1A    -20.587828     2A    -20.583370     3A    -20.558603
       4A    -20.557011     5A    -20.513617     6A    -15.638599
       7A    -15.598926     8A    -15.554136     9A    -11.383831
      10A    -11.355803    11A    -11.342324    12A    -11.327118
      13A    -11.304721    14A    -11.299164    15A    -11.298135
      16A    -11.294392    17A    -11.251081    18A     -1.431563
      19A     -1.390025    20A     -1.382904    21A     -1.375703
      22A     -1.346397    23A     -1.298921    24A     -1.276278
      25A     -1.176930    26A     -1.082448    27A     -1.069358
      28A     -1.020770    29A     -0.938312    30A     -0.917742
      31A     -0.874399    32A     -0.830597    33A     -0.813812
      34A     -0.767717    35A     -0.753774    36A     -0.736540
      37A     -0.721432    38A     -0.709368    39A     -0.704090
      40A     -0.684706    41A     -0.676663    42A     -0.655426
      43A     -0.646704    44A     -0.635505    45A     -0.621485
      46A     -0.615463    47A     -0.608667    48A     -0.587044
      49A     -0.577871    50A     -0.565907    51A     -0.556303
      52A     -0.548932    53A     -0.536751    54A     -0.530740
      55A     -0.489914    56A     -0.481585    57A     -0.474645
      58A     -0.464281    59A     -0.453785    60A     -0.452277
      61A     -0.442911    62A     -0.433014    63A     -0.390842
      64A     -0.350986

  @DF-RHF Final Energy:  -886.36985432521749

   => Energetics <=

    Nuclear Repulsion Energy =           1335.2358269731780638
    One-Electron Energy =               -3868.1110779261280186
    Two-Electron Energy =                1646.5053966277323525
    Total Energy =                       -886.3698543252176023
  Basis Set: (AUG-CC-PVTZ AUX)
    Blend: AUG-CC-PVTZ-RI
    Molecular point group: c1

    Geometry (in Angstrom), charge = 0, multiplicity = 1:

       Center              X                  Y                   Z               Mass
    ------------   -----------------  -----------------  -----------------  -----------------
         O           -1.330448540788     0.680542887655    -1.082910079914    15.994914619570
         O           -1.584832540788    -2.437378112345     0.529906920086    15.994914619570
         O           -3.571934540788    -1.043236112345    -0.443680079914    15.994914619570
         O           -1.451200540788     3.152168887655     0.142843920086    15.994914619570
         O            1.095281459212    -2.356658112345     0.023927920086    15.994914619570
         N            0.757364459212    -0.131237112345    -0.354309079914    14.003074004430
         N            2.925105459212    -0.967165112345     0.162333920086    14.003074004430
         N            4.694616459212     0.469817887655     0.377451920086    14.003074004430
         C           -1.388132540788    -1.041337112345     0.571603920086    12.000000000000
         C           -2.749255540788    -0.347929112345     0.474173920086    12.000000000000
         C           -0.649020540788    -0.477587112345    -0.662689079914    12.000000000000
         C           -2.382015540788     0.992251887655    -0.142180079914    12.000000000000
         C           -1.910474540788     2.016281887655     0.873463920086    12.000000000000
         C            1.219697459212     1.145786887655    -0.427897079914    12.000000000000
         C            1.569355659212    -1.181770812345    -0.053304579914    12.000000000000
         C            2.536193459212     1.402075887655    -0.183536079914    12.000000000000
         C            3.368937459212     0.279010887655     0.097166920086    12.000000000000
         H           -0.855407540788    -0.741988112345     1.486173920086     1.007825032230
         H           -3.237011540788    -0.251172112345     1.456348920086     1.007825032230
         H           -0.633978540788    -1.216105112345    -1.472046079914     1.007825032230
         H           -3.205446540788     1.405279887655    -0.730881079914     1.007825032230
         H           -1.106484540788     1.597105887655     1.496525920086     1.007825032230
         H           -2.752324540788     2.273367887655     1.532926920086     1.007825032230
         H           -0.682326540788    -2.799367112345     0.370550920086     1.007825032230
         H           -3.317618540788    -1.983815112345    -0.346603079914     1.007825032230
         H            0.481657459212     1.904532887655    -0.667710079914     1.007825032230
         H           -1.221151540788     3.842187887655     0.788359920086     1.007825032230
         H            2.922212459212     2.414263887655    -0.222586079914     1.007825032230
         H            5.147693459212     1.297979887655     0.015485920086     1.007825032230
         H            5.252259459212    -0.376420112345     0.376995920086     1.007825032230

  Basis Set: AUG-CC-PVTZ
    Blend: AUG-CC-PVTZ
  Basis Set: (AUG-CC-PVTZ AUX)
    Blend: AUG-CC-PVTZ-JKFIT
	 Reference Energy          =    -886.3698543252174886 [Eh]
	 Singles Energy            =      -0.0000000000000000 [Eh]
	 Same-Spin Energy          =      -0.9022534288534890 [Eh]
	 Opposite-Spin Energy      =      -2.7170548285941587 [Eh]
	 Correlation Energy        =      -3.6193082574476478 [Eh]
	 Total Energy              =    -889.9891625826651307 [Eh]

	 ================> DF-SCS-MP2 Energies <==================
	-----------------------------------------------------------
	 SCS Same-Spin Scale       =       0.3333333333333333 [-]
	 SCS Opposite-Spin Scale   =       1.2000000000000000 [-]
	 SCS Same-Spin Energy      =      -0.3007511429511630 [Eh]
	 SCS Opposite-Spin Energy  =      -3.2604657943129904 [Eh]
	 SCS Correlation Energy    =      -3.5612169372641533 [Eh]
	 SCS Total Energy          =    -889.9310712624816233 [Eh]
	-----------------------------------------------------------

  Dipole Moment: [D]
     X:     2.6570      Y:     6.0762      Z:     1.9029     Total:     6.8994

*** Psi4 exiting successfully. Buy a developer a beer!
