                               Psi4 1.3.2 release

  ==> Input File <==

--------------------------------------------------------------------------
#psi4
#
memory 32 gb

molecule  {
0 1
  O       -1.2481010    -0.6526680     1.0325150
  O       -1.2449750     2.4828510    -0.6861630
  O       -3.2165300     1.5210990     0.7448870
  O       -2.3570290    -3.0668370     0.0949400
  O        1.3605300     2.2470340    -0.0765420
  N        0.8434040     0.0452230     0.2559430
  N        3.0464486     0.7175188    -0.2909575
  N        4.7164630    -0.8366550    -0.5722980
  C       -1.2894840     1.0784300    -0.5920770
  C       -2.7151710     0.6552070    -0.2573930
  C       -0.5254080     0.4815200     0.6000940
  C       -2.5292560    -0.7168860     0.3610560
  C       -2.5283440    -1.8503930    -0.6392900
  C        1.2197750    -1.2614080     0.3112740
  C        1.7555940     1.0674350    -0.0594030
  C        2.5019340    -1.6008716     0.0483566
  C        3.4119830    -0.5506530    -0.2589250
  H       -0.9376060     0.5914040    -1.5148910
  H       -3.3625820     0.6426650    -1.1464650
  H       -0.4402900     1.2218800     1.4039980
  H       -3.2819570    -0.9087340     1.1307830
  H       -1.7133080    -1.7003050    -1.3694640
  H       -3.4855610    -1.8340040    -1.1841350
  H       -0.2975250     2.7131790    -0.5250000
  H       -2.8475560     2.3997430     0.5086630
  H        0.4343110    -1.9634370     0.5690680
  H       -2.4338740    -3.7984320    -0.5432330
  H        2.8291120    -2.6453980     0.0739220
  H        5.1251800    -1.6708610    -0.1624140
  H        5.3198140    -0.0200540    -0.5682940
units angstrom
no_reorient  #important for SAPT in psi4, default
symmetry c1  #important for SAPT in psi4, default
}

set PROPERTIES_ORIGIN ["COM"]
properties('MP2/aug-cc-pvtz', properties = ['dipole'])
--------------------------------------------------------------------------

    Molecular point group: c1
  Charge       = 0
  Multiplicity = 1
  Basis Set: AUG-CC-PVTZ
    Blend: AUG-CC-PVTZ
  Basis Set: (AUG-CC-PVTZ AUX)
    Blend: AUG-CC-PVTZ-JKFIT

    Orbital Energies [Eh]
    ---------------------

    Doubly Occupied:

       1A    -20.581992     2A    -20.581048     3A    -20.557396
       4A    -20.556691     5A    -20.520618     6A    -15.635365
       7A    -15.601698     8A    -15.552298     9A    -11.386802
      10A    -11.359199    11A    -11.340742    12A    -11.326378
      13A    -11.300879    14A    -11.296518    15A    -11.296086
      16A    -11.292530    17A    -11.248348    18A     -1.428849
      19A     -1.396192    20A     -1.379709    21A     -1.372459
      22A     -1.345868    23A     -1.306542    24A     -1.273621
      25A     -1.184604    26A     -1.083601    27A     -1.067301
      28A     -1.021072    29A     -0.935581    30A     -0.908473
      31A     -0.878775    32A     -0.832327    33A     -0.811549
      34A     -0.768279    35A     -0.751859    36A     -0.735615
      37A     -0.721124    38A     -0.702790    39A     -0.698013
      40A     -0.686312    41A     -0.672392    42A     -0.654682
      43A     -0.649876    44A     -0.637802    45A     -0.621441
      46A     -0.614560    47A     -0.607454    48A     -0.592841
      49A     -0.575572    50A     -0.569571    51A     -0.553727
      52A     -0.545373    53A     -0.537117    54A     -0.531635
      55A     -0.498231    56A     -0.477169    57A     -0.474047
      58A     -0.461652    59A     -0.458669    60A     -0.452355
      61A     -0.440309    62A     -0.432456    63A     -0.395796
      64A     -0.350859

  @DF-RHF Final Energy:  -886.37372465501926

   => Energetics <=

    Nuclear Repulsion Energy =           1324.3148240042644375
    One-Electron Energy =               -3846.3157184155870709
    Two-Electron Energy =                1635.6271697563031466
    Total Energy =                       -886.3737246550192594
  Basis Set: (AUG-CC-PVTZ AUX)
    Blend: AUG-CC-PVTZ-RI
    Molecular point group: c1

    Geometry (in Angstrom), charge = 0, multiplicity = 1:

       Center              X                  Y                   Z               Mass
    ------------   -----------------  -----------------  -----------------  -----------------
         O           -1.247027663835    -0.652904255791     1.032288253072    15.994914619570
         O           -1.243901663835     2.482614744209    -0.686389746928    15.994914619570
         O           -3.215456663835     1.520862744209     0.744660253072    15.994914619570
         O           -2.355955663835    -3.067073255791     0.094713253072    15.994914619570
         O            1.361603336165     2.246797744209    -0.076768746928    15.994914619570
         N            0.844477336165     0.044986744209     0.255716253072    14.003074004430
         N            3.047521936165     0.717282544209    -0.291184246928    14.003074004430
         N            4.717536336165    -0.836891255791    -0.572524746928    14.003074004430
         C           -1.288410663835     1.078193744209    -0.592303746928    12.000000000000
         C           -2.714097663835     0.654970744209    -0.257619746928    12.000000000000
         C           -0.524334663835     0.481283744209     0.599867253072    12.000000000000
         C           -2.528182663835    -0.717122255791     0.360829253072    12.000000000000
         C           -2.527270663835    -1.850629255791    -0.639516746928    12.000000000000
         C            1.220848336165    -1.261644255791     0.311047253072    12.000000000000
         C            1.756667336165     1.067198744209    -0.059629746928    12.000000000000
         C            2.503007336165    -1.601107855791     0.048129853072    12.000000000000
         C            3.413056336165    -0.550889255791    -0.259151746928    12.000000000000
         H           -0.936532663835     0.591167744209    -1.515117746928     1.007825032230
         H           -3.361508663835     0.642428744209    -1.146691746928     1.007825032230
         H           -0.439216663835     1.221643744209     1.403771253072     1.007825032230
         H           -3.280883663835    -0.908970255791     1.130556253072     1.007825032230
         H           -1.712234663835    -1.700541255791    -1.369690746928     1.007825032230
         H           -3.484487663835    -1.834240255791    -1.184361746928     1.007825032230
         H           -0.296451663835     2.712942744209    -0.525226746928     1.007825032230
         H           -2.846482663835     2.399506744209     0.508436253072     1.007825032230
         H            0.435384336165    -1.963673255791     0.568841253072     1.007825032230
         H           -2.432800663835    -3.798668255791    -0.543459746928     1.007825032230
         H            2.830185336165    -2.645634255791     0.073695253072     1.007825032230
         H            5.126253336165    -1.671097255791    -0.162640746928     1.007825032230
         H            5.320887336165    -0.020290255791    -0.568520746928     1.007825032230

  Basis Set: AUG-CC-PVTZ
    Blend: AUG-CC-PVTZ
  Basis Set: (AUG-CC-PVTZ AUX)
    Blend: AUG-CC-PVTZ-JKFIT
	 Reference Energy          =    -886.3737246550192594 [Eh]
	 Singles Energy            =      -0.0000000000000000 [Eh]
	 Same-Spin Energy          =      -0.9012292700817596 [Eh]
	 Opposite-Spin Energy      =      -2.7146507441975363 [Eh]
	 Correlation Energy        =      -3.6158800142792957 [Eh]
	 Total Energy              =    -889.9896046692985010 [Eh]

	 ================> DF-SCS-MP2 Energies <==================
	-----------------------------------------------------------
	 SCS Same-Spin Scale       =       0.3333333333333333 [-]
	 SCS Opposite-Spin Scale   =       1.2000000000000000 [-]
	 SCS Same-Spin Energy      =      -0.3004097566939198 [Eh]
	 SCS Opposite-Spin Energy  =      -3.2575808930370433 [Eh]
	 SCS Correlation Energy    =      -3.5579906497309630 [Eh]
	 SCS Total Energy          =    -889.9317153047502416 [Eh]
	-----------------------------------------------------------

  Dipole Moment: [D]
     X:     1.7943      Y:    -5.9768      Z:    -1.8347     Total:     6.5045

*** Psi4 exiting successfully. Buy a developer a beer!
