                               Psi4 1.3.2 release

  ==> Input File <==

--------------------------------------------------------------------------
#psi4
#
memory 32 gb

molecule  {
0 1
  O       -1.2481010    -0.6526680     1.0325150
  O       -1.2449750     2.4828510    -0.6861630
  O       -3.2165300     1.5210990     0.7448870
  O       -2.3570290    -3.0668370     0.0949400
  O        1.3605300     2.2470340    -0.0765420
  N        0.8434040     0.0452230     0.2559430
  N        3.0572260     0.7205030    -0.2937270
  N        4.7164630    -0.8366550    -0.5722980
  C       -1.2894840     1.0784300    -0.5920770
  C       -2.7151710     0.6552070    -0.2573930
  C       -0.4756855     0.4426759     0.6776750
  C       -2.5292560    -0.7168860     0.3610560
  C       -2.5283440    -1.8503930    -0.6392900
  C        1.2197750    -1.2614080     0.3112740
  C        1.7555940     1.0674350    -0.0594030
  C        2.5111010    -1.6091400     0.0469950
  C        3.4119830    -0.5506530    -0.2589250
  H       -0.9376060     0.5914040    -1.5148910
  H       -3.3625820     0.6426650    -1.1464650
  H       -0.4402900     1.2218800     1.4039980
  H       -3.2819570    -0.9087340     1.1307830
  H       -1.7133080    -1.7003050    -1.3694640
  H       -3.4855610    -1.8340040    -1.1841350
  H       -0.2975250     2.7131790    -0.5250000
  H       -2.8475560     2.3997430     0.5086630
  H        0.4343110    -1.9634370     0.5690680
  H       -2.4338740    -3.7984320    -0.5432330
  H        2.8291120    -2.6453980     0.0739220
  H        5.1251800    -1.6708610    -0.1624140
  H        5.3198140    -0.0200540    -0.5682940
units angstrom
no_reorient  #important for SAPT in psi4, default
symmetry c1  #important for SAPT in psi4, default
}

set PROPERTIES_ORIGIN ["COM"]
properties('MP2/aug-cc-pvtz', properties = ['dipole'])
--------------------------------------------------------------------------

    Molecular point group: c1
  Charge       = 0
  Multiplicity = 1
  Basis Set: AUG-CC-PVTZ
    Blend: AUG-CC-PVTZ
  Basis Set: (AUG-CC-PVTZ AUX)
    Blend: AUG-CC-PVTZ-JKFIT

    Orbital Energies [Eh]
    ---------------------

    Doubly Occupied:

       1A    -20.582092     2A    -20.580146     3A    -20.555560
       4A    -20.554096     5A    -20.523224     6A    -15.638893
       7A    -15.600977     8A    -15.554964     9A    -11.390394
      10A    -11.359185    11A    -11.338893    12A    -11.329404
      13A    -11.301132    14A    -11.298147    15A    -11.295346
      16A    -11.289975    17A    -11.249944    18A     -1.432519
      19A     -1.398192    20A     -1.377964    21A     -1.373167
      22A     -1.343134    23A     -1.308454    24A     -1.278483
      25A     -1.184487    26A     -1.083412    27A     -1.066721
      28A     -1.009007    29A     -0.937410    30A     -0.912562
      31A     -0.877272    32A     -0.834525    33A     -0.807751
      34A     -0.770466    35A     -0.752264    36A     -0.735113
      37A     -0.720395    38A     -0.702410    39A     -0.696806
      40A     -0.687846    41A     -0.675102    42A     -0.659078
      43A     -0.651869    44A     -0.637379    45A     -0.620550
      46A     -0.617024    47A     -0.607077    48A     -0.594012
      49A     -0.575666    50A     -0.573403    51A     -0.554085
      52A     -0.545672    53A     -0.533873    54A     -0.530915
      55A     -0.498529    56A     -0.476173    57A     -0.470745
      58A     -0.463306    59A     -0.459952    60A     -0.447754
      61A     -0.436340    62A     -0.429512    63A     -0.393103
      64A     -0.348841

  @DF-RHF Final Energy:  -886.36638385003846

   => Energetics <=

    Nuclear Repulsion Energy =           1323.0422372147263559
    One-Electron Energy =               -3843.7518599478767101
    Two-Electron Energy =                1634.3432388831120079
    Total Energy =                       -886.3663838500383463
  Basis Set: (AUG-CC-PVTZ AUX)
    Blend: AUG-CC-PVTZ-RI
    Molecular point group: c1

    Geometry (in Angstrom), charge = 0, multiplicity = 1:

       Center              X                  Y                   Z               Mass
    ------------   -----------------  -----------------  -----------------  -----------------
         O           -1.250555602183    -0.650750437557     1.028685194837    15.994914619570
         O           -1.247429602183     2.484768562443    -0.689992805163    15.994914619570
         O           -3.218984602183     1.523016562443     0.741057194837    15.994914619570
         O           -2.359483602183    -3.064919437557     0.091110194837    15.994914619570
         O            1.358075397817     2.248951562443    -0.080371805163    15.994914619570
         N            0.840949397817     0.047140562443     0.252113194837    14.003074004430
         N            3.054771397817     0.722420562443    -0.297556805163    14.003074004430
         N            4.714008397817    -0.834737437557    -0.576127805163    14.003074004430
         C           -1.291938602183     1.080347562443    -0.595906805163    12.000000000000
         C           -2.717625602183     0.657124562443    -0.261222805163    12.000000000000
         C           -0.478140102183     0.444593462443     0.673845194837    12.000000000000
         C           -2.531710602183    -0.714968437557     0.357226194837    12.000000000000
         C           -2.530798602183    -1.848475437557    -0.643119805163    12.000000000000
         C            1.217320397817    -1.259490437557     0.307444194837    12.000000000000
         C            1.753139397817     1.069352562443    -0.063232805163    12.000000000000
         C            2.508646397817    -1.607222437557     0.043165194837    12.000000000000
         C            3.409528397817    -0.548735437557    -0.262754805163    12.000000000000
         H           -0.940060602183     0.593321562443    -1.518720805163     1.007825032230
         H           -3.365036602183     0.644582562443    -1.150294805163     1.007825032230
         H           -0.442744602183     1.223797562443     1.400168194837     1.007825032230
         H           -3.284411602183    -0.906816437557     1.126953194837     1.007825032230
         H           -1.715762602183    -1.698387437557    -1.373293805163     1.007825032230
         H           -3.488015602183    -1.832086437557    -1.187964805163     1.007825032230
         H           -0.299979602183     2.715096562443    -0.528829805163     1.007825032230
         H           -2.850010602183     2.401660562443     0.504833194837     1.007825032230
         H            0.431856397817    -1.961519437557     0.565238194837     1.007825032230
         H           -2.436328602183    -3.796514437557    -0.547062805163     1.007825032230
         H            2.826657397817    -2.643480437557     0.070092194837     1.007825032230
         H            5.122725397817    -1.668943437557    -0.166243805163     1.007825032230
         H            5.317359397817    -0.018136437557    -0.572123805163     1.007825032230

  Basis Set: AUG-CC-PVTZ
    Blend: AUG-CC-PVTZ
  Basis Set: (AUG-CC-PVTZ AUX)
    Blend: AUG-CC-PVTZ-JKFIT
	 Reference Energy          =    -886.3663838500384600 [Eh]
	 Singles Energy            =      -0.0000000000000000 [Eh]
	 Same-Spin Energy          =      -0.9012469673456313 [Eh]
	 Opposite-Spin Energy      =      -2.7147036116460233 [Eh]
	 Correlation Energy        =      -3.6159505789916544 [Eh]
	 Total Energy              =    -889.9823344290300611 [Eh]

	 ================> DF-SCS-MP2 Energies <==================
	-----------------------------------------------------------
	 SCS Same-Spin Scale       =       0.3333333333333333 [-]
	 SCS Opposite-Spin Scale   =       1.2000000000000000 [-]
	 SCS Same-Spin Energy      =      -0.3004156557818771 [Eh]
	 SCS Opposite-Spin Energy  =      -3.2576443339752279 [Eh]
	 SCS Correlation Energy    =      -3.5580599897571048 [Eh]
	 SCS Total Energy          =    -889.9244438397955719 [Eh]
	-----------------------------------------------------------

  Dipole Moment: [D]
     X:     1.8580      Y:    -6.0229      Z:    -1.7517     Total:     6.5418

*** Psi4 exiting successfully. Buy a developer a beer!
