                               Psi4 1.3.2 release

  ==> Input File <==

--------------------------------------------------------------------------
#psi4
#
memory 32 gb

molecule  {
0 1
  O       -1.2481010    -0.6526680     1.0325150
  O       -1.2449750     2.4828510    -0.6861630
  O       -3.2165300     1.5210990     0.7448870
  O       -2.3570290    -3.0668370     0.0949400
  O        1.3605300     2.2470340    -0.0765420
  N        0.8434040     0.0452230     0.2559430
  N        3.0572260     0.7205030    -0.2937270
  N        4.7164630    -0.8366550    -0.5722980
  C       -1.2894840     1.0784300    -0.5920770
  C       -2.7151710     0.6552070    -0.2573930
  C       -0.5347352     0.4845478     0.5926232
  C       -2.5264444    -0.7062771     0.3547957
  C       -2.5283440    -1.8503930    -0.6392900
  C        1.2197750    -1.2614080     0.3112740
  C        1.7555940     1.0674350    -0.0594030
  C        2.5111010    -1.6091400     0.0469950
  C        3.4119830    -0.5506530    -0.2589250
  H       -0.9376060     0.5914040    -1.5148910
  H       -3.3625820     0.6426650    -1.1464650
  H       -0.4402900     1.2218800     1.4039980
  H       -3.2819570    -0.9087340     1.1307830
  H       -1.7133080    -1.7003050    -1.3694640
  H       -3.4855610    -1.8340040    -1.1841350
  H       -0.2975250     2.7131790    -0.5250000
  H       -2.8475560     2.3997430     0.5086630
  H        0.4343110    -1.9634370     0.5690680
  H       -2.4338740    -3.7984320    -0.5432330
  H        2.8291120    -2.6453980     0.0739220
  H        5.1251800    -1.6708610    -0.1624140
  H        5.3198140    -0.0200540    -0.5682940
units angstrom
no_reorient  #important for SAPT in psi4, default
symmetry c1  #important for SAPT in psi4, default
}

set PROPERTIES_ORIGIN ["COM"]
properties('MP2/aug-cc-pvtz', properties = ['dipole'])
--------------------------------------------------------------------------

    Molecular point group: c1
  Charge       = 0
  Multiplicity = 1
  Basis Set: AUG-CC-PVTZ
    Blend: AUG-CC-PVTZ
  Basis Set: (AUG-CC-PVTZ AUX)
    Blend: AUG-CC-PVTZ-JKFIT

    Orbital Energies [Eh]
    ---------------------

    Doubly Occupied:

       1A    -20.582654     2A    -20.582542     3A    -20.558377
       4A    -20.557805     5A    -20.521660     6A    -15.636416
       7A    -15.599604     8A    -15.553024     9A    -11.387828
      10A    -11.357557    11A    -11.342135    12A    -11.328236
      13A    -11.301554    14A    -11.297271    15A    -11.296951
      16A    -11.293163    17A    -11.248238    18A     -1.430306
      19A     -1.396268    20A     -1.380646    21A     -1.373085
      22A     -1.347018    23A     -1.305611    24A     -1.272875
      25A     -1.181766    26A     -1.081567    27A     -1.069921
      28A     -1.022704    29A     -0.935150    30A     -0.908963
      31A     -0.877565    32A     -0.832549    33A     -0.812222
      34A     -0.766325    35A     -0.752408    36A     -0.736317
      37A     -0.720362    38A     -0.703093    39A     -0.698969
      40A     -0.685304    41A     -0.672661    42A     -0.654075
      43A     -0.651559    44A     -0.639020    45A     -0.620831
      46A     -0.614101    47A     -0.606783    48A     -0.593440
      49A     -0.576181    50A     -0.568271    51A     -0.554962
      52A     -0.545988    53A     -0.538453    54A     -0.531214
      55A     -0.497939    56A     -0.478379    57A     -0.475967
      58A     -0.461676    59A     -0.460104    60A     -0.454094
      61A     -0.441323    62A     -0.432589    63A     -0.395169
      64A     -0.349855

  @DF-RHF Final Energy:  -886.37265739657687

   => Energetics <=

    Nuclear Repulsion Energy =           1323.9639291685143689
    One-Electron Energy =               -3845.5718886608351568
    Two-Electron Energy =                1635.2353020957439185
    Total Energy =                       -886.3726573965768694
  Basis Set: (AUG-CC-PVTZ AUX)
    Blend: AUG-CC-PVTZ-RI
    Molecular point group: c1

    Geometry (in Angstrom), charge = 0, multiplicity = 1:

       Center              X                  Y                   Z               Mass
    ------------   -----------------  -----------------  -----------------  -----------------
         O           -1.247779389110    -0.653341170229     1.033192847936    15.994914619570
         O           -1.244653389110     2.482177829771    -0.685485152064    15.994914619570
         O           -3.216208389110     1.520425829771     0.745564847936    15.994914619570
         O           -2.356707389110    -3.067510170229     0.095617847936    15.994914619570
         O            1.360851610890     2.246360829771    -0.075864152064    15.994914619570
         N            0.843725610890     0.044549829771     0.256620847936    14.003074004430
         N            3.057547610890     0.719829829771    -0.293049152064    14.003074004430
         N            4.716784610890    -0.837328170229    -0.571620152064    14.003074004430
         C           -1.289162389110     1.077756829771    -0.591399152064    12.000000000000
         C           -2.714849389110     0.654533829771    -0.256715152064    12.000000000000
         C           -0.534413589110     0.483874629771     0.593301047936    12.000000000000
         C           -2.526122789110    -0.706950270229     0.355473547936    12.000000000000
         C           -2.528022389110    -1.851066170229    -0.638612152064    12.000000000000
         C            1.220096610890    -1.262081170229     0.311951847936    12.000000000000
         C            1.755915610890     1.066761829771    -0.058725152064    12.000000000000
         C            2.511422610890    -1.609813170229     0.047672847936    12.000000000000
         C            3.412304610890    -0.551326170229    -0.258247152064    12.000000000000
         H           -0.937284389110     0.590730829771    -1.514213152064     1.007825032230
         H           -3.362260389110     0.641991829771    -1.145787152064     1.007825032230
         H           -0.439968389110     1.221206829771     1.404675847936     1.007825032230
         H           -3.281635389110    -0.909407170229     1.131460847936     1.007825032230
         H           -1.712986389110    -1.700978170229    -1.368786152064     1.007825032230
         H           -3.485239389110    -1.834677170229    -1.183457152064     1.007825032230
         H           -0.297203389110     2.712505829771    -0.524322152064     1.007825032230
         H           -2.847234389110     2.399069829771     0.509340847936     1.007825032230
         H            0.434632610890    -1.964110170229     0.569745847936     1.007825032230
         H           -2.433552389110    -3.799105170229    -0.542555152064     1.007825032230
         H            2.829433610890    -2.646071170229     0.074599847936     1.007825032230
         H            5.125501610890    -1.671534170229    -0.161736152064     1.007825032230
         H            5.320135610890    -0.020727170229    -0.567616152064     1.007825032230

  Basis Set: AUG-CC-PVTZ
    Blend: AUG-CC-PVTZ
  Basis Set: (AUG-CC-PVTZ AUX)
    Blend: AUG-CC-PVTZ-JKFIT
	 Reference Energy          =    -886.3726573965768694 [Eh]
	 Singles Energy            =      -0.0000000000000000 [Eh]
	 Same-Spin Energy          =      -0.9014315042675451 [Eh]
	 Opposite-Spin Energy      =      -2.7151985130772798 [Eh]
	 Correlation Energy        =      -3.6166300173448249 [Eh]
	 Total Energy              =    -889.9892874139217156 [Eh]

	 ================> DF-SCS-MP2 Energies <==================
	-----------------------------------------------------------
	 SCS Same-Spin Scale       =       0.3333333333333333 [-]
	 SCS Opposite-Spin Scale   =       1.2000000000000000 [-]
	 SCS Same-Spin Energy      =      -0.3004771680891817 [Eh]
	 SCS Opposite-Spin Energy  =      -3.2582382156927356 [Eh]
	 SCS Correlation Energy    =      -3.5587153837819172 [Eh]
	 SCS Total Energy          =    -889.9313727803587426 [Eh]
	-----------------------------------------------------------

  Dipole Moment: [D]
     X:     1.6739      Y:    -5.9341      Z:    -1.8320     Total:     6.4321

*** Psi4 exiting successfully. Buy a developer a beer!
