                               Psi4 1.3.2 release

  ==> Input File <==

--------------------------------------------------------------------------
#psi4
#
memory 32 gb

molecule  {
0 1
  O       -1.2481010    -0.6526680     1.0325150
  O       -1.2449750     2.4828510    -0.6861630
  O       -3.2165300     1.5210990     0.7448870
  O       -2.3570290    -3.0668370     0.0949400
  O        1.3605300     2.2470340    -0.0765420
  N        0.8434040     0.0452230     0.2559430
  N        3.0572260     0.7205030    -0.2937270
  N        4.7164630    -0.8366550    -0.5722980
  C       -1.2894840     1.0784300    -0.5920770
  C       -2.6443689     0.5329254    -0.3989354
  C       -0.5254080     0.4815200     0.6000940
  C       -2.5292560    -0.7168860     0.3610560
  C       -2.5283440    -1.8503930    -0.6392900
  C        1.2197750    -1.2614080     0.3112740
  C        1.7555940     1.0674350    -0.0594030
  C        2.5111010    -1.6091400     0.0469950
  C        3.4119830    -0.5506530    -0.2589250
  H       -0.9376060     0.5914040    -1.5148910
  H       -3.3625820     0.6426650    -1.1464650
  H       -0.4402900     1.2218800     1.4039980
  H       -3.2819570    -0.9087340     1.1307830
  H       -1.7133080    -1.7003050    -1.3694640
  H       -3.4855610    -1.8340040    -1.1841350
  H       -0.2975250     2.7131790    -0.5250000
  H       -2.8475560     2.3997430     0.5086630
  H        0.4343110    -1.9634370     0.5690680
  H       -2.4338740    -3.7984320    -0.5432330
  H        2.8291120    -2.6453980     0.0739220
  H        5.1251800    -1.6708610    -0.1624140
  H        5.3198140    -0.0200540    -0.5682940
units angstrom
no_reorient  #important for SAPT in psi4, default
symmetry c1  #important for SAPT in psi4, default
}

set PROPERTIES_ORIGIN ["COM"]
properties('MP2/aug-cc-pvtz', properties = ['dipole'])
--------------------------------------------------------------------------

    Molecular point group: c1
  Charge       = 0
  Multiplicity = 1
  Basis Set: AUG-CC-PVTZ
    Blend: AUG-CC-PVTZ
  Basis Set: (AUG-CC-PVTZ AUX)
    Blend: AUG-CC-PVTZ-JKFIT

    Orbital Energies [Eh]
    ---------------------

    Doubly Occupied:

       1A    -20.585786     2A    -20.584341     3A    -20.559270
       4A    -20.536957     5A    -20.523118     6A    -15.638561
       7A    -15.600855     8A    -15.554499     9A    -11.389531
      10A    -11.359057    11A    -11.345253    12A    -11.330094
      13A    -11.304039    14A    -11.303160    15A    -11.302192
      16A    -11.297539    17A    -11.250000    18A     -1.431590
      19A     -1.397816    20A     -1.377158    21A     -1.369505
      22A     -1.307463    23A     -1.293712    24A     -1.274862
      25A     -1.183473    26A     -1.091883    27A     -1.084122
      28A     -1.029592    29A     -0.940216    30A     -0.911160
      31A     -0.878806    32A     -0.836883    33A     -0.821370
      34A     -0.768470    35A     -0.756791    36A     -0.738538
      37A     -0.723983    38A     -0.704075    39A     -0.691451
      40A     -0.686816    41A     -0.659074    42A     -0.656476
      43A     -0.646542    44A     -0.642512    45A     -0.622065
      46A     -0.617875    47A     -0.605428    48A     -0.595686
      49A     -0.576119    50A     -0.568921    51A     -0.554365
      52A     -0.542986    53A     -0.533777    54A     -0.519022
      55A     -0.492557    56A     -0.483473    57A     -0.477187
      58A     -0.462411    59A     -0.459372    60A     -0.446455
      61A     -0.445412    62A     -0.434545    63A     -0.396804
      64A     -0.351790

  @DF-RHF Final Energy:  -886.33825286863441

   => Energetics <=

    Nuclear Repulsion Energy =           1323.7498453274465646
    One-Electron Energy =               -3845.0665149897072297
    Two-Electron Energy =                1634.9784167936263657
    Total Energy =                       -886.3382528686342994
  Basis Set: (AUG-CC-PVTZ AUX)
    Blend: AUG-CC-PVTZ-RI
    Molecular point group: c1

    Geometry (in Angstrom), charge = 0, multiplicity = 1:

       Center              X                  Y                   Z               Mass
    ------------   -----------------  -----------------  -----------------  -----------------
         O           -1.251596203859    -0.646631516785     1.039502296548    15.994914619570
         O           -1.248470203859     2.488887483215    -0.679175703452    15.994914619570
         O           -3.220025203859     1.527135483215     0.751874296548    15.994914619570
         O           -2.360524203859    -3.060800516785     0.101927296548    15.994914619570
         O            1.357034796141     2.253070483215    -0.069554703452    15.994914619570
         N            0.839908796141     0.051259483215     0.262930296548    14.003074004430
         N            3.053730796141     0.726539483215    -0.286739703452    14.003074004430
         N            4.712967796141    -0.830618516785    -0.565310703452    14.003074004430
         C           -1.292979203859     1.084466483215    -0.585089703452    12.000000000000
         C           -2.647864103859     0.538961883215    -0.391948103452    12.000000000000
         C           -0.528903203859     0.487556483215     0.607081296548    12.000000000000
         C           -2.532751203859    -0.710849516785     0.368043296548    12.000000000000
         C           -2.531839203859    -1.844356516785    -0.632302703452    12.000000000000
         C            1.216279796141    -1.255371516785     0.318261296548    12.000000000000
         C            1.752098796141     1.073471483215    -0.052415703452    12.000000000000
         C            2.507605796141    -1.603103516785     0.053982296548    12.000000000000
         C            3.408487796141    -0.544616516785    -0.251937703452    12.000000000000
         H           -0.941101203859     0.597440483215    -1.507903703452     1.007825032230
         H           -3.366077203859     0.648701483215    -1.139477703452     1.007825032230
         H           -0.443785203859     1.227916483215     1.410985296548     1.007825032230
         H           -3.285452203859    -0.902697516785     1.137770296548     1.007825032230
         H           -1.716803203859    -1.694268516785    -1.362476703452     1.007825032230
         H           -3.489056203859    -1.827967516785    -1.177147703452     1.007825032230
         H           -0.301020203859     2.719215483215    -0.518012703452     1.007825032230
         H           -2.851051203859     2.405779483215     0.515650296548     1.007825032230
         H            0.430815796141    -1.957400516785     0.576055296548     1.007825032230
         H           -2.437369203859    -3.792395516785    -0.536245703452     1.007825032230
         H            2.825616796141    -2.639361516785     0.080909296548     1.007825032230
         H            5.121684796141    -1.664824516785    -0.155426703452     1.007825032230
         H            5.316318796141    -0.014017516785    -0.561306703452     1.007825032230

  Basis Set: AUG-CC-PVTZ
    Blend: AUG-CC-PVTZ
  Basis Set: (AUG-CC-PVTZ AUX)
    Blend: AUG-CC-PVTZ-JKFIT
	 Reference Energy          =    -886.3382528686344131 [Eh]
	 Singles Energy            =      -0.0000000000000000 [Eh]
	 Same-Spin Energy          =      -0.9031069917421912 [Eh]
	 Opposite-Spin Energy      =      -2.7205342924430012 [Eh]
	 Correlation Energy        =      -3.6236412841851924 [Eh]
	 Total Energy              =    -889.9618941528195819 [Eh]

	 ================> DF-SCS-MP2 Energies <==================
	-----------------------------------------------------------
	 SCS Same-Spin Scale       =       0.3333333333333333 [-]
	 SCS Opposite-Spin Scale   =       1.2000000000000000 [-]
	 SCS Same-Spin Energy      =      -0.3010356639140637 [Eh]
	 SCS Opposite-Spin Energy  =      -3.2646411509316011 [Eh]
	 SCS Correlation Energy    =      -3.5656768148456650 [Eh]
	 SCS Total Energy          =    -889.9039296834801007 [Eh]
	-----------------------------------------------------------

  Dipole Moment: [D]
     X:     1.9446      Y:    -6.3517      Z:    -2.1358     Total:     6.9776

*** Psi4 exiting successfully. Buy a developer a beer!
