                               Psi4 1.3.2 release

  ==> Input File <==

--------------------------------------------------------------------------
#psi4
#
memory 32 gb

molecule  {
0 1
  O       -1.2481010    -0.6526680     1.0325150
  O       -1.2449750     2.4828510    -0.6861630
  O       -3.2165300     1.5210990     0.7448870
  O       -2.3570290    -3.0668370     0.0949400
  O        1.3605300     2.2470340    -0.0765420
  N        0.8434040     0.0452230     0.2559430
  N        3.0572260     0.7205030    -0.2937270
  N        4.7164630    -0.8366550    -0.5722980
  C       -1.2894840     1.0784300    -0.5920770
  C       -2.7151710     0.6552070    -0.2573930
  C       -0.5254080     0.4815200     0.6000940
  C       -2.5292560    -0.7168860     0.3610560
  C       -2.5283440    -1.8503930    -0.6392900
  C        1.2197750    -1.2614080     0.3112740
  C        1.7555940     1.0674350    -0.0594030
  C        2.4995078    -1.6546677     0.0545356
  C        3.4119830    -0.5506530    -0.2589250
  H       -0.9376060     0.5914040    -1.5148910
  H       -3.3625820     0.6426650    -1.1464650
  H       -0.4402900     1.2218800     1.4039980
  H       -3.2819570    -0.9087340     1.1307830
  H       -1.7133080    -1.7003050    -1.3694640
  H       -3.4855610    -1.8340040    -1.1841350
  H       -0.2975250     2.7131790    -0.5250000
  H       -2.8475560     2.3997430     0.5086630
  H        0.4594485    -1.9915962     0.5661956
  H       -2.4338740    -3.7984320    -0.5432330
  H        2.8291120    -2.6453980     0.0739220
  H        5.1251800    -1.6708610    -0.1624140
  H        5.3198140    -0.0200540    -0.5682940
units angstrom
no_reorient  #important for SAPT in psi4, default
symmetry c1  #important for SAPT in psi4, default
}

set PROPERTIES_ORIGIN ["COM"]
properties('MP2/aug-cc-pvtz', properties = ['dipole'])
--------------------------------------------------------------------------

    Molecular point group: c1
  Charge       = 0
  Multiplicity = 1
  Basis Set: AUG-CC-PVTZ
    Blend: AUG-CC-PVTZ
  Basis Set: (AUG-CC-PVTZ AUX)
    Blend: AUG-CC-PVTZ-JKFIT

    Orbital Energies [Eh]
    ---------------------

    Doubly Occupied:

       1A    -20.581432     2A    -20.580285     3A    -20.557332
       4A    -20.557076     5A    -20.523529     6A    -15.636314
       7A    -15.601285     8A    -15.554925     9A    -11.389607
      10A    -11.362193    11A    -11.341072    12A    -11.326412
      13A    -11.300365    14A    -11.296131    15A    -11.296055
      16A    -11.292388    17A    -11.249056    18A     -1.428394
      19A     -1.396632    20A     -1.379595    21A     -1.372026
      22A     -1.345976    23A     -1.304844    24A     -1.273310
      25A     -1.182930    26A     -1.080390    27A     -1.066946
      28A     -1.020300    29A     -0.933522    30A     -0.905448
      31A     -0.878196    32A     -0.832713    33A     -0.810806
      34A     -0.765333    35A     -0.753454    36A     -0.736145
      37A     -0.719304    38A     -0.702482    39A     -0.698108
      40A     -0.686529    41A     -0.674877    42A     -0.656478
      43A     -0.654082    44A     -0.639010    45A     -0.617250
      46A     -0.612786    47A     -0.601915    48A     -0.598334
      49A     -0.574667    50A     -0.568500    51A     -0.553575
      52A     -0.545389    53A     -0.537073    54A     -0.531238
      55A     -0.498081    56A     -0.476837    57A     -0.473938
      58A     -0.462297    59A     -0.460273    60A     -0.452338
      61A     -0.440080    62A     -0.432783    63A     -0.395438
      64A     -0.350335

  @DF-RHF Final Energy:  -886.37142416624181

   => Energetics <=

    Nuclear Repulsion Energy =           1322.7462983580428499
    One-Electron Energy =               -3843.1826202992119761
    Two-Electron Energy =                1634.0648977749272035
    Total Energy =                       -886.3714241662416953
  Basis Set: (AUG-CC-PVTZ AUX)
    Blend: AUG-CC-PVTZ-RI
    Molecular point group: c1

    Geometry (in Angstrom), charge = 0, multiplicity = 1:

       Center              X                  Y                   Z               Mass
    ------------   -----------------  -----------------  -----------------  -----------------
         O           -1.247632950942    -0.650303752183     1.032154672060    15.994914619570
         O           -1.244506950942     2.485215247817    -0.686523327940    15.994914619570
         O           -3.216061950942     1.523463247817     0.744526672060    15.994914619570
         O           -2.356560950942    -3.064472752183     0.094579672060    15.994914619570
         O            1.360998049058     2.249398247817    -0.076902327940    15.994914619570
         N            0.843872049058     0.047587247817     0.255582672060    14.003074004430
         N            3.057694049058     0.722867247817    -0.294087327940    14.003074004430
         N            4.716931049058    -0.834290752183    -0.572658327940    14.003074004430
         C           -1.289015950942     1.080794247817    -0.592437327940    12.000000000000
         C           -2.714702950942     0.657571247817    -0.257753327940    12.000000000000
         C           -0.524939950942     0.483884247817     0.599733672060    12.000000000000
         C           -2.528787950942    -0.714521752183     0.360695672060    12.000000000000
         C           -2.527875950942    -1.848028752183    -0.639650327940    12.000000000000
         C            1.220243049058    -1.259043752183     0.310913672060    12.000000000000
         C            1.756062049058     1.069799247817    -0.059763327940    12.000000000000
         C            2.499975849058    -1.652303452183     0.054175272060    12.000000000000
         C            3.412451049058    -0.548288752183    -0.259285327940    12.000000000000
         H           -0.937137950942     0.593768247817    -1.515251327940     1.007825032230
         H           -3.362113950942     0.645029247817    -1.146825327940     1.007825032230
         H           -0.439821950942     1.224244247817     1.403637672060     1.007825032230
         H           -3.281488950942    -0.906369752183     1.130422672060     1.007825032230
         H           -1.712839950942    -1.697940752183    -1.369824327940     1.007825032230
         H           -3.485092950942    -1.831639752183    -1.184495327940     1.007825032230
         H           -0.297056950942     2.715543247817    -0.525360327940     1.007825032230
         H           -2.847087950942     2.402107247817     0.508302672060     1.007825032230
         H            0.459916549058    -1.989231952183     0.565835272060     1.007825032230
         H           -2.433405950942    -3.796067752183    -0.543593327940     1.007825032230
         H            2.829580049058    -2.643033752183     0.073561672060     1.007825032230
         H            5.125648049058    -1.668496752183    -0.162774327940     1.007825032230
         H            5.320282049058    -0.017689752183    -0.568654327940     1.007825032230

  Basis Set: AUG-CC-PVTZ
    Blend: AUG-CC-PVTZ
  Basis Set: (AUG-CC-PVTZ AUX)
    Blend: AUG-CC-PVTZ-JKFIT
	 Reference Energy          =    -886.3714241662418090 [Eh]
	 Singles Energy            =      -0.0000000000000000 [Eh]
	 Same-Spin Energy          =      -0.9005362169426190 [Eh]
	 Opposite-Spin Energy      =      -2.7144894821466634 [Eh]
	 Correlation Energy        =      -3.6150256990892826 [Eh]
	 Total Energy              =    -889.9864498653311102 [Eh]

	 ================> DF-SCS-MP2 Energies <==================
	-----------------------------------------------------------
	 SCS Same-Spin Scale       =       0.3333333333333333 [-]
	 SCS Opposite-Spin Scale   =       1.2000000000000000 [-]
	 SCS Same-Spin Energy      =      -0.3001787389808730 [Eh]
	 SCS Opposite-Spin Energy  =      -3.2573873785759959 [Eh]
	 SCS Correlation Energy    =      -3.5575661175568687 [Eh]
	 SCS Total Energy          =    -889.9289902837987256 [Eh]
	-----------------------------------------------------------

  Dipole Moment: [D]
     X:     1.8525      Y:    -5.9152      Z:    -1.8521     Total:     6.4693

*** Psi4 exiting successfully. Buy a developer a beer!
