                               Psi4 1.3.2 release

  ==> Input File <==

--------------------------------------------------------------------------
#psi4
#
memory 32 gb

molecule  {
0 1
  O       -1.2481010    -0.6526680     1.0325150
  O       -1.2449750     2.4828510    -0.6861630
  O       -3.2165300     1.5210990     0.7448870
  O       -2.3570290    -3.0668370     0.0949400
  O        1.3605300     2.2470340    -0.0765420
  N        0.8434040     0.0452230     0.2559430
  N        3.0572260     0.7205030    -0.2937270
  N        4.7164630    -0.8366550    -0.5722980
  C       -1.2894840     1.0784300    -0.5920770
  C       -2.7151710     0.6552070    -0.2573930
  C       -0.5321530     0.4568747     0.6035450
  C       -2.5292560    -0.7168860     0.3610560
  C       -2.5283440    -1.8503930    -0.6392900
  C        1.2197750    -1.2614080     0.3112740
  C        1.7729812     1.0505062    -0.0630287
  C        2.5111010    -1.6091400     0.0469950
  C        3.4119830    -0.5506530    -0.2589250
  H       -0.9376060     0.5914040    -1.5148910
  H       -3.3625820     0.6426650    -1.1464650
  H       -0.4402900     1.2218800     1.4039980
  H       -3.2819570    -0.9087340     1.1307830
  H       -1.7133080    -1.7003050    -1.3694640
  H       -3.4855610    -1.8340040    -1.1841350
  H       -0.2975250     2.7131790    -0.5250000
  H       -2.8475560     2.3997430     0.5086630
  H        0.4343110    -1.9634370     0.5690680
  H       -2.4338740    -3.7984320    -0.5432330
  H        2.8291120    -2.6453980     0.0739220
  H        5.1251800    -1.6708610    -0.1624140
  H        5.3198140    -0.0200540    -0.5682940
units angstrom
no_reorient  #important for SAPT in psi4, default
symmetry c1  #important for SAPT in psi4, default
}

set PROPERTIES_ORIGIN ["COM"]
properties('MP2/aug-cc-pvtz', properties = ['dipole'])
--------------------------------------------------------------------------

    Molecular point group: c1
  Charge       = 0
  Multiplicity = 1
  Basis Set: AUG-CC-PVTZ
    Blend: AUG-CC-PVTZ
  Basis Set: (AUG-CC-PVTZ AUX)
    Blend: AUG-CC-PVTZ-JKFIT

    Orbital Energies [Eh]
    ---------------------

    Doubly Occupied:

       1A    -20.583985     2A    -20.583052     3A    -20.557156
       4A    -20.555520     5A    -20.515020     6A    -15.637709
       7A    -15.602029     8A    -15.555322     9A    -11.387121
      10A    -11.360731    11A    -11.341523    12A    -11.329363
      13A    -11.302094    14A    -11.298387    15A    -11.295590
      16A    -11.292445    17A    -11.249757    18A     -1.434864
      19A     -1.389466    20A     -1.379579    21A     -1.374110
      22A     -1.344932    23A     -1.302605    24A     -1.274292
      25A     -1.188371    26A     -1.082215    27A     -1.069357
      28A     -1.020544    29A     -0.935727    30A     -0.910202
      31A     -0.879969    32A     -0.832282    33A     -0.813378
      34A     -0.769646    35A     -0.752803    36A     -0.734581
      37A     -0.721137    38A     -0.703253    39A     -0.698792
      40A     -0.686995    41A     -0.673677    42A     -0.654615
      43A     -0.649507    44A     -0.638823    45A     -0.621907
      46A     -0.614317    47A     -0.607568    48A     -0.589613
      49A     -0.576989    50A     -0.570473    51A     -0.554246
      52A     -0.545819    53A     -0.536449    54A     -0.529479
      55A     -0.494788    56A     -0.477917    57A     -0.474119
      58A     -0.462392    59A     -0.454975    60A     -0.452072
      61A     -0.440385    62A     -0.434024    63A     -0.396048
      64A     -0.349961

  @DF-RHF Final Energy:  -886.37152363479436

   => Energetics <=

    Nuclear Repulsion Energy =           1323.8295777760158671
    One-Electron Energy =               -3845.3100744090579610
    Two-Electron Energy =                1635.1089729982477365
    Total Energy =                       -886.3715236347943573
  Basis Set: (AUG-CC-PVTZ AUX)
    Blend: AUG-CC-PVTZ-RI
    Molecular point group: c1

    Geometry (in Angstrom), charge = 0, multiplicity = 1:

       Center              X                  Y                   Z               Mass
    ------------   -----------------  -----------------  -----------------  -----------------
         O           -1.248626389785    -0.650615670172     1.032523631606    15.994914619570
         O           -1.245500389785     2.484903329828    -0.686154368394    15.994914619570
         O           -3.217055389785     1.523151329828     0.744895631606    15.994914619570
         O           -2.357554389785    -3.064784670172     0.094948631606    15.994914619570
         O            1.360004610215     2.249086329828    -0.076533368394    15.994914619570
         N            0.842878610215     0.047275329828     0.255951631606    14.003074004430
         N            3.056700610215     0.722555329828    -0.293718368394    14.003074004430
         N            4.715937610215    -0.834602670172    -0.572289368394    14.003074004430
         C           -1.290009389785     1.080482329828    -0.592068368394    12.000000000000
         C           -2.715696389785     0.657259329828    -0.257384368394    12.000000000000
         C           -0.532678389785     0.458927029828     0.603553631606    12.000000000000
         C           -2.529781389785    -0.714833670172     0.361064631606    12.000000000000
         C           -2.528869389785    -1.848340670172    -0.639281368394    12.000000000000
         C            1.219249610215    -1.259355670172     0.311282631606    12.000000000000
         C            1.772455810215     1.052558529828    -0.063020068394    12.000000000000
         C            2.510575610215    -1.607087670172     0.047003631606    12.000000000000
         C            3.411457610215    -0.548600670172    -0.258916368394    12.000000000000
         H           -0.938131389785     0.593456329828    -1.514882368394     1.007825032230
         H           -3.363107389785     0.644717329828    -1.146456368394     1.007825032230
         H           -0.440815389785     1.223932329828     1.404006631606     1.007825032230
         H           -3.282482389785    -0.906681670172     1.130791631606     1.007825032230
         H           -1.713833389785    -1.698252670172    -1.369455368394     1.007825032230
         H           -3.486086389785    -1.831951670172    -1.184126368394     1.007825032230
         H           -0.298050389785     2.715231329828    -0.524991368394     1.007825032230
         H           -2.848081389785     2.401795329828     0.508671631606     1.007825032230
         H            0.433785610215    -1.961384670172     0.569076631606     1.007825032230
         H           -2.434399389785    -3.796379670172    -0.543224368394     1.007825032230
         H            2.828586610215    -2.643345670172     0.073930631606     1.007825032230
         H            5.124654610215    -1.668808670172    -0.162405368394     1.007825032230
         H            5.319288610215    -0.018001670172    -0.568285368394     1.007825032230

  Basis Set: AUG-CC-PVTZ
    Blend: AUG-CC-PVTZ
  Basis Set: (AUG-CC-PVTZ AUX)
    Blend: AUG-CC-PVTZ-JKFIT
	 Reference Energy          =    -886.3715236347943573 [Eh]
	 Singles Energy            =      -0.0000000000000000 [Eh]
	 Same-Spin Energy          =      -0.9016480136279906 [Eh]
	 Opposite-Spin Energy      =      -2.7150529913189430 [Eh]
	 Correlation Energy        =      -3.6167010049469335 [Eh]
	 Total Energy              =    -889.9882246397412473 [Eh]

	 ================> DF-SCS-MP2 Energies <==================
	-----------------------------------------------------------
	 SCS Same-Spin Scale       =       0.3333333333333333 [-]
	 SCS Opposite-Spin Scale   =       1.2000000000000000 [-]
	 SCS Same-Spin Energy      =      -0.3005493378759969 [Eh]
	 SCS Opposite-Spin Energy  =      -3.2580635895827315 [Eh]
	 SCS Correlation Energy    =      -3.5586129274587281 [Eh]
	 SCS Total Energy          =    -889.9301365622530966 [Eh]
	-----------------------------------------------------------

  Dipole Moment: [D]
     X:     1.7811      Y:    -6.2162      Z:    -1.8271     Total:     6.7195

*** Psi4 exiting successfully. Buy a developer a beer!
