                               Psi4 1.3.2 release

  ==> Input File <==

--------------------------------------------------------------------------
#psi4
#
memory 32 gb

molecule  {
0 1
  O       -1.2481010    -0.6526680     1.0325150
  O       -1.2449750     2.4828510    -0.6861630
  O       -3.2165300     1.5210990     0.7448870
  O       -2.3570290    -3.0668370     0.0949400
  O        1.3605300     2.2470340    -0.0765420
  N        0.8434040     0.0452230     0.2559430
  N        3.0572260     0.7205030    -0.2937270
  N        4.7164630    -0.8366550    -0.5722980
  C       -1.2894840     1.0784300    -0.5920770
  C       -2.7151710     0.6552070    -0.2573930
  C       -0.5254080     0.4815200     0.6000940
  C       -2.5292560    -0.7168860     0.3610560
  C       -2.5283440    -1.8503930    -0.6392900
  C        1.2197750    -1.2614080     0.3112740
  C        1.7555940     1.0674350    -0.0594030
  C        2.5111010    -1.6091400     0.0469950
  C        3.4388547    -0.6469388    -0.2562889
  H       -0.9376060     0.5914040    -1.5148910
  H       -3.3625820     0.6426650    -1.1464650
  H       -0.4402900     1.2218800     1.4039980
  H       -3.2819570    -0.9087340     1.1307830
  H       -1.7133080    -1.7003050    -1.3694640
  H       -3.4855610    -1.8340040    -1.1841350
  H       -0.2975250     2.7131790    -0.5250000
  H       -2.8475560     2.3997430     0.5086630
  H        0.4343110    -1.9634370     0.5690680
  H       -2.4338740    -3.7984320    -0.5432330
  H        2.8291120    -2.6453980     0.0739220
  H        5.1251800    -1.6708610    -0.1624140
  H        5.3198140    -0.0200540    -0.5682940
units angstrom
no_reorient  #important for SAPT in psi4, default
symmetry c1  #important for SAPT in psi4, default
}

set PROPERTIES_ORIGIN ["COM"]
properties('MP2/aug-cc-pvtz', properties = ['dipole'])
--------------------------------------------------------------------------

    Molecular point group: c1
  Charge       = 0
  Multiplicity = 1
  Basis Set: AUG-CC-PVTZ
    Blend: AUG-CC-PVTZ
  Basis Set: (AUG-CC-PVTZ AUX)
    Blend: AUG-CC-PVTZ-JKFIT

    Orbital Energies [Eh]
    ---------------------

    Doubly Occupied:

       1A    -20.582774     2A    -20.581633     3A    -20.557106
       4A    -20.555126     5A    -20.511653     6A    -15.638606
       7A    -15.609516     8A    -15.546994     9A    -11.377409
      10A    -11.359536    11A    -11.340900    12A    -11.337352
      13A    -11.301451    14A    -11.296839    15A    -11.295784
      16A    -11.292433    17A    -11.246874    18A     -1.428346
      19A     -1.388965    20A     -1.379139    21A     -1.372647
      22A     -1.344676    23A     -1.304447    24A     -1.279463
      25A     -1.163220    26A     -1.087818    27A     -1.067385
      28A     -1.023401    29A     -0.939767    30A     -0.911782
      31A     -0.868777    32A     -0.832567    33A     -0.811631
      34A     -0.770121    35A     -0.753085    36A     -0.735657
      37A     -0.729971    38A     -0.704449    39A     -0.698288
      40A     -0.682762    41A     -0.674929    42A     -0.650093
      43A     -0.649290    44A     -0.634577    45A     -0.628136
      46A     -0.612302    47A     -0.608003    48A     -0.585793
      49A     -0.575236    50A     -0.570417    51A     -0.554308
      52A     -0.546072    53A     -0.537223    54A     -0.533586
      55A     -0.495598    56A     -0.477506    57A     -0.473613
      58A     -0.461500    59A     -0.451861    60A     -0.449823
      61A     -0.438942    62A     -0.424960    63A     -0.382374
      64A     -0.350647

  @DF-RHF Final Energy:  -886.35767028010787

   => Energetics <=

    Nuclear Repulsion Energy =           1322.7689184806044977
    One-Electron Energy =               -3843.2988997604584256
    Two-Electron Energy =                1634.1723109997460597
    Total Energy =                       -886.3576702801078682
  Basis Set: (AUG-CC-PVTZ AUX)
    Blend: AUG-CC-PVTZ-RI
    Molecular point group: c1

    Geometry (in Angstrom), charge = 0, multiplicity = 1:

       Center              X                  Y                   Z               Mass
    ------------   -----------------  -----------------  -----------------  -----------------
         O           -1.249427564613    -0.647914808358     1.032384875501    15.994914619570
         O           -1.246301564613     2.487604191642    -0.686293124499    15.994914619570
         O           -3.217856564613     1.525852191642     0.744756875501    15.994914619570
         O           -2.358355564613    -3.062083808358     0.094809875501    15.994914619570
         O            1.359203435387     2.251787191642    -0.076672124499    15.994914619570
         N            0.842077435387     0.049976191642     0.255812875501    14.003074004430
         N            3.055899435387     0.725256191642    -0.293857124499    14.003074004430
         N            4.715136435387    -0.831901808358    -0.572428124499    14.003074004430
         C           -1.290810564613     1.083183191642    -0.592207124499    12.000000000000
         C           -2.716497564613     0.659960191642    -0.257523124499    12.000000000000
         C           -0.526734564613     0.486273191642     0.599963875501    12.000000000000
         C           -2.530582564613    -0.712132808358     0.360925875501    12.000000000000
         C           -2.529670564613    -1.845639808358    -0.639420124499    12.000000000000
         C            1.218448435387    -1.256654808358     0.311143875501    12.000000000000
         C            1.754267435387     1.072188191642    -0.059533124499    12.000000000000
         C            2.509774435387    -1.604386808358     0.046864875501    12.000000000000
         C            3.437528135387    -0.642185608358    -0.256419024499    12.000000000000
         H           -0.938932564613     0.596157191642    -1.515021124499     1.007825032230
         H           -3.363908564613     0.647418191642    -1.146595124499     1.007825032230
         H           -0.441616564613     1.226633191642     1.403867875501     1.007825032230
         H           -3.283283564613    -0.903980808358     1.130652875501     1.007825032230
         H           -1.714634564613    -1.695551808358    -1.369594124499     1.007825032230
         H           -3.486887564613    -1.829250808358    -1.184265124499     1.007825032230
         H           -0.298851564613     2.717932191642    -0.525130124499     1.007825032230
         H           -2.848882564613     2.404496191642     0.508532875501     1.007825032230
         H            0.432984435387    -1.958683808358     0.568937875501     1.007825032230
         H           -2.435200564613    -3.793678808358    -0.543363124499     1.007825032230
         H            2.827785435387    -2.640644808358     0.073791875501     1.007825032230
         H            5.123853435387    -1.666107808358    -0.162544124499     1.007825032230
         H            5.318487435387    -0.015300808358    -0.568424124499     1.007825032230

  Basis Set: AUG-CC-PVTZ
    Blend: AUG-CC-PVTZ
  Basis Set: (AUG-CC-PVTZ AUX)
    Blend: AUG-CC-PVTZ-JKFIT
	 Reference Energy          =    -886.3576702801078682 [Eh]
	 Singles Energy            =      -0.0000000000000000 [Eh]
	 Same-Spin Energy          =      -0.9028797897000466 [Eh]
	 Opposite-Spin Energy      =      -2.7171895828253936 [Eh]
	 Correlation Energy        =      -3.6200693725254403 [Eh]
	 Total Energy              =    -889.9777396526333177 [Eh]

	 ================> DF-SCS-MP2 Energies <==================
	-----------------------------------------------------------
	 SCS Same-Spin Scale       =       0.3333333333333333 [-]
	 SCS Opposite-Spin Scale   =       1.2000000000000000 [-]
	 SCS Same-Spin Energy      =      -0.3009599299000155 [Eh]
	 SCS Opposite-Spin Energy  =      -3.2606274993904720 [Eh]
	 SCS Correlation Energy    =      -3.5615874292904874 [Eh]
	 SCS Total Energy          =    -889.9192577093983800 [Eh]
	-----------------------------------------------------------

  Dipole Moment: [D]
     X:     1.9950      Y:    -6.3966      Z:    -1.8540     Total:     6.9523

*** Psi4 exiting successfully. Buy a developer a beer!
