                               Psi4 1.3.2 release

  ==> Input File <==

--------------------------------------------------------------------------
#psi4
#
memory 32 gb

molecule  {
0 1
  O       -1.2481010    -0.6526680     1.0325150
  O       -1.2449750     2.4828510    -0.6861630
  O       -3.2165300     1.5210990     0.7448870
  O       -2.3570290    -3.0668370     0.0949400
  O        1.3605300     2.2470340    -0.0765420
  N        0.8434040     0.0452230     0.2559430
  N        3.0572260     0.7205030    -0.2937270
  N        4.7013382    -0.9063023    -0.5634652
  C       -1.2894840     1.0784300    -0.5920770
  C       -2.7151710     0.6552070    -0.2573930
  C       -0.5254080     0.4815200     0.6000940
  C       -2.5292560    -0.7168860     0.3610560
  C       -2.5283440    -1.8503930    -0.6392900
  C        1.2197750    -1.2614080     0.3112740
  C        1.7555940     1.0674350    -0.0594030
  C        2.5669791    -1.6572172     0.0361245
  C        3.4119830    -0.5506530    -0.2589250
  H       -0.9376060     0.5914040    -1.5148910
  H       -3.3625820     0.6426650    -1.1464650
  H       -0.4402900     1.2218800     1.4039980
  H       -3.2819570    -0.9087340     1.1307830
  H       -1.7133080    -1.7003050    -1.3694640
  H       -3.4855610    -1.8340040    -1.1841350
  H       -0.2975250     2.7131790    -0.5250000
  H       -2.8475560     2.3997430     0.5086630
  H        0.4343110    -1.9634370     0.5690680
  H       -2.4338740    -3.7984320    -0.5432330
  H        2.8291120    -2.6453980     0.0739220
  H        5.1251800    -1.6708610    -0.1624140
  H        5.3198140    -0.0200540    -0.5682940
units angstrom
no_reorient  #important for SAPT in psi4, default
symmetry c1  #important for SAPT in psi4, default
}

set PROPERTIES_ORIGIN ["COM"]
properties('MP2/aug-cc-pvtz', properties = ['dipole'])
--------------------------------------------------------------------------

    Molecular point group: c1
  Charge       = 0
  Multiplicity = 1
  Basis Set: AUG-CC-PVTZ
    Blend: AUG-CC-PVTZ
  Basis Set: (AUG-CC-PVTZ AUX)
    Blend: AUG-CC-PVTZ-JKFIT

    Orbital Energies [Eh]
    ---------------------

    Doubly Occupied:

       1A    -20.583219     2A    -20.582929     3A    -20.558985
       4A    -20.558807     5A    -20.524495     6A    -15.643158
       7A    -15.595870     8A    -15.555467     9A    -11.391237
      10A    -11.356973    11A    -11.344163    12A    -11.338770
      13A    -11.302041    14A    -11.298515    15A    -11.298112
      16A    -11.294316    17A    -11.247175    18A     -1.431192
      19A     -1.398241    20A     -1.381382    21A     -1.373793
      22A     -1.347673    23A     -1.304802    24A     -1.273830
      25A     -1.184600    26A     -1.071826    27A     -1.069041
      28A     -1.022134    29A     -0.936738    30A     -0.912396
      31A     -0.879212    32A     -0.834492    33A     -0.812199
      34A     -0.759409    35A     -0.755723    36A     -0.738410
      37A     -0.726382    38A     -0.704737    39A     -0.700071
      40A     -0.682929    41A     -0.676056    42A     -0.659580
      43A     -0.655811    44A     -0.640891    45A     -0.618743
      46A     -0.614230    47A     -0.602591    48A     -0.589174
      49A     -0.574431    50A     -0.568772    51A     -0.553928
      52A     -0.546887    53A     -0.539071    54A     -0.532643
      55A     -0.497070    56A     -0.478395    57A     -0.475446
      58A     -0.463903    59A     -0.462251    60A     -0.454261
      61A     -0.440520    62A     -0.435035    63A     -0.396942
      64A     -0.343718

  @DF-RHF Final Energy:  -886.35513108350688

   => Energetics <=

    Nuclear Repulsion Energy =           1322.1081871174967546
    One-Electron Energy =               -3841.7350463677330481
    Two-Electron Energy =                1633.2717281667296447
    Total Energy =                       -886.3551310835068762
  Basis Set: (AUG-CC-PVTZ AUX)
    Blend: AUG-CC-PVTZ-RI
    Molecular point group: c1

    Geometry (in Angstrom), charge = 0, multiplicity = 1:

       Center              X                  Y                   Z               Mass
    ------------   -----------------  -----------------  -----------------  -----------------
         O           -1.249988203132    -0.646282571706     1.032542815175    15.994914619570
         O           -1.246862203132     2.489236428294    -0.686135184825    15.994914619570
         O           -3.218417203132     1.527484428294     0.744914815175    15.994914619570
         O           -2.358916203132    -3.060451571706     0.094967815175    15.994914619570
         O            1.358642796868     2.253419428294    -0.076514184825    15.994914619570
         N            0.841516796868     0.051608428294     0.255970815175    14.003074004430
         N            3.055338796868     0.726888428294    -0.293699184825    14.003074004430
         N            4.699450996868    -0.899916871706    -0.563437384825    14.003074004430
         C           -1.291371203132     1.084815428294    -0.592049184825    12.000000000000
         C           -2.717058203132     0.661592428294    -0.257365184825    12.000000000000
         C           -0.527295203132     0.487905428294     0.600121815175    12.000000000000
         C           -2.531143203132    -0.710500571706     0.361083815175    12.000000000000
         C           -2.530231203132    -1.844007571706    -0.639262184825    12.000000000000
         C            1.217887796868    -1.255022571706     0.311301815175    12.000000000000
         C            1.753706796868     1.073820428294    -0.059375184825    12.000000000000
         C            2.565091896868    -1.650831771706     0.036152315175    12.000000000000
         C            3.410095796868    -0.544267571706    -0.258897184825    12.000000000000
         H           -0.939493203132     0.597789428294    -1.514863184825     1.007825032230
         H           -3.364469203132     0.649050428294    -1.146437184825     1.007825032230
         H           -0.442177203132     1.228265428294     1.404025815175     1.007825032230
         H           -3.283844203132    -0.902348571706     1.130810815175     1.007825032230
         H           -1.715195203132    -1.693919571706    -1.369436184825     1.007825032230
         H           -3.487448203132    -1.827618571706    -1.184107184825     1.007825032230
         H           -0.299412203132     2.719564428294    -0.524972184825     1.007825032230
         H           -2.849443203132     2.406128428294     0.508690815175     1.007825032230
         H            0.432423796868    -1.957051571706     0.569095815175     1.007825032230
         H           -2.435761203132    -3.792046571706    -0.543205184825     1.007825032230
         H            2.827224796868    -2.639012571706     0.073949815175     1.007825032230
         H            5.123292796868    -1.664475571706    -0.162386184825     1.007825032230
         H            5.317926796868    -0.013668571706    -0.568266184825     1.007825032230

  Basis Set: AUG-CC-PVTZ
    Blend: AUG-CC-PVTZ
  Basis Set: (AUG-CC-PVTZ AUX)
    Blend: AUG-CC-PVTZ-JKFIT
	 Reference Energy          =    -886.3551310835068762 [Eh]
	 Singles Energy            =      -0.0000000000000000 [Eh]
	 Same-Spin Energy          =      -0.9019435956636641 [Eh]
	 Opposite-Spin Energy      =      -2.7165771116494333 [Eh]
	 Correlation Energy        =      -3.6185207073130972 [Eh]
	 Total Energy              =    -889.9736517908199858 [Eh]

	 ================> DF-SCS-MP2 Energies <==================
	-----------------------------------------------------------
	 SCS Same-Spin Scale       =       0.3333333333333333 [-]
	 SCS Opposite-Spin Scale   =       1.2000000000000000 [-]
	 SCS Same-Spin Energy      =      -0.3006478652212213 [Eh]
	 SCS Opposite-Spin Energy  =      -3.2598925339793197 [Eh]
	 SCS Correlation Energy    =      -3.5605403992005411 [Eh]
	 SCS Total Energy          =    -889.9156714827074666 [Eh]
	-----------------------------------------------------------

  Dipole Moment: [D]
     X:     1.5305      Y:    -5.8202      Z:    -1.7933     Total:     6.2796

*** Psi4 exiting successfully. Buy a developer a beer!
