                               Psi4 1.3.2 release

  ==> Input File <==

--------------------------------------------------------------------------
#psi4
#
memory 32 gb

molecule  {
0 1
  O       -1.2481010    -0.6526680     1.0325150
  O       -1.2449750     2.4828510    -0.6861630
  O       -3.2165300     1.5210990     0.7448870
  O       -2.3570290    -3.0668370     0.0949400
  O        1.3605300     2.2470340    -0.0765420
  N        0.8434040     0.0452230     0.2559430
  N        3.0465306     0.7175508    -0.2906249
  N        4.7142753    -0.8482940    -0.5705536
  C       -1.2894840     1.0784300    -0.5920770
  C       -2.7151710     0.6552070    -0.2573930
  C       -0.5254080     0.4815200     0.6000940
  C       -2.5292560    -0.7168860     0.3610560
  C       -2.5283440    -1.8503930    -0.6392900
  C        1.2197750    -1.2614080     0.3112740
  C        1.7555940     1.0674350    -0.0594030
  C        2.5111010    -1.6091400     0.0469950
  C        3.4119830    -0.5506530    -0.2589250
  H       -0.9376060     0.5914040    -1.5148910
  H       -3.3625820     0.6426650    -1.1464650
  H       -0.4402900     1.2218800     1.4039980
  H       -3.2819570    -0.9087340     1.1307830
  H       -1.7133080    -1.7003050    -1.3694640
  H       -3.4855610    -1.8340040    -1.1841350
  H       -0.2975250     2.7131790    -0.5250000
  H       -2.8475560     2.3997430     0.5086630
  H        0.4343110    -1.9634370     0.5690680
  H       -2.4338740    -3.7984320    -0.5432330
  H        2.8291120    -2.6453980     0.0739220
  H        5.1251800    -1.6708610    -0.1624140
  H        5.3198140    -0.0200540    -0.5682940
units angstrom
no_reorient  #important for SAPT in psi4, default
symmetry c1  #important for SAPT in psi4, default
}

set PROPERTIES_ORIGIN ["COM"]
properties('MP2/aug-cc-pvtz', properties = ['dipole'])
--------------------------------------------------------------------------

    Molecular point group: c1
  Charge       = 0
  Multiplicity = 1
  Basis Set: AUG-CC-PVTZ
    Blend: AUG-CC-PVTZ
  Basis Set: (AUG-CC-PVTZ AUX)
    Blend: AUG-CC-PVTZ-JKFIT

    Orbital Energies [Eh]
    ---------------------

    Doubly Occupied:

       1A    -20.582095     2A    -20.581297     3A    -20.557582
       4A    -20.556933     5A    -20.520981     6A    -15.636371
       7A    -15.601012     8A    -15.552593     9A    -11.387250
      10A    -11.358908    11A    -11.341161    12A    -11.328153
      13A    -11.301009    14A    -11.296702    15A    -11.296378
      16A    -11.292741    17A    -11.248043    18A     -1.429125
      19A     -1.396442    20A     -1.379899    21A     -1.372613
      22A     -1.346078    23A     -1.306201    24A     -1.273520
      25A     -1.184851    26A     -1.081747    27A     -1.067504
      28A     -1.021222    29A     -0.935680    30A     -0.908831
      31A     -0.878954    32A     -0.832548    33A     -0.811566
      34A     -0.767005    35A     -0.752327    36A     -0.735929
      37A     -0.721590    38A     -0.702924    39A     -0.698228
      40A     -0.686320    41A     -0.672318    42A     -0.655212
      43A     -0.651230    44A     -0.638487    45A     -0.620064
      46A     -0.614346    47A     -0.606223    48A     -0.594121
      49A     -0.575564    50A     -0.569611    51A     -0.553809
      52A     -0.545575    53A     -0.537369    54A     -0.531762
      55A     -0.497919    56A     -0.477303    57A     -0.474192
      58A     -0.461919    59A     -0.459026    60A     -0.452574
      61A     -0.440246    62A     -0.432802    63A     -0.396028
      64A     -0.349831

  @DF-RHF Final Energy:  -886.37344992236660

   => Energetics <=

    Nuclear Repulsion Energy =           1324.0283465716934188
    One-Electron Energy =               -3845.7279103181481332
    Two-Electron Energy =                1635.3261138240879973
    Total Energy =                       -886.3734499223667171
  Basis Set: (AUG-CC-PVTZ AUX)
    Blend: AUG-CC-PVTZ-RI
    Molecular point group: c1

    Geometry (in Angstrom), charge = 0, multiplicity = 1:

       Center              X                  Y                   Z               Mass
    ------------   -----------------  -----------------  -----------------  -----------------
         O           -1.247358895934    -0.651827455826     1.032235822205    15.994914619570
         O           -1.244232895934     2.483691544174    -0.686442177795    15.994914619570
         O           -3.215787895934     1.521939544174     0.744607822205    15.994914619570
         O           -2.356286895934    -3.065996455826     0.094660822205    15.994914619570
         O            1.361272104066     2.247874544174    -0.076821177795    15.994914619570
         N            0.844146104066     0.046063544174     0.255663822205    14.003074004430
         N            3.047272704066     0.718391344174    -0.290904077795    14.003074004430
         N            4.715017404066    -0.847453455826    -0.570832777795    14.003074004430
         C           -1.288741895934     1.079270544174    -0.592356177795    12.000000000000
         C           -2.714428895934     0.656047544174    -0.257672177795    12.000000000000
         C           -0.524665895934     0.482360544174     0.599814822205    12.000000000000
         C           -2.528513895934    -0.716045455826     0.360776822205    12.000000000000
         C           -2.527601895934    -1.849552455826    -0.639569177795    12.000000000000
         C            1.220517104066    -1.260567455826     0.310994822205    12.000000000000
         C            1.756336104066     1.068275544174    -0.059682177795    12.000000000000
         C            2.511843104066    -1.608299455826     0.046715822205    12.000000000000
         C            3.412725104066    -0.549812455826    -0.259204177795    12.000000000000
         H           -0.936863895934     0.592244544174    -1.515170177795     1.007825032230
         H           -3.361839895934     0.643505544174    -1.146744177795     1.007825032230
         H           -0.439547895934     1.222720544174     1.403718822205     1.007825032230
         H           -3.281214895934    -0.907893455826     1.130503822205     1.007825032230
         H           -1.712565895934    -1.699464455826    -1.369743177795     1.007825032230
         H           -3.484818895934    -1.833163455826    -1.184414177795     1.007825032230
         H           -0.296782895934     2.714019544174    -0.525279177795     1.007825032230
         H           -2.846813895934     2.400583544174     0.508383822205     1.007825032230
         H            0.435053104066    -1.962596455826     0.568788822205     1.007825032230
         H           -2.433131895934    -3.797591455826    -0.543512177795     1.007825032230
         H            2.829854104066    -2.644557455826     0.073642822205     1.007825032230
         H            5.125922104066    -1.670020455826    -0.162693177795     1.007825032230
         H            5.320556104066    -0.019213455826    -0.568573177795     1.007825032230

  Basis Set: AUG-CC-PVTZ
    Blend: AUG-CC-PVTZ
  Basis Set: (AUG-CC-PVTZ AUX)
    Blend: AUG-CC-PVTZ-JKFIT
	 Reference Energy          =    -886.3734499223666035 [Eh]
	 Singles Energy            =      -0.0000000000000000 [Eh]
	 Same-Spin Energy          =      -0.9012968018950145 [Eh]
	 Opposite-Spin Energy      =      -2.7147869358901220 [Eh]
	 Correlation Energy        =      -3.6160837377851367 [Eh]
	 Total Energy              =    -889.9895336601517783 [Eh]

	 ================> DF-SCS-MP2 Energies <==================
	-----------------------------------------------------------
	 SCS Same-Spin Scale       =       0.3333333333333333 [-]
	 SCS Opposite-Spin Scale   =       1.2000000000000000 [-]
	 SCS Same-Spin Energy      =      -0.3004322672983382 [Eh]
	 SCS Opposite-Spin Energy  =      -3.2577443230681462 [Eh]
	 SCS Correlation Energy    =      -3.5581765903664841 [Eh]
	 SCS Total Energy          =    -889.9316265127330325 [Eh]
	-----------------------------------------------------------

  Dipole Moment: [D]
     X:     1.7669      Y:    -5.9580      Z:    -1.8314     Total:     6.4788

*** Psi4 exiting successfully. Buy a developer a beer!
