                               Psi4 1.3.2 release

  ==> Input File <==

--------------------------------------------------------------------------
#psi4
#
memory 32 gb

molecule  {
0 1
  O       -1.2481010    -0.6526680     1.0325150
  O       -1.2449750     2.4828510    -0.6861630
  O       -3.2165300     1.5210990     0.7448870
  O       -2.3570290    -3.0668370     0.0949400
  O        1.3605300     2.2470340    -0.0765420
  N        0.8434040     0.0452230     0.2559430
  N        3.0572260     0.7205030    -0.2937270
  N        4.7164630    -0.8366550    -0.5722980
  C       -1.2894840     1.0784300    -0.5920770
  C       -2.7151710     0.6552070    -0.2573930
  C       -0.5254080     0.4815200     0.6000940
  C       -2.5292560    -0.7168860     0.3610560
  C       -2.5191814    -1.8127135    -0.5751790
  C        1.2197750    -1.2614080     0.3112740
  C        1.7555940     1.0674350    -0.0594030
  C        2.5111010    -1.6091400     0.0469950
  C        3.4119830    -0.5506530    -0.2589250
  H       -0.9376060     0.5914040    -1.5148910
  H       -3.3625820     0.6426650    -1.1464650
  H       -0.4402900     1.2218800     1.4039980
  H       -3.2819570    -0.9087340     1.1307830
  H       -1.7133080    -1.7003050    -1.3694640
  H       -3.4855610    -1.8340040    -1.1841350
  H       -0.2975250     2.7131790    -0.5250000
  H       -2.8475560     2.3997430     0.5086630
  H        0.4343110    -1.9634370     0.5690680
  H       -2.4261558    -3.8310091    -0.5047796
  H        2.8291120    -2.6453980     0.0739220
  H        5.1251800    -1.6708610    -0.1624140
  H        5.3198140    -0.0200540    -0.5682940
units angstrom
no_reorient  #important for SAPT in psi4, default
symmetry c1  #important for SAPT in psi4, default
}

set PROPERTIES_ORIGIN ["COM"]
properties('MP2/aug-cc-pvtz', properties = ['dipole'])
--------------------------------------------------------------------------

    Molecular point group: c1
  Charge       = 0
  Multiplicity = 1
  Basis Set: AUG-CC-PVTZ
    Blend: AUG-CC-PVTZ
  Basis Set: (AUG-CC-PVTZ AUX)
    Blend: AUG-CC-PVTZ-JKFIT

    Orbital Energies [Eh]
    ---------------------

    Doubly Occupied:

       1A    -20.581567     2A    -20.578853     3A    -20.558968
       4A    -20.557611     5A    -20.522064     6A    -15.636997
       7A    -15.599846     8A    -15.553344     9A    -11.388321
      10A    -11.357855    11A    -11.341908    12A    -11.328510
      13A    -11.305195    14A    -11.297076    15A    -11.295370
      16A    -11.294657    17A    -11.248513    18A     -1.430708
      19A     -1.396807    20A     -1.380312    21A     -1.369757
      22A     -1.347096    23A     -1.306137    24A     -1.273976
      25A     -1.182340    26A     -1.083384    27A     -1.076425
      28A     -1.025586    29A     -0.936484    30A     -0.908944
      31A     -0.876630    32A     -0.833162    33A     -0.811686
      34A     -0.766927    35A     -0.752439    36A     -0.737952
      37A     -0.720595    38A     -0.708481    39A     -0.697852
      40A     -0.685493    41A     -0.673380    42A     -0.653516
      43A     -0.650197    44A     -0.639220    45A     -0.619229
      46A     -0.618682    47A     -0.606896    48A     -0.594086
      49A     -0.576026    50A     -0.567065    51A     -0.554395
      52A     -0.545634    53A     -0.537680    54A     -0.530017
      55A     -0.497890    56A     -0.477178    57A     -0.469509
      58A     -0.465380    59A     -0.459695    60A     -0.452101
      61A     -0.440677    62A     -0.433651    63A     -0.395253
      64A     -0.350041

  @DF-RHF Final Energy:  -886.36637982785317

   => Energetics <=

    Nuclear Repulsion Energy =           1325.0951960795534887
    One-Electron Energy =               -3847.7967003925386962
    Two-Electron Energy =                1636.3351244851319279
    Total Energy =                       -886.3663798278530521
  Basis Set: (AUG-CC-PVTZ AUX)
    Blend: AUG-CC-PVTZ-RI
    Molecular point group: c1

    Geometry (in Angstrom), charge = 0, multiplicity = 1:

       Center              X                  Y                   Z               Mass
    ------------   -----------------  -----------------  -----------------  -----------------
         O           -1.248585348242    -0.654392987641     1.029190719398    15.994914619570
         O           -1.245459348242     2.481126012359    -0.689487280602    15.994914619570
         O           -3.217014348242     1.519374012359     0.741562719398    15.994914619570
         O           -2.357513348242    -3.068561987641     0.091615719398    15.994914619570
         O            1.360045651758     2.245309012359    -0.079866280602    15.994914619570
         N            0.842919651758     0.043498012359     0.252618719398    14.003074004430
         N            3.056741651758     0.718778012359    -0.297051280602    14.003074004430
         N            4.715978651758    -0.838379987641    -0.575622280602    14.003074004430
         C           -1.289968348242     1.076705012359    -0.595401280602    12.000000000000
         C           -2.715655348242     0.653482012359    -0.260717280602    12.000000000000
         C           -0.525892348242     0.479795012359     0.596769719398    12.000000000000
         C           -2.529740348242    -0.718610987641     0.357731719398    12.000000000000
         C           -2.519665748242    -1.814438487641    -0.578503280602    12.000000000000
         C            1.219290651758    -1.263132987641     0.307949719398    12.000000000000
         C            1.755109651758     1.065710012359    -0.062727280602    12.000000000000
         C            2.510616651758    -1.610864987641     0.043670719398    12.000000000000
         C            3.411498651758    -0.552377987641    -0.262249280602    12.000000000000
         H           -0.938090348242     0.589679012359    -1.518215280602     1.007825032230
         H           -3.363066348242     0.640940012359    -1.149789280602     1.007825032230
         H           -0.440774348242     1.220155012359     1.400673719398     1.007825032230
         H           -3.282441348242    -0.910458987641     1.127458719398     1.007825032230
         H           -1.713792348242    -1.702029987641    -1.372788280602     1.007825032230
         H           -3.486045348242    -1.835728987641    -1.187459280602     1.007825032230
         H           -0.298009348242     2.711454012359    -0.528324280602     1.007825032230
         H           -2.848040348242     2.398018012359     0.505338719398     1.007825032230
         H            0.433826651758    -1.965161987641     0.565743719398     1.007825032230
         H           -2.426640148242    -3.832734087641    -0.508103880602     1.007825032230
         H            2.828627651758    -2.647122987641     0.070597719398     1.007825032230
         H            5.124695651758    -1.672585987641    -0.165738280602     1.007825032230
         H            5.319329651758    -0.021778987641    -0.571618280602     1.007825032230

  Basis Set: AUG-CC-PVTZ
    Blend: AUG-CC-PVTZ
  Basis Set: (AUG-CC-PVTZ AUX)
    Blend: AUG-CC-PVTZ-JKFIT
	 Reference Energy          =    -886.3663798278531658 [Eh]
	 Singles Energy            =      -0.0000000000000000 [Eh]
	 Same-Spin Energy          =      -0.9017068044496772 [Eh]
	 Opposite-Spin Energy      =      -2.7151410229675212 [Eh]
	 Correlation Energy        =      -3.6168478274171987 [Eh]
	 Total Energy              =    -889.9832276552704116 [Eh]

	 ================> DF-SCS-MP2 Energies <==================
	-----------------------------------------------------------
	 SCS Same-Spin Scale       =       0.3333333333333333 [-]
	 SCS Opposite-Spin Scale   =       1.2000000000000000 [-]
	 SCS Same-Spin Energy      =      -0.3005689348165591 [Eh]
	 SCS Opposite-Spin Energy  =      -3.2581692275610252 [Eh]
	 SCS Correlation Energy    =      -3.5587381623775842 [Eh]
	 SCS Total Energy          =    -889.9251179902307740 [Eh]
	-----------------------------------------------------------

  Dipole Moment: [D]
     X:     1.7206      Y:    -5.9430      Z:    -1.7529     Total:     6.4306

*** Psi4 exiting successfully. Buy a developer a beer!
