                               Psi4 1.3.2 release

  ==> Input File <==

--------------------------------------------------------------------------
#psi4
#
memory 32 gb

molecule  {
0 1
  O       -1.2256003    -0.7119469     0.9909740
  O       -1.2449750     2.4828510    -0.6861630
  O       -3.2165300     1.5210990     0.7448870
  O       -2.3570290    -3.0668370     0.0949400
  O        1.3605300     2.2470340    -0.0765420
  N        0.8434040     0.0452230     0.2559430
  N        3.0572260     0.7205030    -0.2937270
  N        4.7164630    -0.8366550    -0.5722980
  C       -1.2894840     1.0784300    -0.5920770
  C       -2.7151710     0.6552070    -0.2573930
  C       -0.5254080     0.4815200     0.6000940
  C       -2.5292560    -0.7168860     0.3610560
  C       -2.4538941    -1.8665266    -0.6178098
  C        1.2197750    -1.2614080     0.3112740
  C        1.7555940     1.0674350    -0.0594030
  C        2.5111010    -1.6091400     0.0469950
  C        3.4119830    -0.5506530    -0.2589250
  H       -0.9376060     0.5914040    -1.5148910
  H       -3.3625820     0.6426650    -1.1464650
  H       -0.4402900     1.2218800     1.4039980
  H       -3.2819570    -0.9087340     1.1307830
  H       -1.7133080    -1.7003050    -1.3694640
  H       -3.4855610    -1.8340040    -1.1841350
  H       -0.2975250     2.7131790    -0.5250000
  H       -2.8475560     2.3997430     0.5086630
  H        0.4343110    -1.9634370     0.5690680
  H       -2.4338740    -3.7984320    -0.5432330
  H        2.8291120    -2.6453980     0.0739220
  H        5.1251800    -1.6708610    -0.1624140
  H        5.3198140    -0.0200540    -0.5682940
units angstrom
no_reorient  #important for SAPT in psi4, default
symmetry c1  #important for SAPT in psi4, default
}

set PROPERTIES_ORIGIN ["COM"]
properties('MP2/aug-cc-pvtz', properties = ['dipole'])
--------------------------------------------------------------------------

    Molecular point group: c1
  Charge       = 0
  Multiplicity = 1
  Basis Set: AUG-CC-PVTZ
    Blend: AUG-CC-PVTZ
  Basis Set: (AUG-CC-PVTZ AUX)
    Blend: AUG-CC-PVTZ-JKFIT

    Orbital Energies [Eh]
    ---------------------

    Doubly Occupied:

       1A    -20.583992     2A    -20.580984     3A    -20.559040
       4A    -20.558372     5A    -20.522528     6A    -15.637146
       7A    -15.599884     8A    -15.553344     9A    -11.388409
      10A    -11.357846    11A    -11.344574    12A    -11.327782
      13A    -11.300964    14A    -11.297860    15A    -11.295825
      16A    -11.294125    17A    -11.248288    18A     -1.426547
      19A     -1.397333    20A     -1.386172    21A     -1.376189
      22A     -1.347438    23A     -1.306064    24A     -1.273690
      25A     -1.182355    26A     -1.082266    27A     -1.064939
      28A     -1.021799    29A     -0.933387    30A     -0.908761
      31A     -0.877539    32A     -0.834887    33A     -0.809691
      34A     -0.766231    35A     -0.752262    36A     -0.739423
      37A     -0.722218    38A     -0.707785    39A     -0.695273
      40A     -0.686386    41A     -0.672925    42A     -0.654988
      43A     -0.649370    44A     -0.639334    45A     -0.620554
      46A     -0.613050    47A     -0.608417    48A     -0.593987
      49A     -0.576945    50A     -0.572376    51A     -0.556187
      52A     -0.543605    53A     -0.538436    54A     -0.531039
      55A     -0.498492    56A     -0.476900    57A     -0.469564
      58A     -0.461898    59A     -0.460194    60A     -0.454323
      61A     -0.437076    62A     -0.432804    63A     -0.395462
      64A     -0.350211

  @DF-RHF Final Energy:  -886.36371273715372

   => Energetics <=

    Nuclear Repulsion Energy =           1324.7534972570517766
    One-Electron Energy =               -3847.1189459429838280
    Two-Electron Energy =                1636.0017359487785598
    Total Energy =                       -886.3637127371537190
  Basis Set: (AUG-CC-PVTZ AUX)
    Blend: AUG-CC-PVTZ-RI
    Molecular point group: c1

    Geometry (in Angstrom), charge = 0, multiplicity = 1:

       Center              X                  Y                   Z               Mass
    ------------   -----------------  -----------------  -----------------  -----------------
         O           -1.230756114390    -0.707249925016     0.992647008601    15.994914619570
         O           -1.250130814390     2.487547974984    -0.684489991399    15.994914619570
         O           -3.221685814390     1.525795974984     0.746560008601    15.994914619570
         O           -2.362184814390    -3.062140025016     0.096613008601    15.994914619570
         O            1.355374185610     2.251730974984    -0.074868991399    15.994914619570
         N            0.838248185610     0.049919974984     0.257616008601    14.003074004430
         N            3.052070185610     0.725199974984    -0.292053991399    14.003074004430
         N            4.711307185610    -0.831958025016    -0.570624991399    14.003074004430
         C           -1.294639814390     1.083126974984    -0.590403991399    12.000000000000
         C           -2.720326814390     0.659903974984    -0.255719991399    12.000000000000
         C           -0.530563814390     0.486216974984     0.601767008601    12.000000000000
         C           -2.534411814390    -0.712189025016     0.362729008601    12.000000000000
         C           -2.459049914390    -1.861829625016    -0.616136791399    12.000000000000
         C            1.214619185610    -1.256711025016     0.312947008601    12.000000000000
         C            1.750438185610     1.072131974984    -0.057729991399    12.000000000000
         C            2.505945185610    -1.604443025016     0.048668008601    12.000000000000
         C            3.406827185610    -0.545956025016    -0.257251991399    12.000000000000
         H           -0.942761814390     0.596100974984    -1.513217991399     1.007825032230
         H           -3.367737814390     0.647361974984    -1.144791991399     1.007825032230
         H           -0.445445814390     1.226576974984     1.405671008601     1.007825032230
         H           -3.287112814390    -0.904037025016     1.132456008601     1.007825032230
         H           -1.718463814390    -1.695608025016    -1.367790991399     1.007825032230
         H           -3.490716814390    -1.829307025016    -1.182461991399     1.007825032230
         H           -0.302680814390     2.717875974984    -0.523326991399     1.007825032230
         H           -2.852711814390     2.404439974984     0.510336008601     1.007825032230
         H            0.429155185610    -1.958740025016     0.570741008601     1.007825032230
         H           -2.439029814390    -3.793735025016    -0.541559991399     1.007825032230
         H            2.823956185610    -2.640701025016     0.075595008601     1.007825032230
         H            5.120024185610    -1.666164025016    -0.160740991399     1.007825032230
         H            5.314658185610    -0.015357025016    -0.566620991399     1.007825032230

  Basis Set: AUG-CC-PVTZ
    Blend: AUG-CC-PVTZ
  Basis Set: (AUG-CC-PVTZ AUX)
    Blend: AUG-CC-PVTZ-JKFIT
	 Reference Energy          =    -886.3637127371537190 [Eh]
	 Singles Energy            =      -0.0000000000000000 [Eh]
	 Same-Spin Energy          =      -0.9017151525987066 [Eh]
	 Opposite-Spin Energy      =      -2.7158058988908196 [Eh]
	 Correlation Energy        =      -3.6175210514895264 [Eh]
	 Total Energy              =    -889.9812337886432942 [Eh]

	 ================> DF-SCS-MP2 Energies <==================
	-----------------------------------------------------------
	 SCS Same-Spin Scale       =       0.3333333333333333 [-]
	 SCS Opposite-Spin Scale   =       1.2000000000000000 [-]
	 SCS Same-Spin Energy      =      -0.3005717175329022 [Eh]
	 SCS Opposite-Spin Energy  =      -3.2589670786689835 [Eh]
	 SCS Correlation Energy    =      -3.5595387962018856 [Eh]
	 SCS Total Energy          =    -889.9232515333555966 [Eh]
	-----------------------------------------------------------

  Dipole Moment: [D]
     X:     1.8344      Y:    -5.8931      Z:    -1.6859     Total:     6.3981

*** Psi4 exiting successfully. Buy a developer a beer!
