                               Psi4 1.3.2 release

  ==> Input File <==

--------------------------------------------------------------------------
#psi4
#
memory 32 gb

molecule  {
0 1
  O       -1.2481010    -0.6526680     1.0325150
  O       -1.2449750     2.4828510    -0.6861630
  O       -3.2165300     1.5210990     0.7448870
  O       -2.3570290    -3.0668370     0.0949400
  O        1.3605300     2.2470340    -0.0765420
  N        0.8481347     0.0531719     0.2649228
  N        3.0572260     0.7205030    -0.2937270
  N        4.7164630    -0.8366550    -0.5722980
  C       -1.2894840     1.0784300    -0.5920770
  C       -2.7151710     0.6552070    -0.2573930
  C       -0.5254080     0.4815200     0.6000940
  C       -2.5292560    -0.7168860     0.3610560
  C       -2.5283440    -1.8503930    -0.6392900
  C        1.2197750    -1.2614080     0.3112740
  C        1.7555940     1.0674350    -0.0594030
  C        2.5111010    -1.6091400     0.0469950
  C        3.4119830    -0.5506530    -0.2589250
  H       -0.9376060     0.5914040    -1.5148910
  H       -3.3625820     0.6426650    -1.1464650
  H       -0.4307747     1.2209115     1.4038256
  H       -3.2819570    -0.9087340     1.1307830
  H       -1.7133080    -1.7003050    -1.3694640
  H       -3.4855610    -1.8340040    -1.1841350
  H       -0.2975250     2.7131790    -0.5250000
  H       -2.8475560     2.3997430     0.5086630
  H        0.4343110    -1.9634370     0.5690680
  H       -2.4338740    -3.7984320    -0.5432330
  H        2.8291120    -2.6453980     0.0739220
  H        5.1251800    -1.6708610    -0.1624140
  H        5.3198140    -0.0200540    -0.5682940
units angstrom
no_reorient  #important for SAPT in psi4, default
symmetry c1  #important for SAPT in psi4, default
}

set PROPERTIES_ORIGIN ["COM"]
properties('MP2/aug-cc-pvtz', properties = ['dipole'])
--------------------------------------------------------------------------

    Molecular point group: c1
  Charge       = 0
  Multiplicity = 1
  Basis Set: AUG-CC-PVTZ
    Blend: AUG-CC-PVTZ
  Basis Set: (AUG-CC-PVTZ AUX)
    Blend: AUG-CC-PVTZ-JKFIT

    Orbital Energies [Eh]
    ---------------------

    Doubly Occupied:

       1A    -20.582347     2A    -20.581906     3A    -20.557702
       4A    -20.557081     5A    -20.520879     6A    -15.636569
       7A    -15.599999     8A    -15.553306     9A    -11.387243
      10A    -11.357983    11A    -11.341387    12A    -11.329042
      13A    -11.301286    14A    -11.297051    15A    -11.296762
      16A    -11.292993    17A    -11.249361    18A     -1.429351
      19A     -1.396467    20A     -1.380063    21A     -1.372838
      22A     -1.346186    23A     -1.305606    24A     -1.273286
      25A     -1.182166    26A     -1.082228    27A     -1.067798
      28A     -1.021550    29A     -0.935451    30A     -0.910091
      31A     -0.877170    32A     -0.832357    33A     -0.811866
      34A     -0.767109    35A     -0.752041    36A     -0.735788
      37A     -0.720346    38A     -0.703143    39A     -0.698432
      40A     -0.685831    41A     -0.672845    42A     -0.654688
      43A     -0.651452    44A     -0.638907    45A     -0.620640
      46A     -0.614714    47A     -0.606740    48A     -0.592891
      49A     -0.575962    50A     -0.569933    51A     -0.553901
      52A     -0.545620    53A     -0.537504    54A     -0.531729
      55A     -0.496956    56A     -0.477527    57A     -0.474402
      58A     -0.461947    59A     -0.459720    60A     -0.452796
      61A     -0.440836    62A     -0.433264    63A     -0.395010
      64A     -0.350557

  @DF-RHF Final Energy:  -886.37341899026671

   => Energetics <=

    Nuclear Repulsion Energy =           1323.6796186788101295
    One-Electron Energy =               -3845.0248681503812804
    Two-Electron Energy =                1634.9718304813045506
    Total Energy =                       -886.3734189902666003
  Basis Set: (AUG-CC-PVTZ AUX)
    Blend: AUG-CC-PVTZ-RI
    Molecular point group: c1

    Geometry (in Angstrom), charge = 0, multiplicity = 1:

       Center              X                  Y                   Z               Mass
    ------------   -----------------  -----------------  -----------------  -----------------
         O           -1.248412998629    -0.653121875211     1.031998435969    15.994914619570
         O           -1.245286998629     2.482397124789    -0.686679564031    15.994914619570
         O           -3.216841998629     1.520645124789     0.744370435969    15.994914619570
         O           -2.357340998629    -3.067290875211     0.094423435969    15.994914619570
         O            1.360218001371     2.246580124789    -0.077058564031    15.994914619570
         N            0.847822701371     0.052718024789     0.264406235969    14.003074004430
         N            3.056914001371     0.720049124789    -0.294243564031    14.003074004430
         N            4.716151001371    -0.837108875211    -0.572814564031    14.003074004430
         C           -1.289795998629     1.077976124789    -0.592593564031    12.000000000000
         C           -2.715482998629     0.654753124789    -0.257909564031    12.000000000000
         C           -0.525719998629     0.481066124789     0.599577435969    12.000000000000
         C           -2.529567998629    -0.717339875211     0.360539435969    12.000000000000
         C           -2.528655998629    -1.850846875211    -0.639806564031    12.000000000000
         C            1.219463001371    -1.261861875211     0.310757435969    12.000000000000
         C            1.755282001371     1.066981124789    -0.059919564031    12.000000000000
         C            2.510789001371    -1.609593875211     0.046478435969    12.000000000000
         C            3.411671001371    -0.551106875211    -0.259441564031    12.000000000000
         H           -0.937917998629     0.590950124789    -1.515407564031     1.007825032230
         H           -3.362893998629     0.642211124789    -1.146981564031     1.007825032230
         H           -0.431086698629     1.220457624789     1.403309035969     1.007825032230
         H           -3.282268998629    -0.909187875211     1.130266435969     1.007825032230
         H           -1.713619998629    -1.700758875211    -1.369980564031     1.007825032230
         H           -3.485872998629    -1.834457875211    -1.184651564031     1.007825032230
         H           -0.297836998629     2.712725124789    -0.525516564031     1.007825032230
         H           -2.847867998629     2.399289124789     0.508146435969     1.007825032230
         H            0.433999001371    -1.963890875211     0.568551435969     1.007825032230
         H           -2.434185998629    -3.798885875211    -0.543749564031     1.007825032230
         H            2.828800001371    -2.645851875211     0.073405435969     1.007825032230
         H            5.124868001371    -1.671314875211    -0.162930564031     1.007825032230
         H            5.319502001371    -0.020507875211    -0.568810564031     1.007825032230

  Basis Set: AUG-CC-PVTZ
    Blend: AUG-CC-PVTZ
  Basis Set: (AUG-CC-PVTZ AUX)
    Blend: AUG-CC-PVTZ-JKFIT
	 Reference Energy          =    -886.3734189902667140 [Eh]
	 Singles Energy            =      -0.0000000000000000 [Eh]
	 Same-Spin Energy          =      -0.9012011900073948 [Eh]
	 Opposite-Spin Energy      =      -2.7149010934716231 [Eh]
	 Correlation Energy        =      -3.6161022834790177 [Eh]
	 Total Energy              =    -889.9895212737457086 [Eh]

	 ================> DF-SCS-MP2 Energies <==================
	-----------------------------------------------------------
	 SCS Same-Spin Scale       =       0.3333333333333333 [-]
	 SCS Opposite-Spin Scale   =       1.2000000000000000 [-]
	 SCS Same-Spin Energy      =      -0.3004003966691316 [Eh]
	 SCS Opposite-Spin Energy  =      -3.2578813121659476 [Eh]
	 SCS Correlation Energy    =      -3.5582817088350791 [Eh]
	 SCS Total Energy          =    -889.9317006991018388 [Eh]
	-----------------------------------------------------------

  Dipole Moment: [D]
     X:     1.7158      Y:    -5.9885      Z:    -1.8256     Total:     6.4915

*** Psi4 exiting successfully. Buy a developer a beer!
