                               Psi4 1.3.2 release

  ==> Input File <==

--------------------------------------------------------------------------
#psi4
#
memory 32 gb

molecule  {
0 1
  O       -1.2481010    -0.6526680     1.0325150
  O       -1.2361957     2.4808257    -0.7090307
  O       -3.2165300     1.5210990     0.7448870
  O       -2.3570290    -3.0668370     0.0949400
  O        1.3605300     2.2470340    -0.0765420
  N        0.8434040     0.0452230     0.2559430
  N        3.0572260     0.7205030    -0.2937270
  N        4.7164630    -0.8366550    -0.5722980
  C       -1.2894840     1.0784300    -0.5920770
  C       -2.7151710     0.6552070    -0.2573930
  C       -0.5254080     0.4815200     0.6000940
  C       -2.5292560    -0.7168860     0.3610560
  C       -2.5283440    -1.8503930    -0.6392900
  C        1.2197750    -1.2614080     0.3112740
  C        1.7555940     1.0674350    -0.0594030
  C        2.5111010    -1.6091400     0.0469950
  C        3.4119830    -0.5506530    -0.2589250
  H       -0.9345203     0.6087143    -1.5226500
  H       -3.3625820     0.6426650    -1.1464650
  H       -0.4402900     1.2218800     1.4039980
  H       -3.2819570    -0.9087340     1.1307830
  H       -1.7133080    -1.7003050    -1.3694640
  H       -3.4855610    -1.8340040    -1.1841350
  H       -0.2975250     2.7131790    -0.5250000
  H       -2.8475560     2.3997430     0.5086630
  H        0.4343110    -1.9634370     0.5690680
  H       -2.4338740    -3.7984320    -0.5432330
  H        2.8291120    -2.6453980     0.0739220
  H        5.1251800    -1.6708610    -0.1624140
  H        5.3198140    -0.0200540    -0.5682940
units angstrom
no_reorient  #important for SAPT in psi4, default
symmetry c1  #important for SAPT in psi4, default
}

set PROPERTIES_ORIGIN ["COM"]
properties('MP2/aug-cc-pvtz', properties = ['dipole'])
--------------------------------------------------------------------------

    Molecular point group: c1
  Charge       = 0
  Multiplicity = 1
  Basis Set: AUG-CC-PVTZ
    Blend: AUG-CC-PVTZ
  Basis Set: (AUG-CC-PVTZ AUX)
    Blend: AUG-CC-PVTZ-JKFIT

    Orbital Energies [Eh]
    ---------------------

    Doubly Occupied:

       1A    -20.582300     2A    -20.581984     3A    -20.558747
       4A    -20.556063     5A    -20.521784     6A    -15.636968
       7A    -15.599807     8A    -15.553266     9A    -11.388149
      10A    -11.357805    11A    -11.342186    12A    -11.328531
      13A    -11.301230    14A    -11.297235    15A    -11.296449
      16A    -11.293427    17A    -11.248533    18A     -1.429526
      19A     -1.396368    20A     -1.380053    21A     -1.372884
      22A     -1.347155    23A     -1.305987    24A     -1.273793
      25A     -1.182198    26A     -1.081980    27A     -1.067854
      28A     -1.021424    29A     -0.935559    30A     -0.909471
      31A     -0.877354    32A     -0.832710    33A     -0.812005
      34A     -0.766982    35A     -0.752770    36A     -0.735457
      37A     -0.720250    38A     -0.703237    39A     -0.698951
      40A     -0.685662    41A     -0.672806    42A     -0.654462
      43A     -0.651951    44A     -0.638532    45A     -0.621069
      46A     -0.614331    47A     -0.606624    48A     -0.593692
      49A     -0.576024    50A     -0.570218    51A     -0.553835
      52A     -0.545896    53A     -0.537629    54A     -0.531955
      55A     -0.498364    56A     -0.477828    57A     -0.473966
      58A     -0.462528    59A     -0.460080    60A     -0.452242
      61A     -0.441075    62A     -0.433103    63A     -0.395182
      64A     -0.349941

  @DF-RHF Final Energy:  -886.37377101384254

   => Energetics <=

    Nuclear Repulsion Energy =           1323.5246508692305270
    One-Electron Energy =               -3844.7019850039441735
    Two-Electron Energy =                1634.8035631208708764
    Total Energy =                       -886.3737710138425427
  Basis Set: (AUG-CC-PVTZ AUX)
    Blend: AUG-CC-PVTZ-RI
    Molecular point group: c1

    Geometry (in Angstrom), charge = 0, multiplicity = 1:

       Center              X                  Y                   Z               Mass
    ------------   -----------------  -----------------  -----------------  -----------------
         O           -1.248691501025    -0.652606494027     1.034051860119    15.994914619570
         O           -1.236786201025     2.480887205973    -0.707493839881    15.994914619570
         O           -3.217120501025     1.521160505973     0.746423860119    15.994914619570
         O           -2.357619501025    -3.066775494027     0.096476860119    15.994914619570
         O            1.359939498975     2.247095505973    -0.075005139881    15.994914619570
         N            0.842813498975     0.045284505973     0.257479860119    14.003074004430
         N            3.056635498975     0.720564505973    -0.292190139881    14.003074004430
         N            4.715872498975    -0.836593494027    -0.570761139881    14.003074004430
         C           -1.290074501025     1.078491505973    -0.590540139881    12.000000000000
         C           -2.715761501025     0.655268505973    -0.255856139881    12.000000000000
         C           -0.525998501025     0.481581505973     0.601630860119    12.000000000000
         C           -2.529846501025    -0.716824494027     0.362592860119    12.000000000000
         C           -2.528934501025    -1.850331494027    -0.637753139881    12.000000000000
         C            1.219184498975    -1.261346494027     0.312810860119    12.000000000000
         C            1.755003498975     1.067496505973    -0.057866139881    12.000000000000
         C            2.510510498975    -1.609078494027     0.048531860119    12.000000000000
         C            3.411392498975    -0.550591494027    -0.257388139881    12.000000000000
         H           -0.935110801025     0.608775805973    -1.521113139881     1.007825032230
         H           -3.363172501025     0.642726505973    -1.144928139881     1.007825032230
         H           -0.440880501025     1.221941505973     1.405534860119     1.007825032230
         H           -3.282547501025    -0.908672494027     1.132319860119     1.007825032230
         H           -1.713898501025    -1.700243494027    -1.367927139881     1.007825032230
         H           -3.486151501025    -1.833942494027    -1.182598139881     1.007825032230
         H           -0.298115501025     2.713240505973    -0.523463139881     1.007825032230
         H           -2.848146501025     2.399804505973     0.510199860119     1.007825032230
         H            0.433720498975    -1.963375494027     0.570604860119     1.007825032230
         H           -2.434464501025    -3.798370494027    -0.541696139881     1.007825032230
         H            2.828521498975    -2.645336494027     0.075458860119     1.007825032230
         H            5.124589498975    -1.670799494027    -0.160877139881     1.007825032230
         H            5.319223498975    -0.019992494027    -0.566757139881     1.007825032230

  Basis Set: AUG-CC-PVTZ
    Blend: AUG-CC-PVTZ
  Basis Set: (AUG-CC-PVTZ AUX)
    Blend: AUG-CC-PVTZ-JKFIT
	 Reference Energy          =    -886.3737710138425427 [Eh]
	 Singles Energy            =      -0.0000000000000000 [Eh]
	 Same-Spin Energy          =      -0.9010782861698913 [Eh]
	 Opposite-Spin Energy      =      -2.7147349054773047 [Eh]
	 Correlation Energy        =      -3.6158131916471961 [Eh]
	 Total Energy              =    -889.9895842054897912 [Eh]

	 ================> DF-SCS-MP2 Energies <==================
	-----------------------------------------------------------
	 SCS Same-Spin Scale       =       0.3333333333333333 [-]
	 SCS Opposite-Spin Scale   =       1.2000000000000000 [-]
	 SCS Same-Spin Energy      =      -0.3003594287232971 [Eh]
	 SCS Opposite-Spin Energy  =      -3.2576818865727657 [Eh]
	 SCS Correlation Energy    =      -3.5580413152960628 [Eh]
	 SCS Total Energy          =    -889.9318123291385518 [Eh]
	-----------------------------------------------------------

  Dipole Moment: [D]
     X:     1.6828      Y:    -5.9557      Z:    -1.7774     Total:     6.4391

*** Psi4 exiting successfully. Buy a developer a beer!
