                               Psi4 1.3.2 release

  ==> Input File <==

--------------------------------------------------------------------------
#psi4
#
memory 32 gb

molecule  {
0 1
  O       -1.2481010    -0.6526680     1.0325150
  O       -1.2449750     2.4828510    -0.6861630
  O       -3.2165300     1.5210990     0.7448870
  O       -2.3570290    -3.0668370     0.0949400
  O        1.3706147     2.2503280    -0.0788489
  N        0.8434040     0.0452230     0.2559430
  N        3.0599703     0.7320177    -0.2952271
  N        4.7164630    -0.8366550    -0.5722980
  C       -1.2894840     1.0784300    -0.5920770
  C       -2.7151710     0.6552070    -0.2573930
  C       -0.5254080     0.4815200     0.6000940
  C       -2.5292560    -0.7168860     0.3610560
  C       -2.5283440    -1.8503930    -0.6392900
  C        1.2197750    -1.2614080     0.3112740
  C        1.7555940     1.0674350    -0.0594030
  C        2.5111010    -1.6091400     0.0469950
  C        3.4119830    -0.5506530    -0.2589250
  H       -0.9376060     0.5914040    -1.5148910
  H       -3.3625820     0.6426650    -1.1464650
  H       -0.4402900     1.2218800     1.4039980
  H       -3.2819570    -0.9087340     1.1307830
  H       -1.7133080    -1.7003050    -1.3694640
  H       -3.4855610    -1.8340040    -1.1841350
  H       -0.2975250     2.7131790    -0.5250000
  H       -2.8475560     2.3997430     0.5086630
  H        0.4343110    -1.9634370     0.5690680
  H       -2.4338740    -3.7984320    -0.5432330
  H        2.8291120    -2.6453980     0.0739220
  H        5.1251800    -1.6708610    -0.1624140
  H        5.3198140    -0.0200540    -0.5682940
units angstrom
no_reorient  #important for SAPT in psi4, default
symmetry c1  #important for SAPT in psi4, default
}

set PROPERTIES_ORIGIN ["COM"]
properties('MP2/aug-cc-pvtz', properties = ['dipole'])
--------------------------------------------------------------------------

    Molecular point group: c1
  Charge       = 0
  Multiplicity = 1
  Basis Set: AUG-CC-PVTZ
    Blend: AUG-CC-PVTZ
  Basis Set: (AUG-CC-PVTZ AUX)
    Blend: AUG-CC-PVTZ-JKFIT

    Orbital Energies [Eh]
    ---------------------

    Doubly Occupied:

       1A    -20.582436     2A    -20.581926     3A    -20.557949
       4A    -20.557546     5A    -20.520617     6A    -15.637534
       7A    -15.600484     8A    -15.553866     9A    -11.386925
      10A    -11.358980    11A    -11.341927    12A    -11.329335
      13A    -11.301380    14A    -11.297146    15A    -11.296869
      16A    -11.293154    17A    -11.249177    18A     -1.429428
      19A     -1.395534    20A     -1.380305    21A     -1.372995
      22A     -1.346475    23A     -1.304607    24A     -1.273721
      25A     -1.180554    26A     -1.082449    27A     -1.067941
      28A     -1.021521    29A     -0.935396    30A     -0.909841
      31A     -0.875868    32A     -0.832534    33A     -0.811965
      34A     -0.766797    35A     -0.752461    36A     -0.736335
      37A     -0.719848    38A     -0.703060    39A     -0.698654
      40A     -0.685443    41A     -0.673033    42A     -0.654110
      43A     -0.651042    44A     -0.638342    45A     -0.620686
      46A     -0.614380    47A     -0.606782    48A     -0.593353
      49A     -0.575932    50A     -0.569775    51A     -0.554152
      52A     -0.545690    53A     -0.537489    54A     -0.531787
      55A     -0.498085    56A     -0.477688    57A     -0.474618
      58A     -0.462165    59A     -0.458937    60A     -0.453060
      61A     -0.441115    62A     -0.433852    63A     -0.393840
      64A     -0.350179

  @DF-RHF Final Energy:  -886.37277522520310

   => Energetics <=

    Nuclear Repulsion Energy =           1323.2313493819324322
    One-Electron Energy =               -3844.1260960300114675
    Two-Electron Energy =                1634.5219714228760495
    Total Energy =                       -886.3727752252029859
  Basis Set: (AUG-CC-PVTZ AUX)
    Blend: AUG-CC-PVTZ-RI
    Molecular point group: c1

    Geometry (in Angstrom), charge = 0, multiplicity = 1:

       Center              X                  Y                   Z               Mass
    ------------   -----------------  -----------------  -----------------  -----------------
         O           -1.248922689422    -0.653548044109     1.032753214511    15.994914619570
         O           -1.245796689422     2.481970955891    -0.685924785489    15.994914619570
         O           -3.217351689422     1.520218955891     0.745125214511    15.994914619570
         O           -2.357850689422    -3.067717044109     0.095178214511    15.994914619570
         O            1.369793010578     2.249447955891    -0.078610685489    15.994914619570
         N            0.842582310578     0.044342955891     0.256181214511    14.003074004430
         N            3.059148610578     0.731137655891    -0.294988885489    14.003074004430
         N            4.715641310578    -0.837535044109    -0.572059785489    14.003074004430
         C           -1.290305689422     1.077549955891    -0.591838785489    12.000000000000
         C           -2.715992689422     0.654326955891    -0.257154785489    12.000000000000
         C           -0.526229689422     0.480639955891     0.600332214511    12.000000000000
         C           -2.530077689422    -0.717766044109     0.361294214511    12.000000000000
         C           -2.529165689422    -1.851273044109    -0.639051785489    12.000000000000
         C            1.218953310578    -1.262288044109     0.311512214511    12.000000000000
         C            1.754772310578     1.066554955891    -0.059164785489    12.000000000000
         C            2.510279310578    -1.610020044109     0.047233214511    12.000000000000
         C            3.411161310578    -0.551533044109    -0.258686785489    12.000000000000
         H           -0.938427689422     0.590523955891    -1.514652785489     1.007825032230
         H           -3.363403689422     0.641784955891    -1.146226785489     1.007825032230
         H           -0.441111689422     1.220999955891     1.404236214511     1.007825032230
         H           -3.282778689422    -0.909614044109     1.131021214511     1.007825032230
         H           -1.714129689422    -1.701185044109    -1.369225785489     1.007825032230
         H           -3.486382689422    -1.834884044109    -1.183896785489     1.007825032230
         H           -0.298346689422     2.712298955891    -0.524761785489     1.007825032230
         H           -2.848377689422     2.398862955891     0.508901214511     1.007825032230
         H            0.433489310578    -1.964317044109     0.569306214511     1.007825032230
         H           -2.434695689422    -3.799312044109    -0.542994785489     1.007825032230
         H            2.828290310578    -2.646278044109     0.074160214511     1.007825032230
         H            5.124358310578    -1.671741044109    -0.162175785489     1.007825032230
         H            5.318992310578    -0.020934044109    -0.568055785489     1.007825032230

  Basis Set: AUG-CC-PVTZ
    Blend: AUG-CC-PVTZ
  Basis Set: (AUG-CC-PVTZ AUX)
    Blend: AUG-CC-PVTZ-JKFIT
	 Reference Energy          =    -886.3727752252030996 [Eh]
	 Singles Energy            =      -0.0000000000000000 [Eh]
	 Same-Spin Energy          =      -0.9012649823346133 [Eh]
	 Opposite-Spin Energy      =      -2.7151537788523270 [Eh]
	 Correlation Energy        =      -3.6164187611869405 [Eh]
	 Total Energy              =    -889.9891939863900916 [Eh]

	 ================> DF-SCS-MP2 Energies <==================
	-----------------------------------------------------------
	 SCS Same-Spin Scale       =       0.3333333333333333 [-]
	 SCS Opposite-Spin Scale   =       1.2000000000000000 [-]
	 SCS Same-Spin Energy      =      -0.3004216607782044 [Eh]
	 SCS Opposite-Spin Energy  =      -3.2581845346227922 [Eh]
	 SCS Correlation Energy    =      -3.5586061954009969 [Eh]
	 SCS Total Energy          =    -889.9313814206041116 [Eh]
	-----------------------------------------------------------

  Dipole Moment: [D]
     X:     1.6901      Y:    -5.9989      Z:    -1.8191     Total:     6.4925

*** Psi4 exiting successfully. Buy a developer a beer!
