                               Psi4 1.3.2 release

  ==> Input File <==

--------------------------------------------------------------------------
#psi4
#
memory 32 gb

molecule  {
0 1
  O       -1.2481010    -0.6526680     1.0325150
  O       -1.2449750     2.4828510    -0.6861630
  O       -3.2165300     1.5210990     0.7448870
  O       -2.3570290    -3.0668370     0.0949400
  O        1.3605300     2.2470340    -0.0765420
  N        0.8434040     0.0452230     0.2559430
  N        3.0572260     0.7205030    -0.2937270
  N        4.7164630    -0.8366550    -0.5722980
  C       -1.2894840     1.0784300    -0.5920770
  C       -2.7151710     0.6552070    -0.2573930
  C       -0.5069195     0.4752054     0.6151339
  C       -2.5345862    -0.7380883     0.3737295
  C       -2.5283440    -1.8503930    -0.6392900
  C        1.2197750    -1.2614080     0.3112740
  C        1.7555940     1.0674350    -0.0594030
  C        2.5111010    -1.6091400     0.0469950
  C        3.4119830    -0.5506530    -0.2589250
  H       -0.9376060     0.5914040    -1.5148910
  H       -3.3625820     0.6426650    -1.1464650
  H       -0.4402900     1.2218800     1.4039980
  H       -3.2819570    -0.9087340     1.1307830
  H       -1.7133080    -1.7003050    -1.3694640
  H       -3.4855610    -1.8340040    -1.1841350
  H       -0.2975250     2.7131790    -0.5250000
  H       -2.8475560     2.3997430     0.5086630
  H        0.4343110    -1.9634370     0.5690680
  H       -2.4338740    -3.7984320    -0.5432330
  H        2.8291120    -2.6453980     0.0739220
  H        5.1251800    -1.6708610    -0.1624140
  H        5.3198140    -0.0200540    -0.5682940
units angstrom
no_reorient  #important for SAPT in psi4, default
symmetry c1  #important for SAPT in psi4, default
}

set PROPERTIES_ORIGIN ["COM"]
properties('MP2/aug-cc-pvtz', properties = ['dipole'])
--------------------------------------------------------------------------

    Molecular point group: c1
  Charge       = 0
  Multiplicity = 1
  Basis Set: AUG-CC-PVTZ
    Blend: AUG-CC-PVTZ
  Basis Set: (AUG-CC-PVTZ AUX)
    Blend: AUG-CC-PVTZ-JKFIT

    Orbital Energies [Eh]
    ---------------------

    Doubly Occupied:

       1A    -20.581675     2A    -20.579577     3A    -20.556616
       4A    -20.556129     5A    -20.522657     6A    -15.637928
       7A    -15.600366     8A    -15.554006     9A    -11.389138
      10A    -11.358478    11A    -11.340581    12A    -11.329114
      13A    -11.300546    14A    -11.296386    15A    -11.295998
      16A    -11.292541    17A    -11.249219    18A     -1.427738
      19A     -1.396541    20A     -1.379141    21A     -1.372249
      22A     -1.344884    23A     -1.306996    24A     -1.275658
      25A     -1.183230    26A     -1.082910    27A     -1.063871
      28A     -1.018521    29A     -0.936117    30A     -0.910565
      31A     -0.876828    32A     -0.831999    33A     -0.811043
      34A     -0.768347    35A     -0.752355    36A     -0.736021
      37A     -0.720058    38A     -0.702852    39A     -0.697425
      40A     -0.686331    41A     -0.673006    42A     -0.655584
      43A     -0.651535    44A     -0.637430    45A     -0.620355
      46A     -0.615125    47A     -0.606750    48A     -0.594647
      49A     -0.575006    50A     -0.572448    51A     -0.552547
      52A     -0.545067    53A     -0.535603    54A     -0.532836
      55A     -0.498306    56A     -0.476717    57A     -0.470700
      58A     -0.463032    59A     -0.460017    60A     -0.449926
      61A     -0.439055    62A     -0.434091    63A     -0.395162
      64A     -0.350240

  @DF-RHF Final Energy:  -886.37284981329412

   => Energetics <=

    Nuclear Repulsion Energy =           1323.2129404273875934
    One-Electron Energy =               -3844.1159344198058534
    Two-Electron Energy =                1634.5301441791243633
    Total Energy =                       -886.3728498132941240
  Basis Set: (AUG-CC-PVTZ AUX)
    Blend: AUG-CC-PVTZ-RI
    Molecular point group: c1

    Geometry (in Angstrom), charge = 0, multiplicity = 1:

       Center              X                  Y                   Z               Mass
    ------------   -----------------  -----------------  -----------------  -----------------
         O           -1.248750597924    -0.651309608666     1.031146925995    15.994914619570
         O           -1.245624597924     2.484209391334    -0.687531074005    15.994914619570
         O           -3.217179597924     1.522457391334     0.743518925995    15.994914619570
         O           -2.357678597924    -3.065478608666     0.093571925995    15.994914619570
         O            1.359880402076     2.248392391334    -0.077910074005    15.994914619570
         N            0.842754402076     0.046581391334     0.254574925995    14.003074004430
         N            3.056576402076     0.721861391334    -0.295095074005    14.003074004430
         N            4.715813402076    -0.835296608666    -0.573666074005    14.003074004430
         C           -1.290133597924     1.079788391334    -0.593445074005    12.000000000000
         C           -2.715820597924     0.656565391334    -0.258761074005    12.000000000000
         C           -0.507569097924     0.476563791334     0.613765825995    12.000000000000
         C           -2.535235797924    -0.736729908666     0.372361425995    12.000000000000
         C           -2.528993597924    -1.849034608666    -0.640658074005    12.000000000000
         C            1.219125402076    -1.260049608666     0.309905925995    12.000000000000
         C            1.754944402076     1.068793391334    -0.060771074005    12.000000000000
         C            2.510451402076    -1.607781608666     0.045626925995    12.000000000000
         C            3.411333402076    -0.549294608666    -0.260293074005    12.000000000000
         H           -0.938255597924     0.592762391334    -1.516259074005     1.007825032230
         H           -3.363231597924     0.644023391334    -1.147833074005     1.007825032230
         H           -0.440939597924     1.223238391334     1.402629925995     1.007825032230
         H           -3.282606597924    -0.907375608666     1.129414925995     1.007825032230
         H           -1.713957597924    -1.698946608666    -1.370832074005     1.007825032230
         H           -3.486210597924    -1.832645608666    -1.185503074005     1.007825032230
         H           -0.298174597924     2.714537391334    -0.526368074005     1.007825032230
         H           -2.848205597924     2.401101391334     0.507294925995     1.007825032230
         H            0.433661402076    -1.962078608666     0.567699925995     1.007825032230
         H           -2.434523597924    -3.797073608666    -0.544601074005     1.007825032230
         H            2.828462402076    -2.644039608666     0.072553925995     1.007825032230
         H            5.124530402076    -1.669502608666    -0.163782074005     1.007825032230
         H            5.319164402076    -0.018695608666    -0.569662074005     1.007825032230

  Basis Set: AUG-CC-PVTZ
    Blend: AUG-CC-PVTZ
  Basis Set: (AUG-CC-PVTZ AUX)
    Blend: AUG-CC-PVTZ-JKFIT
	 Reference Energy          =    -886.3728498132941240 [Eh]
	 Singles Energy            =      -0.0000000000000000 [Eh]
	 Same-Spin Energy          =      -0.9009824925750882 [Eh]
	 Opposite-Spin Energy      =      -2.7146176826530164 [Eh]
	 Correlation Energy        =      -3.6156001752281046 [Eh]
	 Total Energy              =    -889.9884499885222340 [Eh]

	 ================> DF-SCS-MP2 Energies <==================
	-----------------------------------------------------------
	 SCS Same-Spin Scale       =       0.3333333333333333 [-]
	 SCS Opposite-Spin Scale   =       1.2000000000000000 [-]
	 SCS Same-Spin Energy      =      -0.3003274975250294 [Eh]
	 SCS Opposite-Spin Energy  =      -3.2575412191836195 [Eh]
	 SCS Correlation Energy    =      -3.5578687167086489 [Eh]
	 SCS Total Energy          =    -889.9307185300027641 [Eh]
	-----------------------------------------------------------

  Dipole Moment: [D]
     X:     1.7810      Y:    -5.9832      Z:    -1.8045     Total:     6.4982

*** Psi4 exiting successfully. Buy a developer a beer!
