                               Psi4 1.3.2 release

  ==> Input File <==

--------------------------------------------------------------------------
#psi4
#
memory 32 gb

molecule  {
0 1
  O       -1.2481010    -0.6526680     1.0325150
  O       -1.2449750     2.4828510    -0.6861630
  O       -3.2165300     1.5210990     0.7448870
  O       -2.3570290    -3.0668370     0.0949400
  O        1.3605300     2.2470340    -0.0765420
  N        0.8434040     0.0452230     0.2559430
  N        3.0572260     0.7205030    -0.2937270
  N        4.7164630    -0.8366550    -0.5722980
  C       -1.2894840     1.0784300    -0.5920770
  C       -2.7151710     0.6552070    -0.2573930
  C       -0.5254080     0.4815200     0.6000940
  C       -2.5292560    -0.7168860     0.3610560
  C       -2.5283440    -1.8503930    -0.6392900
  C        1.2197750    -1.2614080     0.3112740
  C        1.7555940     1.0674350    -0.0594030
  C        2.5255370    -1.5400716     0.0362906
  C        3.4119830    -0.5506530    -0.2589250
  H       -0.9376060     0.5914040    -1.5148910
  H       -3.3625820     0.6426650    -1.1464650
  H       -0.4402900     1.2218800     1.4039980
  H       -3.2819570    -0.9087340     1.1307830
  H       -1.7133080    -1.7003050    -1.3694640
  H       -3.4855610    -1.8340040    -1.1841350
  H       -0.2975250     2.7131790    -0.5250000
  H       -2.8475560     2.3997430     0.5086630
  H        0.3984082    -1.9196055     0.5727866
  H       -2.4338740    -3.7984320    -0.5432330
  H        2.8291120    -2.6453980     0.0739220
  H        5.1251800    -1.6708610    -0.1624140
  H        5.3198140    -0.0200540    -0.5682940
units angstrom
no_reorient  #important for SAPT in psi4, default
symmetry c1  #important for SAPT in psi4, default
}

set PROPERTIES_ORIGIN ["COM"]
properties('MP2/aug-cc-pvtz', properties = ['dipole'])
--------------------------------------------------------------------------

    Molecular point group: c1
  Charge       = 0
  Multiplicity = 1
  Basis Set: AUG-CC-PVTZ
    Blend: AUG-CC-PVTZ
  Basis Set: (AUG-CC-PVTZ AUX)
    Blend: AUG-CC-PVTZ-JKFIT

    Orbital Energies [Eh]
    ---------------------

    Doubly Occupied:

       1A    -20.583944     2A    -20.583555     3A    -20.558619
       4A    -20.557635     5A    -20.519734     6A    -15.638494
       7A    -15.597450     8A    -15.550916     9A    -11.386304
      10A    -11.350283    11A    -11.342572    12A    -11.332629
      13A    -11.302553    14A    -11.298419    15A    -11.297655
      16A    -11.294005    17A    -11.248346    18A     -1.431194
      19A     -1.396279    20A     -1.381056    21A     -1.374121
      22A     -1.346947    23A     -1.308336    24A     -1.274832
      25A     -1.181318    26A     -1.084867    27A     -1.069119
      28A     -1.023608    29A     -0.939768    30A     -0.915621
      31A     -0.876137    32A     -0.831866    33A     -0.813637
      34A     -0.770253    35A     -0.751140    36A     -0.736497
      37A     -0.721783    38A     -0.704041    39A     -0.699339
      40A     -0.685048    41A     -0.672528    42A     -0.655057
      43A     -0.646940    44A     -0.638182    45A     -0.629437
      46A     -0.614532    47A     -0.610031    48A     -0.583273
      49A     -0.577020    50A     -0.571592    51A     -0.554786
      52A     -0.545910    53A     -0.537839    54A     -0.532761
      55A     -0.498317    56A     -0.478615    57A     -0.475322
      58A     -0.463078    59A     -0.458373    60A     -0.453745
      61A     -0.441464    62A     -0.432965    63A     -0.395188
      64A     -0.349662

  @DF-RHF Final Energy:  -886.36405390256914

   => Energetics <=

    Nuclear Repulsion Energy =           1325.2445074618105991
    One-Electron Energy =               -3848.0640422922347170
    Two-Electron Energy =                1636.4554809278552057
    Total Energy =                       -886.3640539025691396
  Basis Set: (AUG-CC-PVTZ AUX)
    Blend: AUG-CC-PVTZ-RI
    Molecular point group: c1

    Geometry (in Angstrom), charge = 0, multiplicity = 1:

       Center              X                  Y                   Z               Mass
    ------------   -----------------  -----------------  -----------------  -----------------
         O           -1.248664820126    -0.656259299130     1.033028016654    15.994914619570
         O           -1.245538820126     2.479259700870    -0.685649983346    15.994914619570
         O           -3.217093820126     1.517507700870     0.745400016654    15.994914619570
         O           -2.357592820126    -3.070428299130     0.095453016654    15.994914619570
         O            1.359966179874     2.243442700870    -0.076028983346    15.994914619570
         N            0.842840179874     0.041631700870     0.256456016654    14.003074004430
         N            3.056662179874     0.716911700870    -0.293213983346    14.003074004430
         N            4.715899179874    -0.840246299130    -0.571784983346    14.003074004430
         C           -1.290047820126     1.074838700870    -0.591563983346    12.000000000000
         C           -2.715734820126     0.651615700870    -0.256879983346    12.000000000000
         C           -0.525971820126     0.477928700870     0.600607016654    12.000000000000
         C           -2.529819820126    -0.720477299130     0.361569016654    12.000000000000
         C           -2.528907820126    -1.853984299130    -0.638776983346    12.000000000000
         C            1.219211179874    -1.264999299130     0.311787016654    12.000000000000
         C            1.755030179874     1.063843700870    -0.058889983346    12.000000000000
         C            2.524973179874    -1.543662899130     0.036803616654    12.000000000000
         C            3.411419179874    -0.554244299130    -0.258411983346    12.000000000000
         H           -0.938169820126     0.587812700870    -1.514377983346     1.007825032230
         H           -3.363145820126     0.639073700870    -1.145951983346     1.007825032230
         H           -0.440853820126     1.218288700870     1.404511016654     1.007825032230
         H           -3.282520820126    -0.912325299130     1.131296016654     1.007825032230
         H           -1.713871820126    -1.703896299130    -1.368950983346     1.007825032230
         H           -3.486124820126    -1.837595299130    -1.183621983346     1.007825032230
         H           -0.298088820126     2.709587700870    -0.524486983346     1.007825032230
         H           -2.848119820126     2.396151700870     0.509176016654     1.007825032230
         H            0.397844379874    -1.923196799130     0.573299616654     1.007825032230
         H           -2.434437820126    -3.802023299130    -0.542719983346     1.007825032230
         H            2.828548179874    -2.648989299130     0.074435016654     1.007825032230
         H            5.124616179874    -1.674452299130    -0.161900983346     1.007825032230
         H            5.319250179874    -0.023645299130    -0.567780983346     1.007825032230

  Basis Set: AUG-CC-PVTZ
    Blend: AUG-CC-PVTZ
  Basis Set: (AUG-CC-PVTZ AUX)
    Blend: AUG-CC-PVTZ-JKFIT
	 Reference Energy          =    -886.3640539025691396 [Eh]
	 Singles Energy            =      -0.0000000000000000 [Eh]
	 Same-Spin Energy          =      -0.9026433483277642 [Eh]
	 Opposite-Spin Energy      =      -2.7163774786990520 [Eh]
	 Correlation Energy        =      -3.6190208270268163 [Eh]
	 Total Energy              =    -889.9830747295959554 [Eh]

	 ================> DF-SCS-MP2 Energies <==================
	-----------------------------------------------------------
	 SCS Same-Spin Scale       =       0.3333333333333333 [-]
	 SCS Opposite-Spin Scale   =       1.2000000000000000 [-]
	 SCS Same-Spin Energy      =      -0.3008811161092547 [Eh]
	 SCS Opposite-Spin Energy  =      -3.2596529744388625 [Eh]
	 SCS Correlation Energy    =      -3.5605340905481171 [Eh]
	 SCS Total Energy          =    -889.9245879931172567 [Eh]
	-----------------------------------------------------------

  Dipole Moment: [D]
     X:     1.4787      Y:    -5.9793      Z:    -1.7786     Total:     6.4111

*** Psi4 exiting successfully. Buy a developer a beer!
