                               Psi4 1.4a3.dev225

  ==> Input File <==

--------------------------------------------------------------------------
#psi4
#
memory 32 gb

molecule  {
0 1
  O       -1.3191770     0.6538360    -1.0992360
  O       -1.5735610    -2.4640850     0.5135810
  O       -3.5606630    -1.0699430    -0.4600060
  O       -1.4399290     3.1254620     0.1265180
  O        1.1065530    -2.3833650     0.0076020
  N        0.7686360    -0.1579440    -0.3706350
  N        2.9363770    -0.9938720     0.1460080
  N        4.7058880     0.4431110     0.3611260
  C       -1.3768610    -1.0680440     0.5552780
  C       -2.7379840    -0.3746360     0.4578480
  C       -0.6473157    -0.5115909    -0.6630390
  C       -2.3707440     0.9655450    -0.1585060
  C       -1.8992030     1.9895750     0.8571380
  C        1.2309690     1.1190800    -0.4442230
  C        1.6104480    -1.2470590    -0.0585760
  C        2.5474650     1.3753690    -0.1998620
  C        3.3802090     0.2523040     0.0808410
  H       -0.8441360    -0.7686950     1.4698480
  H       -3.2257400    -0.2778790     1.4400230
  H       -0.6227070    -1.2428120    -1.4883720
  H       -3.1941750     1.3785730    -0.7472070
  H       -1.0952130     1.5703990     1.4802000
  H       -2.7410530     2.2466610     1.5166010
  H       -0.6710550    -2.8260740     0.3542250
  H       -3.3063470    -2.0105220    -0.3629290
  H        0.4929290     1.8778260    -0.6840360
  H       -1.2098800     3.8154810     0.7720340
  H        2.9334840     2.3875570    -0.2389120
  H        5.1589650     1.2712730    -0.0008400
  H        5.2635310    -0.4031270     0.3606700
units angstrom
no_reorient  #important for SAPT in psi4, default
symmetry c1  #important for SAPT in psi4, default
}

set PROPERTIES_ORIGIN ["COM"]
properties('MP2/aug-cc-pvtz', properties = ['dipole'])
--------------------------------------------------------------------------

    Molecular point group: c1
  Charge       = 0
  Multiplicity = 1
  Basis Set: AUG-CC-PVTZ
    Blend: AUG-CC-PVTZ
  Basis Set: (AUG-CC-PVTZ AUX)
    Blend: AUG-CC-PVTZ-JKFIT

    Orbital Energies [Eh]
    ---------------------

    Doubly Occupied:

       1A    -20.586729     2A    -20.581645     3A    -20.559921
       4A    -20.556890     5A    -20.519475     6A    -15.632612
       7A    -15.599435     8A    -15.551426     9A    -11.385524
      10A    -11.357786    11A    -11.340379    12A    -11.324906
      13A    -11.303578    14A    -11.297694    15A    -11.296984
      16A    -11.294118    17A    -11.246273    18A     -1.428512
      19A     -1.393747    20A     -1.383277    21A     -1.375468
      22A     -1.347137    23A     -1.303235    24A     -1.270368
      25A     -1.180736    26A     -1.079262    27A     -1.068442
      28A     -1.019804    29A     -0.936192    30A     -0.906117
      31A     -0.876705    32A     -0.829496    33A     -0.813287
      34A     -0.765804    35A     -0.750427    36A     -0.735403
      37A     -0.722095    38A     -0.708201    39A     -0.703613
      40A     -0.684643    41A     -0.674458    42A     -0.652749
      43A     -0.648650    44A     -0.633689    45A     -0.619818
      46A     -0.615004    47A     -0.607670    48A     -0.593155
      49A     -0.576943    50A     -0.564266    51A     -0.555995
      52A     -0.548043    53A     -0.537681    54A     -0.530476
      55A     -0.495453    56A     -0.480893    57A     -0.474681
      58A     -0.463258    59A     -0.457858    60A     -0.454417
      61A     -0.443446    62A     -0.429715    63A     -0.392293
      64A     -0.348198

  @DF-RHF Final Energy:  -886.37337188942831

   => Energetics <=

    Nuclear Repulsion Energy =           1334.7078160311245938
    One-Electron Energy =               -3867.1300705953794932
    Two-Electron Energy =                1646.0488826748269275
    Total Energy =                       -886.3733718894281992
  Basis Set: (AUG-CC-PVTZ AUX)
    Blend: AUG-CC-PVTZ-RI
    Molecular point group: c1

    Geometry (in Angstrom), charge = 0, multiplicity = 1:

       Center              X                  Y                   Z               Mass
    ------------   -----------------  -----------------  -----------------  -----------------
         O           -1.331448391374     0.682807680715    -1.084244449807    15.994914619570
         O           -1.585832391374    -2.435113319285     0.528572550193    15.994914619570
         O           -3.572934391374    -1.040971319285    -0.445014449807    15.994914619570
         O           -1.452200391374     3.154433680715     0.141509550193    15.994914619570
         O            1.094281608626    -2.354393319285     0.022593550193    15.994914619570
         N            0.756364608626    -0.128972319285    -0.355643449807    14.003074004430
         N            2.924105608626    -0.964900319285     0.160999550193    14.003074004430
         N            4.693616608626     0.472082680715     0.376117550193    14.003074004430
         C           -1.389132391374    -1.039072319285     0.570269550193    12.000000000000
         C           -2.750255391374    -0.345664319285     0.472839550193    12.000000000000
         C           -0.659587091374    -0.482619219285    -0.648047449807    12.000000000000
         C           -2.383015391374     0.994516680715    -0.143514449807    12.000000000000
         C           -1.911474391374     2.018546680715     0.872129550193    12.000000000000
         C            1.218697608626     1.148051680715    -0.429231449807    12.000000000000
         C            1.598176608626    -1.218087319285    -0.043584449807    12.000000000000
         C            2.535193608626     1.404340680715    -0.184870449807    12.000000000000
         C            3.367937608626     0.281275680715     0.095832550193    12.000000000000
         H           -0.856407391374    -0.739723319285     1.484839550193     1.007825032230
         H           -3.238011391374    -0.248907319285     1.455014550193     1.007825032230
         H           -0.634978391374    -1.213840319285    -1.473380449807     1.007825032230
         H           -3.206446391374     1.407544680715    -0.732215449807     1.007825032230
         H           -1.107484391374     1.599370680715     1.495191550193     1.007825032230
         H           -2.753324391374     2.275632680715     1.531592550193     1.007825032230
         H           -0.683326391374    -2.797102319285     0.369216550193     1.007825032230
         H           -3.318618391374    -1.981550319285    -0.347937449807     1.007825032230
         H            0.480657608626     1.906797680715    -0.669044449807     1.007825032230
         H           -1.222151391374     3.844452680715     0.787025550193     1.007825032230
         H            2.921212608626     2.416528680715    -0.223920449807     1.007825032230
         H            5.146693608626     1.300244680715     0.014151550193     1.007825032230
         H            5.251259608626    -0.374155319285     0.375661550193     1.007825032230

  Basis Set: AUG-CC-PVTZ
    Blend: AUG-CC-PVTZ
  Basis Set: (AUG-CC-PVTZ AUX)
    Blend: AUG-CC-PVTZ-JKFIT
	 Reference Energy          =    -886.3733718894283129 [Eh]
	 Singles Energy            =      -0.0000000000000000 [Eh]
	 Same-Spin Energy          =      -0.9019521120662235 [Eh]
	 Opposite-Spin Energy      =      -2.7161925346246836 [Eh]
	 Correlation Energy        =      -3.6181446466909071 [Eh]
	 Total Energy              =    -889.9915165361192066 [Eh]

	 ================> DF-SCS-MP2 Energies <==================
	-----------------------------------------------------------
	 SCS Same-Spin Scale       =       0.3333333333333333 [-]
	 SCS Opposite-Spin Scale   =       1.2000000000000000 [-]
	 SCS Same-Spin Energy      =      -0.3006507040220745 [Eh]
	 SCS Opposite-Spin Energy  =      -3.2594310415496204 [Eh]
	 SCS Correlation Energy    =      -3.5600817455716949 [Eh]
	 SCS Total Energy          =    -889.9334536349999780 [Eh]
	-----------------------------------------------------------

  Dipole Moment: [D]
     X:     2.7037      Y:     5.7867      Z:     1.9632     Total:     6.6821

*** Psi4 exiting successfully. Buy a developer a beer!
