                               Psi4 1.4a3.dev225

  ==> Input File <==

--------------------------------------------------------------------------
#psi4
#
memory 32 gb

molecule  {
0 1
  O       -1.3191770     0.6538360    -1.0992360
  O       -1.5735610    -2.4640850     0.5135810
  O       -3.5606630    -1.0699430    -0.4600060
  O       -1.4399290     3.1254620     0.1265180
  O        1.1065530    -2.3833650     0.0076020
  N        0.7686360    -0.1579440    -0.3706350
  N        2.9363770    -0.9938720     0.1460080
  N        4.7058880     0.4431110     0.3611260
  C       -1.3768610    -1.0680440     0.5552780
  C       -2.7201994    -0.3836962     0.4591210
  C       -0.6377490    -0.5042940    -0.6790150
  C       -2.3707440     0.9655450    -0.1585060
  C       -1.8992030     1.9895750     0.8571380
  C        1.2309690     1.1190800    -0.4442230
  C        1.6104480    -1.2470590    -0.0585760
  C        2.5474650     1.3753690    -0.1998620
  C        3.3802090     0.2523040     0.0808410
  H       -0.8441360    -0.7686950     1.4698480
  H       -3.2257400    -0.2778790     1.4400230
  H       -0.6227070    -1.2428120    -1.4883720
  H       -3.1941750     1.3785730    -0.7472070
  H       -1.0952130     1.5703990     1.4802000
  H       -2.7410530     2.2466610     1.5166010
  H       -0.6710550    -2.8260740     0.3542250
  H       -3.3063470    -2.0105220    -0.3629290
  H        0.4929290     1.8778260    -0.6840360
  H       -1.2098800     3.8154810     0.7720340
  H        2.9334840     2.3875570    -0.2389120
  H        5.1589650     1.2712730    -0.0008400
  H        5.2635310    -0.4031270     0.3606700
units angstrom
no_reorient  #important for SAPT in psi4, default
symmetry c1  #important for SAPT in psi4, default
}

set PROPERTIES_ORIGIN ["COM"]
properties('MP2/aug-cc-pvtz', properties = ['dipole'])
--------------------------------------------------------------------------

    Molecular point group: c1
  Charge       = 0
  Multiplicity = 1
  Basis Set: AUG-CC-PVTZ
    Blend: AUG-CC-PVTZ
  Basis Set: (AUG-CC-PVTZ AUX)
    Blend: AUG-CC-PVTZ-JKFIT

    Orbital Energies [Eh]
    ---------------------

    Doubly Occupied:

       1A    -20.586779     2A    -20.581285     3A    -20.559609
       4A    -20.556178     5A    -20.519872     6A    -15.633102
       7A    -15.599754     8A    -15.551863     9A    -11.386098
      10A    -11.358167    11A    -11.339852    12A    -11.325221
      13A    -11.303488    14A    -11.298187    15A    -11.296667
      16A    -11.293431    17A    -11.246659    18A     -1.429476
      19A     -1.394202    20A     -1.382954    21A     -1.375473
      22A     -1.345172    23A     -1.303775    24A     -1.271443
      25A     -1.181298    26A     -1.079569    27A     -1.068948
      28A     -1.019129    29A     -0.937093    30A     -0.906751
      31A     -0.876560    32A     -0.830242    33A     -0.811788
      34A     -0.766577    35A     -0.750514    36A     -0.736040
      37A     -0.721952    38A     -0.708159    39A     -0.702681
      40A     -0.685214    41A     -0.673985    42A     -0.653631
      43A     -0.649174    44A     -0.633029    45A     -0.620282
      46A     -0.615219    47A     -0.607489    48A     -0.593057
      49A     -0.576498    50A     -0.565128    51A     -0.555708
      52A     -0.546523    53A     -0.537258    54A     -0.531163
      55A     -0.496186    56A     -0.481231    57A     -0.476222
      58A     -0.463759    59A     -0.458030    60A     -0.453107
      61A     -0.441792    62A     -0.430369    63A     -0.392398
      64A     -0.348384

  @DF-RHF Final Energy:  -886.37353304592602

   => Energetics <=

    Nuclear Repulsion Energy =           1334.8801576438754637
    One-Electron Energy =               -3867.4657011130370847
    Two-Electron Energy =                1646.2120104232355970
    Total Energy =                       -886.3735330459260240
  Basis Set: (AUG-CC-PVTZ AUX)
    Blend: AUG-CC-PVTZ-RI
    Molecular point group: c1

    Geometry (in Angstrom), charge = 0, multiplicity = 1:

       Center              X                  Y                   Z               Mass
    ------------   -----------------  -----------------  -----------------  -----------------
         O           -1.332798597668     0.682894726624    -1.083518631175    15.994914619570
         O           -1.587182597668    -2.435026273376     0.529298368825    15.994914619570
         O           -3.574284597668    -1.040884273376    -0.444288631175    15.994914619570
         O           -1.453550597668     3.154520726624     0.142235368825    15.994914619570
         O            1.092931402332    -2.354306273376     0.023319368825    15.994914619570
         N            0.755014402332    -0.128885273376    -0.354917631175    14.003074004430
         N            2.922755402332    -0.964813273376     0.161725368825    14.003074004430
         N            4.692266402332     0.472169726624     0.376843368825    14.003074004430
         C           -1.390482597668    -1.038985273376     0.570995368825    12.000000000000
         C           -2.733820997668    -0.354637473376     0.474838368825    12.000000000000
         C           -0.651370597668    -0.475235273376    -0.663297631175    12.000000000000
         C           -2.384365597668     0.994603726624    -0.142788631175    12.000000000000
         C           -1.912824597668     2.018633726624     0.872855368825    12.000000000000
         C            1.217347402332     1.148138726624    -0.428505631175    12.000000000000
         C            1.596826402332    -1.218000273376    -0.042858631175    12.000000000000
         C            2.533843402332     1.404427726624    -0.184144631175    12.000000000000
         C            3.366587402332     0.281362726624     0.096558368825    12.000000000000
         H           -0.857757597668    -0.739636273376     1.485565368825     1.007825032230
         H           -3.239361597668    -0.248820273376     1.455740368825     1.007825032230
         H           -0.636328597668    -1.213753273376    -1.472654631175     1.007825032230
         H           -3.207796597668     1.407631726624    -0.731489631175     1.007825032230
         H           -1.108834597668     1.599457726624     1.495917368825     1.007825032230
         H           -2.754674597668     2.275719726624     1.532318368825     1.007825032230
         H           -0.684676597668    -2.797015273376     0.369942368825     1.007825032230
         H           -3.319968597668    -1.981463273376    -0.347211631175     1.007825032230
         H            0.479307402332     1.906884726624    -0.668318631175     1.007825032230
         H           -1.223501597668     3.844539726624     0.787751368825     1.007825032230
         H            2.919862402332     2.416615726624    -0.223194631175     1.007825032230
         H            5.145343402332     1.300331726624     0.014877368825     1.007825032230
         H            5.249909402332    -0.374068273376     0.376387368825     1.007825032230

  Basis Set: AUG-CC-PVTZ
    Blend: AUG-CC-PVTZ
  Basis Set: (AUG-CC-PVTZ AUX)
    Blend: AUG-CC-PVTZ-JKFIT
	 Reference Energy          =    -886.3735330459260240 [Eh]
	 Singles Energy            =      -0.0000000000000000 [Eh]
	 Same-Spin Energy          =      -0.9018972752335483 [Eh]
	 Opposite-Spin Energy      =      -2.7161072941417688 [Eh]
	 Correlation Energy        =      -3.6180045693753171 [Eh]
	 Total Energy              =    -889.9915376153013540 [Eh]

	 ================> DF-SCS-MP2 Energies <==================
	-----------------------------------------------------------
	 SCS Same-Spin Scale       =       0.3333333333333333 [-]
	 SCS Opposite-Spin Scale   =       1.2000000000000000 [-]
	 SCS Same-Spin Energy      =      -0.3006324250778494 [Eh]
	 SCS Opposite-Spin Energy  =      -3.2593287529701223 [Eh]
	 SCS Correlation Energy    =      -3.5599611780479719 [Eh]
	 SCS Total Energy          =    -889.9334942239739803 [Eh]
	-----------------------------------------------------------

  Dipole Moment: [D]
     X:     2.7675      Y:     5.8078      Z:     1.9451     Total:     6.7211

*** Psi4 exiting successfully. Buy a developer a beer!
