                               Psi4 1.3.2 release

  ==> Input File <==

--------------------------------------------------------------------------
#psi4
#
memory 32 gb

molecule  {
0 1
  O       -1.2481010    -0.6526680     1.0325150
  O       -1.2449750     2.4828510    -0.6861630
  O       -3.2165300     1.5210990     0.7448870
  O       -2.3570290    -3.0668370     0.0949400
  O        1.3605300     2.2470340    -0.0765420
  N        0.8434040     0.0452230     0.2559430
  N        3.0572260     0.7205030    -0.2937270
  N        4.7164630    -0.8366550    -0.5722980
  C       -1.2894840     1.0784300    -0.5920770
  C       -2.7151710     0.6552070    -0.2573930
  C       -0.5254080     0.4815200     0.6000940
  C       -2.5537754    -0.5359273     0.2794917
  C       -2.5283440    -1.8503930    -0.6392900
  C        1.2197750    -1.2614080     0.3112740
  C        1.7555940     1.0674350    -0.0594030
  C        2.5111010    -1.6091400     0.0469950
  C        3.4119830    -0.5506530    -0.2589250
  H       -0.9376060     0.5914040    -1.5148910
  H       -3.3625820     0.6426650    -1.1464650
  H       -0.4402900     1.2218800     1.4039980
  H       -3.2819570    -0.9087340     1.1307830
  H       -1.7133080    -1.7003050    -1.3694640
  H       -3.4855610    -1.8340040    -1.1841350
  H       -0.2975250     2.7131790    -0.5250000
  H       -2.8475560     2.3997430     0.5086630
  H        0.4343110    -1.9634370     0.5690680
  H       -2.4338740    -3.7984320    -0.5432330
  H        2.8291120    -2.6453980     0.0739220
  H        5.1251800    -1.6708610    -0.1624140
  H        5.3198140    -0.0200540    -0.5682940
units angstrom
no_reorient  #important for SAPT in psi4, default
symmetry c1  #important for SAPT in psi4, default
}

set PROPERTIES_ORIGIN ["COM"]
properties('MP2/aug-cc-pvtz', properties = ['dipole'])
--------------------------------------------------------------------------

    Molecular point group: c1
  Charge       = 0
  Multiplicity = 1
  Basis Set: AUG-CC-PVTZ
    Blend: AUG-CC-PVTZ
  Basis Set: (AUG-CC-PVTZ AUX)
    Blend: AUG-CC-PVTZ-JKFIT

    Orbital Energies [Eh]
    ---------------------

    Doubly Occupied:

       1A    -20.585297     2A    -20.579373     3A    -20.561005
       4A    -20.559655     5A    -20.521725     6A    -15.636032
       7A    -15.599488     8A    -15.552845     9A    -11.387637
      10A    -11.357409    11A    -11.338503    12A    -11.327851
      13A    -11.308530    14A    -11.302444    15A    -11.302101
      16A    -11.285511    17A    -11.247980    18A     -1.426292
      19A     -1.395877    20A     -1.380569    21A     -1.371522
      22A     -1.351273    23A     -1.305183    24A     -1.272134
      25A     -1.181543    26A     -1.105124    27A     -1.080117
      28A     -1.012180    29A     -0.934916    30A     -0.908228
      31A     -0.887239    32A     -0.840323    33A     -0.803769
      34A     -0.765271    35A     -0.752352    36A     -0.734167
      37A     -0.721482    38A     -0.708130    39A     -0.698792
      40A     -0.683835    41A     -0.676585    42A     -0.652354
      43A     -0.650339    44A     -0.642750    45A     -0.620437
      46A     -0.612621    47A     -0.601490    48A     -0.594237
      49A     -0.575866    50A     -0.574176    51A     -0.554337
      52A     -0.545088    53A     -0.532899    54A     -0.521024
      55A     -0.503801    56A     -0.491446    57A     -0.476707
      58A     -0.461469    59A     -0.458316    60A     -0.449186
      61A     -0.436975    62A     -0.425793    63A     -0.394679
      64A     -0.349613

  @DF-RHF Final Energy:  -886.31675033152533

   => Energetics <=

    Nuclear Repulsion Energy =           1325.3105905730858467
    One-Electron Energy =               -3848.1028900458200042
    Two-Electron Energy =                1636.4755491412088304
    Total Energy =                       -886.3167503315253271
  Basis Set: (AUG-CC-PVTZ AUX)
    Blend: AUG-CC-PVTZ-RI
    Molecular point group: c1

    Geometry (in Angstrom), charge = 0, multiplicity = 1:

       Center              X                  Y                   Z               Mass
    ------------   -----------------  -----------------  -----------------  -----------------
         O           -1.246890625355    -0.661601078082     1.036541457093    15.994914619570
         O           -1.243764625355     2.473917921918    -0.682136542907    15.994914619570
         O           -3.215319625355     1.512165921918     0.748913457093    15.994914619570
         O           -2.355818625355    -3.075770078082     0.098966457093    15.994914619570
         O            1.361740374645     2.238100921918    -0.072515542907    15.994914619570
         N            0.844614374645     0.036289921918     0.259969457093    14.003074004430
         N            3.058436374645     0.711569921918    -0.289700542907    14.003074004430
         N            4.717673374645    -0.845588078082    -0.568271542907    14.003074004430
         C           -1.288273625355     1.069496921918    -0.588050542907    12.000000000000
         C           -2.713960625355     0.646273921918    -0.253366542907    12.000000000000
         C           -0.524197625355     0.472586921918     0.604120457093    12.000000000000
         C           -2.552565025355    -0.544860378082     0.283518157093    12.000000000000
         C           -2.527133625355    -1.859326078082    -0.635263542907    12.000000000000
         C            1.220985374645    -1.270341078082     0.315300457093    12.000000000000
         C            1.756804374645     1.058501921918    -0.055376542907    12.000000000000
         C            2.512311374645    -1.618073078082     0.051021457093    12.000000000000
         C            3.413193374645    -0.559586078082    -0.254898542907    12.000000000000
         H           -0.936395625355     0.582470921918    -1.510864542907     1.007825032230
         H           -3.361371625355     0.633731921918    -1.142438542907     1.007825032230
         H           -0.439079625355     1.212946921918     1.408024457093     1.007825032230
         H           -3.280746625355    -0.917667078082     1.134809457093     1.007825032230
         H           -1.712097625355    -1.709238078082    -1.365437542907     1.007825032230
         H           -3.484350625355    -1.842937078082    -1.180108542907     1.007825032230
         H           -0.296314625355     2.704245921918    -0.520973542907     1.007825032230
         H           -2.846345625355     2.390809921918     0.512689457093     1.007825032230
         H            0.435521374645    -1.972370078082     0.573094457093     1.007825032230
         H           -2.432663625355    -3.807365078082    -0.539206542907     1.007825032230
         H            2.830322374645    -2.654331078082     0.077948457093     1.007825032230
         H            5.126390374645    -1.679794078082    -0.158387542907     1.007825032230
         H            5.321024374645    -0.028987078082    -0.564267542907     1.007825032230

  Basis Set: AUG-CC-PVTZ
    Blend: AUG-CC-PVTZ
  Basis Set: (AUG-CC-PVTZ AUX)
    Blend: AUG-CC-PVTZ-JKFIT
	 Reference Energy          =    -886.3167503315253271 [Eh]
	 Singles Energy            =      -0.0000000000000000 [Eh]
	 Same-Spin Energy          =      -0.9050174026063148 [Eh]
	 Opposite-Spin Energy      =      -2.7210704854499834 [Eh]
	 Correlation Energy        =      -3.6260878880562983 [Eh]
	 Total Energy              =    -889.9428382195816312 [Eh]

	 ================> DF-SCS-MP2 Energies <==================
	-----------------------------------------------------------
	 SCS Same-Spin Scale       =       0.3333333333333333 [-]
	 SCS Opposite-Spin Scale   =       1.2000000000000000 [-]
	 SCS Same-Spin Energy      =      -0.3016724675354382 [Eh]
	 SCS Opposite-Spin Energy  =      -3.2652845825399801 [Eh]
	 SCS Correlation Energy    =      -3.5669570500754184 [Eh]
	 SCS Total Energy          =    -889.8837073816007432 [Eh]
	-----------------------------------------------------------

  Dipole Moment: [D]
     X:     1.6698      Y:    -5.7920      Z:    -1.9319     Total:     6.3299

*** Psi4 exiting successfully. Buy a developer a beer!
