                               Psi4 1.3.2 release

  ==> Input File <==

--------------------------------------------------------------------------
#psi4
#
memory 32 gb

molecule  {
0 1
  O       -1.2433784    -0.6047954     1.0170239
  O       -1.2449750     2.4828510    -0.6861630
  O       -3.2165300     1.5210990     0.7448870
  O       -2.3570290    -3.0668370     0.0949400
  O        1.3605300     2.2470340    -0.0765420
  N        0.8434040     0.0452230     0.2559430
  N        3.0572260     0.7205030    -0.2937270
  N        4.7164630    -0.8366550    -0.5722980
  C       -1.2894840     1.0784300    -0.5920770
  C       -2.6683226     0.6695601    -0.2373673
  C       -0.5254080     0.4815200     0.6000940
  C       -2.5292560    -0.7168860     0.3610560
  C       -2.5283440    -1.8503930    -0.6392900
  C        1.2197750    -1.2614080     0.3112740
  C        1.7555940     1.0674350    -0.0594030
  C        2.5111010    -1.6091400     0.0469950
  C        3.4119830    -0.5506530    -0.2589250
  H       -0.9376060     0.5914040    -1.5148910
  H       -3.3625820     0.6426650    -1.1464650
  H       -0.4402900     1.2218800     1.4039980
  H       -3.2819570    -0.9087340     1.1307830
  H       -1.7133080    -1.7003050    -1.3694640
  H       -3.4855610    -1.8340040    -1.1841350
  H       -0.2975250     2.7131790    -0.5250000
  H       -2.8475560     2.3997430     0.5086630
  H        0.4343110    -1.9634370     0.5690680
  H       -2.4338740    -3.7984320    -0.5432330
  H        2.8291120    -2.6453980     0.0739220
  H        5.1251800    -1.6708610    -0.1624140
  H        5.3198140    -0.0200540    -0.5682940
units angstrom
no_reorient  #important for SAPT in psi4, default
symmetry c1  #important for SAPT in psi4, default
}

set PROPERTIES_ORIGIN ["COM"]
properties('MP2/aug-cc-pvtz', properties = ['dipole'])
--------------------------------------------------------------------------

    Molecular point group: c1
  Charge       = 0
  Multiplicity = 1
  Basis Set: AUG-CC-PVTZ
    Blend: AUG-CC-PVTZ
  Basis Set: (AUG-CC-PVTZ AUX)
    Blend: AUG-CC-PVTZ-JKFIT

    Orbital Energies [Eh]
    ---------------------

    Doubly Occupied:

       1A    -20.584091     2A    -20.579100     3A    -20.558772
       4A    -20.556223     5A    -20.521188     6A    -15.635406
       7A    -15.599561     8A    -15.552905     9A    -11.387484
      10A    -11.357492    11A    -11.337694    12A    -11.328616
      13A    -11.303227    14A    -11.299660    15A    -11.293486
      16A    -11.292716    17A    -11.248436    18A     -1.441900
      19A     -1.397337    20A     -1.382344    21A     -1.376263
      22A     -1.347271    23A     -1.305624    24A     -1.273294
      25A     -1.181775    26A     -1.081920    27A     -1.071962
      28A     -1.025917    29A     -0.937429    30A     -0.909911
      31A     -0.877126    32A     -0.832716    33A     -0.810782
      34A     -0.767666    35A     -0.753701    36A     -0.739833
      37A     -0.720542    38A     -0.704320    39A     -0.700649
      40A     -0.687819    41A     -0.673337    42A     -0.655942
      43A     -0.652512    44A     -0.637516    45A     -0.622182
      46A     -0.614956    47A     -0.608493    48A     -0.593027
      49A     -0.575522    50A     -0.574166    51A     -0.553915
      52A     -0.545294    53A     -0.538251    54A     -0.532044
      55A     -0.499392    56A     -0.479478    57A     -0.477519
      58A     -0.462390    59A     -0.458069    60A     -0.451317
      61A     -0.437700    62A     -0.431853    63A     -0.394286
      64A     -0.349320

  @DF-RHF Final Energy:  -886.37003162455380

   => Energetics <=

    Nuclear Repulsion Energy =           1326.1837493172886298
    One-Electron Energy =               -3849.9422775112075215
    Two-Electron Energy =                1637.3884965693653157
    Total Energy =                       -886.3700316245538033
  Basis Set: (AUG-CC-PVTZ AUX)
    Blend: AUG-CC-PVTZ-RI
    Molecular point group: c1

    Geometry (in Angstrom), charge = 0, multiplicity = 1:

       Center              X                  Y                   Z               Mass
    ------------   -----------------  -----------------  -----------------  -----------------
         O           -1.246001866144    -0.608653930459     1.017054639142    15.994914619570
         O           -1.247598466144     2.478992469541    -0.686132260858    15.994914619570
         O           -3.219153466144     1.517240469541     0.744917739142    15.994914619570
         O           -2.359652466144    -3.070695530459     0.094970739142    15.994914619570
         O            1.357906533856     2.243175469541    -0.076511260858    15.994914619570
         N            0.840780533856     0.041364469541     0.255973739142    14.003074004430
         N            3.054602533856     0.716644469541    -0.293696260858    14.003074004430
         N            4.713839533856    -0.840513530459    -0.572267260858    14.003074004430
         C           -1.292107466144     1.074571469541    -0.592046260858    12.000000000000
         C           -2.670946066144     0.665701569541    -0.237336560858    12.000000000000
         C           -0.528031466144     0.477661469541     0.600124739142    12.000000000000
         C           -2.531879466144    -0.720744530459     0.361086739142    12.000000000000
         C           -2.530967466144    -1.854251530459    -0.639259260858    12.000000000000
         C            1.217151533856    -1.265266530459     0.311304739142    12.000000000000
         C            1.752970533856     1.063576469541    -0.059372260858    12.000000000000
         C            2.508477533856    -1.612998530459     0.047025739142    12.000000000000
         C            3.409359533856    -0.554511530459    -0.258894260858    12.000000000000
         H           -0.940229466144     0.587545469541    -1.514860260858     1.007825032230
         H           -3.365205466144     0.638806469541    -1.146434260858     1.007825032230
         H           -0.442913466144     1.218021469541     1.404028739142     1.007825032230
         H           -3.284580466144    -0.912592530459     1.130813739142     1.007825032230
         H           -1.715931466144    -1.704163530459    -1.369433260858     1.007825032230
         H           -3.488184466144    -1.837862530459    -1.184104260858     1.007825032230
         H           -0.300148466144     2.709320469541    -0.524969260858     1.007825032230
         H           -2.850179466144     2.395884469541     0.508693739142     1.007825032230
         H            0.431687533856    -1.967295530459     0.569098739142     1.007825032230
         H           -2.436497466144    -3.802290530459    -0.543202260858     1.007825032230
         H            2.826488533856    -2.649256530459     0.073952739142     1.007825032230
         H            5.122556533856    -1.674719530459    -0.162383260858     1.007825032230
         H            5.317190533856    -0.023912530459    -0.568263260858     1.007825032230

  Basis Set: AUG-CC-PVTZ
    Blend: AUG-CC-PVTZ
  Basis Set: (AUG-CC-PVTZ AUX)
    Blend: AUG-CC-PVTZ-JKFIT
	 Reference Energy          =    -886.3700316245538033 [Eh]
	 Singles Energy            =      -0.0000000000000000 [Eh]
	 Same-Spin Energy          =      -0.9013625041641051 [Eh]
	 Opposite-Spin Energy      =      -2.7139663954371311 [Eh]
	 Correlation Energy        =      -3.6153288996012360 [Eh]
	 Total Energy              =    -889.9853605241549985 [Eh]

	 ================> DF-SCS-MP2 Energies <==================
	-----------------------------------------------------------
	 SCS Same-Spin Scale       =       0.3333333333333333 [-]
	 SCS Opposite-Spin Scale   =       1.2000000000000000 [-]
	 SCS Same-Spin Energy      =      -0.3004541680547017 [Eh]
	 SCS Opposite-Spin Energy  =      -3.2567596745245573 [Eh]
	 SCS Correlation Energy    =      -3.5572138425792588 [Eh]
	 SCS Total Energy          =    -889.9272454671330479 [Eh]
	-----------------------------------------------------------

  Dipole Moment: [D]
     X:     1.6545      Y:    -6.0952      Z:    -1.7291     Total:     6.5482

*** Psi4 exiting successfully. Buy a developer a beer!
