                               Psi4 1.3.2 release

  ==> Input File <==

--------------------------------------------------------------------------
#psi4
#
memory 32 gb

molecule  {
0 1
  O       -1.2481010    -0.6526680     1.0325150
  O       -1.2449750     2.4828510    -0.6861630
  O       -3.2165300     1.5210990     0.7448870
  O       -2.3570290    -3.0668370     0.0949400
  O        1.3605300     2.2470340    -0.0765420
  N        0.8434040     0.0452230     0.2559430
  N        3.0572260     0.7205030    -0.2937270
  N        4.7164630    -0.8366550    -0.5722980
  C       -1.2894840     1.0784300    -0.5920770
  C       -2.7151710     0.6552070    -0.2573930
  C       -0.5254080     0.4815200     0.6000940
  C       -2.5292560    -0.7168860     0.3610560
  C       -2.5283440    -1.8503930    -0.6392900
  C        1.2197750    -1.2614080     0.3112740
  C        1.7555940     1.0674350    -0.0594030
  C        2.5111010    -1.6091400     0.0469950
  C        3.4115375    -0.5604526    -0.2520646
  H       -0.9376060     0.5914040    -1.5148910
  H       -3.3625820     0.6426650    -1.1464650
  H       -0.4402900     1.2218800     1.4039980
  H       -3.2819570    -0.9087340     1.1307830
  H       -1.7133080    -1.7003050    -1.3694640
  H       -3.4855610    -1.8340040    -1.1841350
  H       -0.2975250     2.7131790    -0.5250000
  H       -2.8475560     2.3997430     0.5086630
  H        0.4343110    -1.9634370     0.5690680
  H       -2.4338740    -3.7984320    -0.5432330
  H        2.8291120    -2.6453980     0.0739220
  H        5.1175216    -1.6725373    -0.1582848
  H        5.3198140    -0.0200540    -0.5682940
units angstrom
no_reorient  #important for SAPT in psi4, default
symmetry c1  #important for SAPT in psi4, default
}

set PROPERTIES_ORIGIN ["COM"]
properties('MP2/aug-cc-pvtz', properties = ['dipole'])
--------------------------------------------------------------------------

    Molecular point group: c1
  Charge       = 0
  Multiplicity = 1
  Basis Set: AUG-CC-PVTZ
    Blend: AUG-CC-PVTZ
  Basis Set: (AUG-CC-PVTZ AUX)
    Blend: AUG-CC-PVTZ-JKFIT

    Orbital Energies [Eh]
    ---------------------

    Doubly Occupied:

       1A    -20.582432     2A    -20.581812     3A    -20.557844
       4A    -20.557154     5A    -20.521042     6A    -15.637555
       7A    -15.600194     8A    -15.553052     9A    -11.387217
      10A    -11.357792    11A    -11.341730    12A    -11.329924
      13A    -11.301349    14A    -11.297071    15A    -11.296736
      16A    -11.293054    17A    -11.248432    18A     -1.429449
      19A     -1.395789    20A     -1.380160    21A     -1.372952
      22A     -1.346267    23A     -1.305344    24A     -1.273604
      25A     -1.180269    26A     -1.083347    27A     -1.067855
      28A     -1.021866    29A     -0.935872    30A     -0.910300
      31A     -0.876096    32A     -0.832318    33A     -0.812022
      34A     -0.767368    35A     -0.752663    36A     -0.736260
      37A     -0.719718    38A     -0.703047    39A     -0.698542
      40A     -0.685478    41A     -0.673035    42A     -0.653988
      43A     -0.651748    44A     -0.638406    45A     -0.621517
      46A     -0.614427    47A     -0.607152    48A     -0.593242
      49A     -0.575861    50A     -0.569799    51A     -0.554048
      52A     -0.545630    53A     -0.537582    54A     -0.531914
      55A     -0.498029    56A     -0.477635    57A     -0.474495
      58A     -0.462174    59A     -0.459485    60A     -0.452871
      61A     -0.440913    62A     -0.432844    63A     -0.394025
      64A     -0.350565

  @DF-RHF Final Energy:  -886.37286382065383

   => Energetics <=

    Nuclear Repulsion Energy =           1323.6792115105495213
    One-Electron Energy =               -3845.0194217659768583
    Two-Electron Energy =                1634.9673464347736171
    Total Energy =                       -886.3728638206537198
  Basis Set: (AUG-CC-PVTZ AUX)
    Blend: AUG-CC-PVTZ-RI
    Molecular point group: c1

    Geometry (in Angstrom), charge = 0, multiplicity = 1:

       Center              X                  Y                   Z               Mass
    ------------   -----------------  -----------------  -----------------  -----------------
         O           -1.248047290187    -0.652177279362     1.032159221949    15.994914619570
         O           -1.244921290187     2.483341720638    -0.686518778051    15.994914619570
         O           -3.216476290187     1.521589720638     0.744531221949    15.994914619570
         O           -2.356975290187    -3.066346279362     0.094584221949    15.994914619570
         O            1.360583709813     2.247524720638    -0.076897778051    15.994914619570
         N            0.843457709813     0.045713720638     0.255587221949    14.003074004430
         N            3.057279709813     0.720993720638    -0.294082778051    14.003074004430
         N            4.716516709813    -0.836164279362    -0.572653778051    14.003074004430
         C           -1.289430290187     1.078920720638    -0.592432778051    12.000000000000
         C           -2.715117290187     0.655697720638    -0.257748778051    12.000000000000
         C           -0.525354290187     0.482010720638     0.599738221949    12.000000000000
         C           -2.529202290187    -0.716395279362     0.360700221949    12.000000000000
         C           -2.528290290187    -1.849902279362    -0.639645778051    12.000000000000
         C            1.219828709813    -1.260917279362     0.310918221949    12.000000000000
         C            1.755647709813     1.067925720638    -0.059758778051    12.000000000000
         C            2.511154709813    -1.608649279362     0.046639221949    12.000000000000
         C            3.411591209813    -0.559961879362    -0.252420378051    12.000000000000
         H           -0.937552290187     0.591894720638    -1.515246778051     1.007825032230
         H           -3.362528290187     0.643155720638    -1.146820778051     1.007825032230
         H           -0.440236290187     1.222370720638     1.403642221949     1.007825032230
         H           -3.281903290187    -0.908243279362     1.130427221949     1.007825032230
         H           -1.713254290187    -1.699814279362    -1.369819778051     1.007825032230
         H           -3.485507290187    -1.833513279362    -1.184490778051     1.007825032230
         H           -0.297471290187     2.713669720638    -0.525355778051     1.007825032230
         H           -2.847502290187     2.400233720638     0.508307221949     1.007825032230
         H            0.434364709813    -1.962946279362     0.568712221949     1.007825032230
         H           -2.433820290187    -3.797941279362    -0.543588778051     1.007825032230
         H            2.829165709813    -2.644907279362     0.073566221949     1.007825032230
         H            5.117575309813    -1.672046579362    -0.158640578051     1.007825032230
         H            5.319867709813    -0.019563279362    -0.568649778051     1.007825032230

  Basis Set: AUG-CC-PVTZ
    Blend: AUG-CC-PVTZ
  Basis Set: (AUG-CC-PVTZ AUX)
    Blend: AUG-CC-PVTZ-JKFIT
	 Reference Energy          =    -886.3728638206538335 [Eh]
	 Singles Energy            =      -0.0000000000000000 [Eh]
	 Same-Spin Energy          =      -0.9014388198506572 [Eh]
	 Opposite-Spin Energy      =      -2.7151836941248497 [Eh]
	 Correlation Energy        =      -3.6166225139755070 [Eh]
	 Total Energy              =    -889.9894863346293050 [Eh]

	 ================> DF-SCS-MP2 Energies <==================
	-----------------------------------------------------------
	 SCS Same-Spin Scale       =       0.3333333333333333 [-]
	 SCS Opposite-Spin Scale   =       1.2000000000000000 [-]
	 SCS Same-Spin Energy      =      -0.3004796066168857 [Eh]
	 SCS Opposite-Spin Energy  =      -3.2582204329498197 [Eh]
	 SCS Correlation Energy    =      -3.5587000395667054 [Eh]
	 SCS Total Energy          =    -889.9315638602205354 [Eh]
	-----------------------------------------------------------

  Dipole Moment: [D]
     X:     1.6867      Y:    -5.9900      Z:    -1.8089     Total:     6.4805

*** Psi4 exiting successfully. Buy a developer a beer!
