                               Psi4 1.3.2 release

  ==> Input File <==

--------------------------------------------------------------------------
#psi4
#
memory 32 gb

molecule  {
0 1
  O       -1.2481010    -0.6526680     1.0325150
  O       -1.2449750     2.4828510    -0.6861630
  O       -3.2165300     1.5210990     0.7448870
  O       -2.3570290    -3.0668370     0.0949400
  O        1.3605300     2.2470340    -0.0765420
  N        0.8545173     0.0482476     0.2530476
  N        3.0572260     0.7205030    -0.2937270
  N        4.7164630    -0.8366550    -0.5722980
  C       -1.2894840     1.0784300    -0.5920770
  C       -2.7151710     0.6552070    -0.2573930
  C       -0.5254080     0.4815200     0.6000940
  C       -2.5292560    -0.7168860     0.3610560
  C       -2.5283440    -1.8503930    -0.6392900
  C        1.2197750    -1.2614080     0.3112740
  C        1.7555940     1.0674350    -0.0594030
  C        2.5111010    -1.6091400     0.0469950
  C        3.4119830    -0.5506530    -0.2589250
  H       -0.9376060     0.5914040    -1.5148910
  H       -3.3625820     0.6426650    -1.1464650
  H       -0.4402900     1.2218800     1.4039980
  H       -3.2819570    -0.9087340     1.1307830
  H       -1.7133080    -1.7003050    -1.3694640
  H       -3.4855610    -1.8340040    -1.1841350
  H       -0.2975250     2.7131790    -0.5250000
  H       -2.8475560     2.3997430     0.5086630
  H        0.4405141    -1.9705550     0.5684105
  H       -2.4338740    -3.7984320    -0.5432330
  H        2.8291120    -2.6453980     0.0739220
  H        5.1251800    -1.6708610    -0.1624140
  H        5.3198140    -0.0200540    -0.5682940
units angstrom
no_reorient  #important for SAPT in psi4, default
symmetry c1  #important for SAPT in psi4, default
}

set PROPERTIES_ORIGIN ["COM"]
properties('MP2/aug-cc-pvtz', properties = ['dipole'])
--------------------------------------------------------------------------

    Molecular point group: c1
  Charge       = 0
  Multiplicity = 1
  Basis Set: AUG-CC-PVTZ
    Blend: AUG-CC-PVTZ
  Basis Set: (AUG-CC-PVTZ AUX)
    Blend: AUG-CC-PVTZ-JKFIT

    Orbital Energies [Eh]
    ---------------------

    Doubly Occupied:

       1A    -20.582415     2A    -20.582105     3A    -20.557912
       4A    -20.557234     5A    -20.520974     6A    -15.637056
       7A    -15.599518     8A    -15.552810     9A    -11.387021
      10A    -11.357407    11A    -11.342420    12A    -11.328547
      13A    -11.301361    14A    -11.297191    15A    -11.296892
      16A    -11.293140    17A    -11.248688    18A     -1.429290
      19A     -1.396783    20A     -1.380217    21A     -1.372901
      22A     -1.346376    23A     -1.306106    24A     -1.273509
      25A     -1.181595    26A     -1.081900    27A     -1.067920
      28A     -1.021883    29A     -0.934856    30A     -0.911008
      31A     -0.877136    32A     -0.832130    33A     -0.811922
      34A     -0.767028    35A     -0.752594    36A     -0.736124
      37A     -0.720003    38A     -0.702963    39A     -0.698510
      40A     -0.685769    41A     -0.672876    42A     -0.654734
      43A     -0.651488    44A     -0.638879    45A     -0.620812
      46A     -0.614887    47A     -0.606767    48A     -0.592715
      49A     -0.575872    50A     -0.569830    51A     -0.553869
      52A     -0.545572    53A     -0.537530    54A     -0.531968
      55A     -0.497650    56A     -0.477639    57A     -0.474535
      58A     -0.462202    59A     -0.459763    60A     -0.452937
      61A     -0.440723    62A     -0.432923    63A     -0.394896
      64A     -0.350400

  @DF-RHF Final Energy:  -886.37344161808869

   => Energetics <=

    Nuclear Repulsion Energy =           1323.6534488975148633
    One-Electron Energy =               -3844.9684170636783165
    Two-Electron Energy =                1634.9415265480747621
    Total Energy =                       -886.3734416180886910
  Basis Set: (AUG-CC-PVTZ AUX)
    Blend: AUG-CC-PVTZ-RI
    Molecular point group: c1

    Geometry (in Angstrom), charge = 0, multiplicity = 1:

       Center              X                  Y                   Z               Mass
    ------------   -----------------  -----------------  -----------------  -----------------
         O           -1.248766939505    -0.652812712587     1.032684524552    15.994914619570
         O           -1.245640939505     2.482706287413    -0.685993475448    15.994914619570
         O           -3.217195939505     1.520954287413     0.745056524552    15.994914619570
         O           -2.357694939505    -3.066981712587     0.095109524552    15.994914619570
         O            1.359864060495     2.246889287413    -0.076372475448    15.994914619570
         N            0.853851360495     0.048102887413     0.253217124552    14.003074004430
         N            3.056560060495     0.720358287413    -0.293557475448    14.003074004430
         N            4.715797060495    -0.836799712587    -0.572128475448    14.003074004430
         C           -1.290149939505     1.078285287413    -0.591907475448    12.000000000000
         C           -2.715836939505     0.655062287413    -0.257223475448    12.000000000000
         C           -0.526073939505     0.481375287413     0.600263524552    12.000000000000
         C           -2.529921939505    -0.717030712587     0.361225524552    12.000000000000
         C           -2.529009939505    -1.850537712587    -0.639120475448    12.000000000000
         C            1.219109060495    -1.261552712587     0.311443524552    12.000000000000
         C            1.754928060495     1.067290287413    -0.059233475448    12.000000000000
         C            2.510435060495    -1.609284712587     0.047164524552    12.000000000000
         C            3.411317060495    -0.550797712587    -0.258755475448    12.000000000000
         H           -0.938271939505     0.591259287413    -1.514721475448     1.007825032230
         H           -3.363247939505     0.642520287413    -1.146295475448     1.007825032230
         H           -0.440955939505     1.221735287413     1.404167524552     1.007825032230
         H           -3.282622939505    -0.908878712587     1.130952524552     1.007825032230
         H           -1.713973939505    -1.700449712587    -1.369294475448     1.007825032230
         H           -3.486226939505    -1.834148712587    -1.183965475448     1.007825032230
         H           -0.298190939505     2.713034287413    -0.524830475448     1.007825032230
         H           -2.848221939505     2.399598287413     0.508832524552     1.007825032230
         H            0.439848160495    -1.970699712587     0.568580024552     1.007825032230
         H           -2.434539939505    -3.798576712587    -0.543063475448     1.007825032230
         H            2.828446060495    -2.645542712587     0.074091524552     1.007825032230
         H            5.124514060495    -1.671005712587    -0.162244475448     1.007825032230
         H            5.319148060495    -0.020198712587    -0.568124475448     1.007825032230

  Basis Set: AUG-CC-PVTZ
    Blend: AUG-CC-PVTZ
  Basis Set: (AUG-CC-PVTZ AUX)
    Blend: AUG-CC-PVTZ-JKFIT
	 Reference Energy          =    -886.3734416180886910 [Eh]
	 Singles Energy            =      -0.0000000000000000 [Eh]
	 Same-Spin Energy          =      -0.9012095353904741 [Eh]
	 Opposite-Spin Energy      =      -2.7148709380155851 [Eh]
	 Correlation Energy        =      -3.6160804734060594 [Eh]
	 Total Energy              =    -889.9895220914947913 [Eh]

	 ================> DF-SCS-MP2 Energies <==================
	-----------------------------------------------------------
	 SCS Same-Spin Scale       =       0.3333333333333333 [-]
	 SCS Opposite-Spin Scale   =       1.2000000000000000 [-]
	 SCS Same-Spin Energy      =      -0.3004031784634913 [Eh]
	 SCS Opposite-Spin Energy  =      -3.2578451256187022 [Eh]
	 SCS Correlation Energy    =      -3.5582483040821935 [Eh]
	 SCS Total Energy          =    -889.9316899221709036 [Eh]
	-----------------------------------------------------------

  Dipole Moment: [D]
     X:     1.6815      Y:    -5.9862      Z:    -1.8145     Total:     6.4772

*** Psi4 exiting successfully. Buy a developer a beer!
