                               Psi4 1.4a3.dev225

  ==> Input File <==

--------------------------------------------------------------------------
#psi4
#
memory 32 gb

molecule  {
0 1
  O       -1.3191770     0.6538360    -1.0992360
  O       -1.5735610    -2.4640850     0.5135810
  O       -3.5606630    -1.0699430    -0.4600060
  O       -1.4399290     3.1254620     0.1265180
  O        1.1065530    -2.3833650     0.0076020
  N        0.7686360    -0.1579440    -0.3706350
  N        2.9363770    -0.9938720     0.1460080
  N        4.7058880     0.4431110     0.3611260
  C       -1.3768610    -1.0680440     0.5552780
  C       -2.7379840    -0.3746360     0.4578480
  C       -0.6377490    -0.5042940    -0.6790150
  C       -2.3707440     0.9655450    -0.1585060
  C       -1.8992030     1.9895750     0.8571380
  C        1.2309690     1.1190800    -0.4442230
  C        1.6104480    -1.2470590    -0.0585760
  C        2.5474650     1.3753690    -0.1998620
  C        3.3802090     0.2523040     0.0808410
  H       -0.8441360    -0.7686950     1.4698480
  H       -3.2257400    -0.2778790     1.4400230
  H       -0.6227070    -1.2428120    -1.4883720
  H       -3.1941750     1.3785730    -0.7472070
  H       -1.0952130     1.5703990     1.4802000
  H       -2.7410530     2.2466610     1.5166010
  H       -0.6710550    -2.8260740     0.3542250
  H       -3.3063470    -2.0105220    -0.3629290
  H        0.4589278     1.9127811    -0.6950841
  H       -1.2098800     3.8154810     0.7720340
  H        2.9334840     2.3875570    -0.2389120
  H        5.1589650     1.2712730    -0.0008400
  H        5.2635310    -0.4031270     0.3606700
units angstrom
no_reorient  #important for SAPT in psi4, default
symmetry c1  #important for SAPT in psi4, default
}

set PROPERTIES_ORIGIN ["COM"]
properties('MP2/aug-cc-pvtz', properties = ['dipole'])
--------------------------------------------------------------------------

    Molecular point group: c1
  Charge       = 0
  Multiplicity = 1
  Basis Set: AUG-CC-PVTZ
    Blend: AUG-CC-PVTZ
  Basis Set: (AUG-CC-PVTZ AUX)
    Blend: AUG-CC-PVTZ-JKFIT

    Orbital Energies [Eh]
    ---------------------

    Doubly Occupied:

       1A    -20.587375     2A    -20.581487     3A    -20.559350
       4A    -20.556494     5A    -20.519616     6A    -15.632942
       7A    -15.599423     8A    -15.551435     9A    -11.385871
      10A    -11.357789    11A    -11.339561    12A    -11.328862
      13A    -11.303826    14A    -11.298109    15A    -11.296987
      16A    -11.293591    17A    -11.246101    18A     -1.429290
      19A     -1.394094    20A     -1.383435    21A     -1.375698
      22A     -1.346569    23A     -1.303355    24A     -1.270922
      25A     -1.180893    26A     -1.078076    27A     -1.068201
      28A     -1.017267    29A     -0.936443    30A     -0.902980
      31A     -0.876649    32A     -0.829848    33A     -0.812203
      34A     -0.766209    35A     -0.748588    36A     -0.735215
      37A     -0.720673    38A     -0.708190    39A     -0.702899
      40A     -0.682664    41A     -0.674669    42A     -0.653348
      43A     -0.648737    44A     -0.633354    45A     -0.620186
      46A     -0.613365    47A     -0.604739    48A     -0.592723
      49A     -0.576245    50A     -0.564574    51A     -0.555835
      52A     -0.548082    53A     -0.536609    54A     -0.531099
      55A     -0.495482    56A     -0.481146    57A     -0.473805
      58A     -0.463152    59A     -0.457804    60A     -0.452943
      61A     -0.441978    62A     -0.429944    63A     -0.392061
      64A     -0.347923

  @DF-RHF Final Energy:  -886.37143014035632

   => Energetics <=

    Nuclear Repulsion Energy =           1334.3689618895703006
    One-Electron Energy =               -3866.4828178744282923
    Two-Electron Energy =                1645.7424258445014402
    Total Energy =                       -886.3714301403563240
  Basis Set: (AUG-CC-PVTZ AUX)
    Blend: AUG-CC-PVTZ-RI
    Molecular point group: c1

    Geometry (in Angstrom), charge = 0, multiplicity = 1:

       Center              X                  Y                   Z               Mass
    ------------   -----------------  -----------------  -----------------  -----------------
         O           -1.331779686875     0.682302543986    -1.083409984013    15.994914619570
         O           -1.586163686875    -2.435618456014     0.529407015987    15.994914619570
         O           -3.573265686875    -1.041476456014    -0.444179984013    15.994914619570
         O           -1.452531686875     3.153928543986     0.142344015987    15.994914619570
         O            1.093950313125    -2.354898456014     0.023428015987    15.994914619570
         N            0.756033313125    -0.129477456014    -0.354808984013    14.003074004430
         N            2.923774313125    -0.965405456014     0.161834015987    14.003074004430
         N            4.693285313125     0.471577543986     0.376952015987    14.003074004430
         C           -1.389463686875    -1.039577456014     0.571104015987    12.000000000000
         C           -2.750586686875    -0.346169456014     0.473674015987    12.000000000000
         C           -0.650351686875    -0.475827456014    -0.663188984013    12.000000000000
         C           -2.383346686875     0.994011543986    -0.142679984013    12.000000000000
         C           -1.911805686875     2.018041543986     0.872964015987    12.000000000000
         C            1.218366313125     1.147546543986    -0.428396984013    12.000000000000
         C            1.597845313125    -1.218592456014    -0.042749984013    12.000000000000
         C            2.534862313125     1.403835543986    -0.184035984013    12.000000000000
         C            3.367606313125     0.280770543986     0.096667015987    12.000000000000
         H           -0.856738686875    -0.740228456014     1.485674015987     1.007825032230
         H           -3.238342686875    -0.249412456014     1.455849015987     1.007825032230
         H           -0.635309686875    -1.214345456014    -1.472545984013     1.007825032230
         H           -3.206777686875     1.407039543986    -0.731380984013     1.007825032230
         H           -1.107815686875     1.598865543986     1.496026015987     1.007825032230
         H           -2.753655686875     2.275127543986     1.532427015987     1.007825032230
         H           -0.683657686875    -2.797607456014     0.370051015987     1.007825032230
         H           -3.318949686875    -1.982055456014    -0.347102984013     1.007825032230
         H            0.446325113125     1.941247643986    -0.679258084013     1.007825032230
         H           -1.222482686875     3.843947543986     0.787860015987     1.007825032230
         H            2.920881313125     2.416023543986    -0.223085984013     1.007825032230
         H            5.146362313125     1.299739543986     0.014986015987     1.007825032230
         H            5.250928313125    -0.374660456014     0.376496015987     1.007825032230

  Basis Set: AUG-CC-PVTZ
    Blend: AUG-CC-PVTZ
  Basis Set: (AUG-CC-PVTZ AUX)
    Blend: AUG-CC-PVTZ-JKFIT
	 Reference Energy          =    -886.3714301403563240 [Eh]
	 Singles Energy            =      -0.0000000000000000 [Eh]
	 Same-Spin Energy          =      -0.9021363900255241 [Eh]
	 Opposite-Spin Energy      =      -2.7164628547526166 [Eh]
	 Correlation Energy        =      -3.6185992447781405 [Eh]
	 Total Energy              =    -889.9900293851344486 [Eh]

	 ================> DF-SCS-MP2 Energies <==================
	-----------------------------------------------------------
	 SCS Same-Spin Scale       =       0.3333333333333333 [-]
	 SCS Opposite-Spin Scale   =       1.2000000000000000 [-]
	 SCS Same-Spin Energy      =      -0.3007121300085080 [Eh]
	 SCS Opposite-Spin Energy  =      -3.2597554257031400 [Eh]
	 SCS Correlation Energy    =      -3.5604675557116479 [Eh]
	 SCS Total Energy          =    -889.9318976960679493 [Eh]
	-----------------------------------------------------------

  Dipole Moment: [D]
     X:     2.6914      Y:     5.8209      Z:     1.9470     Total:     6.7020

*** Psi4 exiting successfully. Buy a developer a beer!
