                               Psi4 1.3.2 release

  ==> Input File <==

--------------------------------------------------------------------------
#psi4
#
memory 32 gb

molecule  {
0 1
  O       -1.2481010    -0.6526680     1.0325150
  O       -1.2449750     2.4828510    -0.6861630
  O       -3.2169295     1.5577938     0.7117666
  O       -2.3570290    -3.0668370     0.0949400
  O        1.3605300     2.2470340    -0.0765420
  N        0.8434040     0.0452230     0.2559430
  N        3.0572260     0.7205030    -0.2937270
  N        4.7164630    -0.8366550    -0.5722980
  C       -1.2894840     1.0784300    -0.5920770
  C       -2.7151710     0.6552070    -0.2573930
  C       -0.5254080     0.4815200     0.6000940
  C       -2.5117767    -0.7345604     0.3143238
  C       -2.5283440    -1.8503930    -0.6392900
  C        1.2197750    -1.2614080     0.3112740
  C        1.7555940     1.0674350    -0.0594030
  C        2.5111010    -1.6091400     0.0469950
  C        3.4119830    -0.5506530    -0.2589250
  H       -0.9376060     0.5914040    -1.5148910
  H       -3.3625820     0.6426650    -1.1464650
  H       -0.4402900     1.2218800     1.4039980
  H       -3.2819570    -0.9087340     1.1307830
  H       -1.7133080    -1.7003050    -1.3694640
  H       -3.4855610    -1.8340040    -1.1841350
  H       -0.2975250     2.7131790    -0.5250000
  H       -2.8475560     2.3997430     0.5086630
  H        0.4343110    -1.9634370     0.5690680
  H       -2.4338740    -3.7984320    -0.5432330
  H        2.8291120    -2.6453980     0.0739220
  H        5.1251800    -1.6708610    -0.1624140
  H        5.3198140    -0.0200540    -0.5682940
units angstrom
no_reorient  #important for SAPT in psi4, default
symmetry c1  #important for SAPT in psi4, default
}

set PROPERTIES_ORIGIN ["COM"]
properties('MP2/aug-cc-pvtz', properties = ['dipole'])
--------------------------------------------------------------------------

    Molecular point group: c1
  Charge       = 0
  Multiplicity = 1
  Basis Set: AUG-CC-PVTZ
    Blend: AUG-CC-PVTZ
  Basis Set: (AUG-CC-PVTZ AUX)
    Blend: AUG-CC-PVTZ-JKFIT

    Orbital Energies [Eh]
    ---------------------

    Doubly Occupied:

       1A    -20.584503     2A    -20.582109     3A    -20.555912
       4A    -20.554316     5A    -20.521766     6A    -15.636633
       7A    -15.599812     8A    -15.553239     9A    -11.388029
      10A    -11.357794    11A    -11.341146    12A    -11.328525
      13A    -11.302363    14A    -11.299980    15A    -11.296300
      16A    -11.294902    17A    -11.248574    18A     -1.429118
      19A     -1.396406    20A     -1.383598    21A     -1.374906
      22A     -1.348690    23A     -1.305901    24A     -1.273625
      25A     -1.182149    26A     -1.082214    27A     -1.075748
      28A     -1.023549    29A     -0.940089    30A     -0.909448
      31A     -0.877632    32A     -0.831876    33A     -0.810527
      34A     -0.766846    35A     -0.752326    36A     -0.736337
      37A     -0.721287    38A     -0.709283    39A     -0.699015
      40A     -0.685800    41A     -0.676105    42A     -0.656183
      43A     -0.651784    44A     -0.638136    45A     -0.620814
      46A     -0.617430    47A     -0.607993    48A     -0.593955
      49A     -0.577236    50A     -0.563755    51A     -0.555114
      52A     -0.548790    53A     -0.536155    54A     -0.533139
      55A     -0.497178    56A     -0.479108    57A     -0.472595
      58A     -0.463670    59A     -0.459438    60A     -0.452735
      61A     -0.442185    62A     -0.433031    63A     -0.395201
      64A     -0.349940

  @DF-RHF Final Energy:  -886.37013464171741

   => Energetics <=

    Nuclear Repulsion Energy =           1324.0968797434879889
    One-Electron Energy =               -3845.7661447810510253
    Two-Electron Energy =                1635.2991303958456228
    Total Energy =                       -886.3701346417174136
  Basis Set: (AUG-CC-PVTZ AUX)
    Blend: AUG-CC-PVTZ-RI
    Molecular point group: c1

    Geometry (in Angstrom), charge = 0, multiplicity = 1:

       Center              X                  Y                   Z               Mass
    ------------   -----------------  -----------------  -----------------  -----------------
         O           -1.248937618654    -0.654209987888     1.037001265518    15.994914619570
         O           -1.245811618654     2.481309012112    -0.681676734482    15.994914619570
         O           -3.217766118654     1.556251812112     0.716252865518    15.994914619570
         O           -2.357865618654    -3.068378987888     0.099426265518    15.994914619570
         O            1.359693381346     2.245492012112    -0.072055734482    15.994914619570
         N            0.842567381346     0.043681012112     0.260429265518    14.003074004430
         N            3.056389381346     0.718961012112    -0.289240734482    14.003074004430
         N            4.715626381346    -0.838196987888    -0.567811734482    14.003074004430
         C           -1.290320618654     1.076888012112    -0.587590734482    12.000000000000
         C           -2.716007618654     0.653665012112    -0.252906734482    12.000000000000
         C           -0.526244618654     0.479978012112     0.604580265518    12.000000000000
         C           -2.512613318654    -0.736102387888     0.318810065518    12.000000000000
         C           -2.529180618654    -1.851934987888    -0.634803734482    12.000000000000
         C            1.218938381346    -1.262949987888     0.315760265518    12.000000000000
         C            1.754757381346     1.065893012112    -0.054916734482    12.000000000000
         C            2.510264381346    -1.610681987888     0.051481265518    12.000000000000
         C            3.411146381346    -0.552194987888    -0.254438734482    12.000000000000
         H           -0.938442618654     0.589862012112    -1.510404734482     1.007825032230
         H           -3.363418618654     0.641123012112    -1.141978734482     1.007825032230
         H           -0.441126618654     1.220338012112     1.408484265518     1.007825032230
         H           -3.282793618654    -0.910275987888     1.135269265518     1.007825032230
         H           -1.714144618654    -1.701846987888    -1.364977734482     1.007825032230
         H           -3.486397618654    -1.835545987888    -1.179648734482     1.007825032230
         H           -0.298361618654     2.711637012112    -0.520513734482     1.007825032230
         H           -2.848392618654     2.398201012112     0.513149265518     1.007825032230
         H            0.433474381346    -1.964978987888     0.573554265518     1.007825032230
         H           -2.434710618654    -3.799973987888    -0.538746734482     1.007825032230
         H            2.828275381346    -2.646939987888     0.078408265518     1.007825032230
         H            5.124343381346    -1.672402987888    -0.157927734482     1.007825032230
         H            5.318977381346    -0.021595987888    -0.563807734482     1.007825032230

  Basis Set: AUG-CC-PVTZ
    Blend: AUG-CC-PVTZ
  Basis Set: (AUG-CC-PVTZ AUX)
    Blend: AUG-CC-PVTZ-JKFIT
	 Reference Energy          =    -886.3701346417174136 [Eh]
	 Singles Energy            =      -0.0000000000000000 [Eh]
	 Same-Spin Energy          =      -0.9012179486858192 [Eh]
	 Opposite-Spin Energy      =      -2.7142759328420660 [Eh]
	 Correlation Energy        =      -3.6154938815278852 [Eh]
	 Total Energy              =    -889.9856285232452819 [Eh]

	 ================> DF-SCS-MP2 Energies <==================
	-----------------------------------------------------------
	 SCS Same-Spin Scale       =       0.3333333333333333 [-]
	 SCS Opposite-Spin Scale   =       1.2000000000000000 [-]
	 SCS Same-Spin Energy      =      -0.3004059828952730 [Eh]
	 SCS Opposite-Spin Energy  =      -3.2571311194104791 [Eh]
	 SCS Correlation Energy    =      -3.5575371023057523 [Eh]
	 SCS Total Energy          =    -889.9276717440232005 [Eh]
	-----------------------------------------------------------

  Dipole Moment: [D]
     X:     1.7072      Y:    -6.0653      Z:    -1.8372     Total:     6.5634

*** Psi4 exiting successfully. Buy a developer a beer!
