                               Psi4 1.3.2 release

  ==> Input File <==

--------------------------------------------------------------------------
#psi4
#
memory 32 gb

molecule  {
0 1
  O       -1.2481010    -0.6526680     1.0325150
  O       -1.2449750     2.4828510    -0.6861630
  O       -3.2165300     1.5210990     0.7448870
  O       -2.3570290    -3.0668370     0.0949400
  O        1.3605300     2.2470340    -0.0765420
  N        0.8434040     0.0452230     0.2559430
  N        3.0572260     0.7205030    -0.2937270
  N        4.7164630    -0.8366550    -0.5722980
  C       -1.2894840     1.0784300    -0.5920770
  C       -2.6968398     0.6316199    -0.2133623
  C       -0.5718581     0.4627648     0.6192672
  C       -2.5292560    -0.7168860     0.3610560
  C       -2.5283440    -1.8503930    -0.6392900
  C        1.2197750    -1.2614080     0.3112740
  C        1.7555940     1.0674350    -0.0594030
  C        2.5111010    -1.6091400     0.0469950
  C        3.4119830    -0.5506530    -0.2589250
  H       -0.9376060     0.5914040    -1.5148910
  H       -3.3625820     0.6426650    -1.1464650
  H       -0.4402900     1.2218800     1.4039980
  H       -3.2819570    -0.9087340     1.1307830
  H       -1.7133080    -1.7003050    -1.3694640
  H       -3.4855610    -1.8340040    -1.1841350
  H       -0.2975250     2.7131790    -0.5250000
  H       -2.8475560     2.3997430     0.5086630
  H        0.4343110    -1.9634370     0.5690680
  H       -2.4338740    -3.7984320    -0.5432330
  H        2.8291120    -2.6453980     0.0739220
  H        5.1251800    -1.6708610    -0.1624140
  H        5.3198140    -0.0200540    -0.5682940
units angstrom
no_reorient  #important for SAPT in psi4, default
symmetry c1  #important for SAPT in psi4, default
}

set PROPERTIES_ORIGIN ["COM"]
properties('MP2/aug-cc-pvtz', properties = ['dipole'])
--------------------------------------------------------------------------

    Molecular point group: c1
  Charge       = 0
  Multiplicity = 1
  Basis Set: AUG-CC-PVTZ
    Blend: AUG-CC-PVTZ
  Basis Set: (AUG-CC-PVTZ AUX)
    Blend: AUG-CC-PVTZ-JKFIT

    Orbital Energies [Eh]
    ---------------------

    Doubly Occupied:

       1A    -20.588036     2A    -20.585059     3A    -20.559986
       4A    -20.559055     5A    -20.518912     6A    -15.631988
       7A    -15.597773     8A    -15.551018     9A    -11.385330
      10A    -11.355300    11A    -11.343192    12A    -11.325434
      13A    -11.304991    14A    -11.299973    15A    -11.297281
      16A    -11.295745    17A    -11.245728    18A     -1.444815
      19A     -1.395241    20A     -1.383441    21A     -1.377405
      22A     -1.349438    23A     -1.302864    24A     -1.268174
      25A     -1.178859    26A     -1.079368    27A     -1.076722
      28A     -1.024152    29A     -0.934013    30A     -0.907176
      31A     -0.877038    32A     -0.834815    33A     -0.812053
      34A     -0.764266    35A     -0.750716    36A     -0.737610
      37A     -0.720193    38A     -0.705914    39A     -0.703581
      40A     -0.687079    41A     -0.672883    42A     -0.655947
      43A     -0.652101    44A     -0.637799    45A     -0.621994
      46A     -0.614762    47A     -0.608940    48A     -0.589824
      49A     -0.576016    50A     -0.573680    51A     -0.558239
      52A     -0.546679    53A     -0.539809    54A     -0.532103
      55A     -0.497306    56A     -0.480531    57A     -0.478590
      58A     -0.463977    59A     -0.458553    60A     -0.454740
      61A     -0.435903    62A     -0.430269    63A     -0.392901
      64A     -0.346789

  @DF-RHF Final Energy:  -886.36768603614894

   => Energetics <=

    Nuclear Repulsion Energy =           1324.6815293945135181
    One-Electron Energy =               -3846.9382905961492725
    Two-Electron Energy =                1635.8890751654867017
    Total Energy =                       -886.3676860361488252
  Basis Set: (AUG-CC-PVTZ AUX)
    Blend: AUG-CC-PVTZ-RI
    Molecular point group: c1

    Geometry (in Angstrom), charge = 0, multiplicity = 1:

       Center              X                  Y                   Z               Mass
    ------------   -----------------  -----------------  -----------------  -----------------
         O           -1.246712934805    -0.650577747716     1.029394925304    15.994914619570
         O           -1.243586934805     2.484941252284    -0.689283074696    15.994914619570
         O           -3.215141934805     1.523189252284     0.741766925304    15.994914619570
         O           -2.355640934805    -3.064746747716     0.091819925304    15.994914619570
         O            1.361918065195     2.249124252284    -0.079662074696    15.994914619570
         N            0.844792065195     0.047313252284     0.252822925304    14.003074004430
         N            3.058614065195     0.722593252284    -0.296847074696    14.003074004430
         N            4.717851065195    -0.834564747716    -0.575418074696    14.003074004430
         C           -1.288095934805     1.080520252284    -0.595197074696    12.000000000000
         C           -2.695451734805     0.633710152284    -0.216482374696    12.000000000000
         C           -0.570470034805     0.464855052284     0.616147125304    12.000000000000
         C           -2.527867934805    -0.714795747716     0.357935925304    12.000000000000
         C           -2.526955934805    -1.848302747716    -0.642410074696    12.000000000000
         C            1.221163065195    -1.259317747716     0.308153925304    12.000000000000
         C            1.756982065195     1.069525252284    -0.062523074696    12.000000000000
         C            2.512489065195    -1.607049747716     0.043874925304    12.000000000000
         C            3.413371065195    -0.548562747716    -0.262045074696    12.000000000000
         H           -0.936217934805     0.593494252284    -1.518011074696     1.007825032230
         H           -3.361193934805     0.644755252284    -1.149585074696     1.007825032230
         H           -0.438901934805     1.223970252284     1.400877925304     1.007825032230
         H           -3.280568934805    -0.906643747716     1.127662925304     1.007825032230
         H           -1.711919934805    -1.698214747716    -1.372584074696     1.007825032230
         H           -3.484172934805    -1.831913747716    -1.187255074696     1.007825032230
         H           -0.296136934805     2.715269252284    -0.528120074696     1.007825032230
         H           -2.846167934805     2.401833252284     0.505542925304     1.007825032230
         H            0.435699065195    -1.961346747716     0.565947925304     1.007825032230
         H           -2.432485934805    -3.796341747716    -0.546353074696     1.007825032230
         H            2.830500065195    -2.643307747716     0.070801925304     1.007825032230
         H            5.126568065195    -1.668770747716    -0.165534074696     1.007825032230
         H            5.321202065195    -0.017963747716    -0.571414074696     1.007825032230

  Basis Set: AUG-CC-PVTZ
    Blend: AUG-CC-PVTZ
  Basis Set: (AUG-CC-PVTZ AUX)
    Blend: AUG-CC-PVTZ-JKFIT
	 Reference Energy          =    -886.3676860361489389 [Eh]
	 Singles Energy            =      -0.0000000000000000 [Eh]
	 Same-Spin Energy          =      -0.9017952331903754 [Eh]
	 Opposite-Spin Energy      =      -2.7148380260261171 [Eh]
	 Correlation Energy        =      -3.6166332592164925 [Eh]
	 Total Energy              =    -889.9843192953654807 [Eh]

	 ================> DF-SCS-MP2 Energies <==================
	-----------------------------------------------------------
	 SCS Same-Spin Scale       =       0.3333333333333333 [-]
	 SCS Opposite-Spin Scale   =       1.2000000000000000 [-]
	 SCS Same-Spin Energy      =      -0.3005984110634584 [Eh]
	 SCS Opposite-Spin Energy  =      -3.2578056312313404 [Eh]
	 SCS Correlation Energy    =      -3.5584040422947987 [Eh]
	 SCS Total Energy          =    -889.9260900784437354 [Eh]
	-----------------------------------------------------------

  Dipole Moment: [D]
     X:     1.3725      Y:    -6.0391      Z:    -1.7125     Total:     6.4255

*** Psi4 exiting successfully. Buy a developer a beer!
