                               Psi4 1.3.2 release

  ==> Input File <==

--------------------------------------------------------------------------
#psi4
#
memory 32 gb

molecule  {
0 1
  O       -1.2481010    -0.6526680     1.0325150
  O       -1.2449750     2.4828510    -0.6861630
  O       -3.2165300     1.5210990     0.7448870
  O       -2.3570290    -3.0668370     0.0949400
  O        1.3605300     2.2470340    -0.0765420
  N        0.8434040     0.0452230     0.2559430
  N        3.0142865     0.7079878    -0.2826353
  N        4.7164630    -0.8366550    -0.5722980
  C       -1.2894840     1.0784300    -0.5920770
  C       -2.7151710     0.6552070    -0.2573930
  C       -0.5254080     0.4815200     0.6000940
  C       -2.5292560    -0.7168860     0.3610560
  C       -2.5283440    -1.8503930    -0.6392900
  C        1.2197750    -1.2614080     0.3112740
  C        1.7555940     1.0674350    -0.0594030
  C        2.4748516    -1.5755889     0.0523005
  C        3.4119830    -0.5506530    -0.2589250
  H       -0.9376060     0.5914040    -1.5148910
  H       -3.3625820     0.6426650    -1.1464650
  H       -0.4402900     1.2218800     1.4039980
  H       -3.2819570    -0.9087340     1.1307830
  H       -1.7133080    -1.7003050    -1.3694640
  H       -3.4855610    -1.8340040    -1.1841350
  H       -0.2975250     2.7131790    -0.5250000
  H       -2.8475560     2.3997430     0.5086630
  H        0.4343110    -1.9634370     0.5690680
  H       -2.4338740    -3.7984320    -0.5432330
  H        2.8291120    -2.6453980     0.0739220
  H        5.1251800    -1.6708610    -0.1624140
  H        5.3198140    -0.0200540    -0.5682940
units angstrom
no_reorient  #important for SAPT in psi4, default
symmetry c1  #important for SAPT in psi4, default
}

set PROPERTIES_ORIGIN ["COM"]
properties('MP2/aug-cc-pvtz', properties = ['dipole'])
--------------------------------------------------------------------------

    Molecular point group: c1
  Charge       = 0
  Multiplicity = 1
  Basis Set: AUG-CC-PVTZ
    Blend: AUG-CC-PVTZ
  Basis Set: (AUG-CC-PVTZ AUX)
    Blend: AUG-CC-PVTZ-JKFIT

    Orbital Energies [Eh]
    ---------------------

    Doubly Occupied:

       1A    -20.581221     2A    -20.579357     3A    -20.556226
       4A    -20.555052     5A    -20.516510     6A    -15.630628
       7A    -15.607242     8A    -15.549135     9A    -11.382305
      10A    -11.363454    11A    -11.338252    12A    -11.319862
      13A    -11.299958    14A    -11.295290    15A    -11.294400
      16A    -11.291230    17A    -11.247757    18A     -1.427363
      19A     -1.395854    20A     -1.378513    21A     -1.371373
      22A     -1.344590    23A     -1.308157    24A     -1.273153
      25A     -1.191559    26A     -1.088772    27A     -1.066000
      28A     -1.020133    29A     -0.936566    30A     -0.905780
      31A     -0.882911    32A     -0.832000    33A     -0.810771
      34A     -0.772055    35A     -0.750667    36A     -0.733866
      37A     -0.724039    38A     -0.702234    39A     -0.696705
      40A     -0.688473    41A     -0.671484    42A     -0.654968
      43A     -0.646506    44A     -0.635338    45A     -0.624784
      46A     -0.614453    47A     -0.608452    48A     -0.588595
      49A     -0.574875    50A     -0.568977    51A     -0.552819
      52A     -0.544373    53A     -0.535961    54A     -0.530951
      55A     -0.498924    56A     -0.476177    57A     -0.472894
      58A     -0.460069    59A     -0.454941    60A     -0.450907
      61A     -0.439236    62A     -0.429442    63A     -0.397431
      64A     -0.353265

  @DF-RHF Final Energy:  -886.36992396557957

   => Energetics <=

    Nuclear Repulsion Energy =           1326.1628899798763541
    One-Electron Energy =               -3850.0751517289963886
    Two-Electron Energy =                1637.5423377835406882
    Total Energy =                       -886.3699239655795736
  Basis Set: (AUG-CC-PVTZ AUX)
    Blend: AUG-CC-PVTZ-RI
    Molecular point group: c1

    Geometry (in Angstrom), charge = 0, multiplicity = 1:

       Center              X                  Y                   Z               Mass
    ------------   -----------------  -----------------  -----------------  -----------------
         O           -1.243838016567    -0.653603306484     1.031614156227    15.994914619570
         O           -1.240712016567     2.481915693516    -0.687063843773    15.994914619570
         O           -3.212267016567     1.520163693516     0.743986156227    15.994914619570
         O           -2.352766016567    -3.067772306484     0.094039156227    15.994914619570
         O            1.364792983433     2.246098693516    -0.077442843773    15.994914619570
         N            0.847666983433     0.044287693516     0.255042156227    14.003074004430
         N            3.018549483433     0.707052493516    -0.283536143773    14.003074004430
         N            4.720725983433    -0.837590306484    -0.573198843773    14.003074004430
         C           -1.285221016567     1.077494693516    -0.592977843773    12.000000000000
         C           -2.710908016567     0.654271693516    -0.258293843773    12.000000000000
         C           -0.521145016567     0.480584693516     0.599193156227    12.000000000000
         C           -2.524993016567    -0.717821306484     0.360155156227    12.000000000000
         C           -2.524081016567    -1.851328306484    -0.640190843773    12.000000000000
         C            1.224037983433    -1.262343306484     0.310373156227    12.000000000000
         C            1.759856983433     1.066499693516    -0.060303843773    12.000000000000
         C            2.479114583433    -1.576524206484     0.051399656227    12.000000000000
         C            3.416245983433    -0.551588306484    -0.259825843773    12.000000000000
         H           -0.933343016567     0.590468693516    -1.515791843773     1.007825032230
         H           -3.358319016567     0.641729693516    -1.147365843773     1.007825032230
         H           -0.436027016567     1.220944693516     1.403097156227     1.007825032230
         H           -3.277694016567    -0.909669306484     1.129882156227     1.007825032230
         H           -1.709045016567    -1.701240306484    -1.370364843773     1.007825032230
         H           -3.481298016567    -1.834939306484    -1.185035843773     1.007825032230
         H           -0.293262016567     2.712243693516    -0.525900843773     1.007825032230
         H           -2.843293016567     2.398807693516     0.507762156227     1.007825032230
         H            0.438573983433    -1.964372306484     0.568167156227     1.007825032230
         H           -2.429611016567    -3.799367306484    -0.544133843773     1.007825032230
         H            2.833374983433    -2.646333306484     0.073021156227     1.007825032230
         H            5.129442983433    -1.671796306484    -0.163314843773     1.007825032230
         H            5.324076983433    -0.020989306484    -0.569194843773     1.007825032230

  Basis Set: AUG-CC-PVTZ
    Blend: AUG-CC-PVTZ
  Basis Set: (AUG-CC-PVTZ AUX)
    Blend: AUG-CC-PVTZ-JKFIT
	 Reference Energy          =    -886.3699239655795736 [Eh]
	 Singles Energy            =      -0.0000000000000000 [Eh]
	 Same-Spin Energy          =      -0.9013132983844880 [Eh]
	 Opposite-Spin Energy      =      -2.7140472859295173 [Eh]
	 Correlation Energy        =      -3.6153605843140051 [Eh]
	 Total Energy              =    -889.9852845498935494 [Eh]

	 ================> DF-SCS-MP2 Energies <==================
	-----------------------------------------------------------
	 SCS Same-Spin Scale       =       0.3333333333333333 [-]
	 SCS Opposite-Spin Scale   =       1.2000000000000000 [-]
	 SCS Same-Spin Energy      =      -0.3004377661281626 [Eh]
	 SCS Opposite-Spin Energy  =      -3.2568567431154207 [Eh]
	 SCS Correlation Energy    =      -3.5572945092435835 [Eh]
	 SCS Total Energy          =    -889.9272184748231211 [Eh]
	-----------------------------------------------------------

  Dipole Moment: [D]
     X:     2.0491      Y:    -6.0471      Z:    -1.8718     Total:     6.6536

*** Psi4 exiting successfully. Buy a developer a beer!
