                               Psi4 1.3.2 release

  ==> Input File <==

--------------------------------------------------------------------------
#psi4
#
memory 32 gb

molecule  {
0 1
  O       -1.2481010    -0.6526680     1.0325150
  O       -1.2449750     2.4828510    -0.6861630
  O       -3.2165300     1.5210990     0.7448870
  O       -2.3570290    -3.0668370     0.0949400
  O        1.3605300     2.2470340    -0.0765420
  N        0.8434040     0.0452230     0.2559430
  N        3.0572260     0.7205030    -0.2937270
  N        4.7164630    -0.8366550    -0.5722980
  C       -1.2894840     1.0784300    -0.5920770
  C       -2.6525562     0.6404258    -0.3039136
  C       -0.5254080     0.4815200     0.6000940
  C       -2.5292560    -0.7168860     0.3610560
  C       -2.5283440    -1.8503930    -0.6392900
  C        1.2197750    -1.2614080     0.3112740
  C        1.7555940     1.0674350    -0.0594030
  C        2.5111010    -1.6091400     0.0469950
  C        3.4119830    -0.5506530    -0.2589250
  H       -0.9376060     0.5914040    -1.5148910
  H       -3.3625820     0.6426650    -1.1464650
  H       -0.4402900     1.2218800     1.4039980
  H       -3.2581313    -0.9601161     1.1391460
  H       -1.7133080    -1.7003050    -1.3694640
  H       -3.4855610    -1.8340040    -1.1841350
  H       -0.2975250     2.7131790    -0.5250000
  H       -2.8475560     2.3997430     0.5086630
  H        0.4343110    -1.9634370     0.5690680
  H       -2.4338740    -3.7984320    -0.5432330
  H        2.8291120    -2.6453980     0.0739220
  H        5.1251800    -1.6708610    -0.1624140
  H        5.3198140    -0.0200540    -0.5682940
units angstrom
no_reorient  #important for SAPT in psi4, default
symmetry c1  #important for SAPT in psi4, default
}

set PROPERTIES_ORIGIN ["COM"]
properties('MP2/aug-cc-pvtz', properties = ['dipole'])
--------------------------------------------------------------------------

    Molecular point group: c1
  Charge       = 0
  Multiplicity = 1
  Basis Set: AUG-CC-PVTZ
    Blend: AUG-CC-PVTZ
  Basis Set: (AUG-CC-PVTZ AUX)
    Blend: AUG-CC-PVTZ-JKFIT

    Orbital Energies [Eh]
    ---------------------

    Doubly Occupied:

       1A    -20.582997     2A    -20.581754     3A    -20.558531
       4A    -20.552288     5A    -20.522634     6A    -15.637592
       7A    -15.600302     8A    -15.553874     9A    -11.388879
      10A    -11.358393    11A    -11.343044    12A    -11.329131
      13A    -11.301047    14A    -11.299277    15A    -11.296913
      16A    -11.293872    17A    -11.249142    18A     -1.430133
      19A     -1.396817    20A     -1.377448    21A     -1.372367
      22A     -1.330118    23A     -1.306654    24A     -1.274390
      25A     -1.182790    26A     -1.083467    27A     -1.075924
      28A     -1.028107    29A     -0.938384    30A     -0.909975
      31A     -0.876324    32A     -0.833225    33A     -0.812749
      34A     -0.767605    35A     -0.754284    36A     -0.739283
      37A     -0.721369    38A     -0.702288    39A     -0.693810
      40A     -0.686093    41A     -0.665889    42A     -0.655450
      43A     -0.651870    44A     -0.638479    45A     -0.621530
      46A     -0.615039    47A     -0.605158    48A     -0.594351
      49A     -0.574251    50A     -0.569365    51A     -0.552238
      52A     -0.541189    53A     -0.532784    54A     -0.530686
      55A     -0.501337    56A     -0.485226    57A     -0.477360
      58A     -0.462706    59A     -0.460315    60A     -0.454156
      61A     -0.442065    62A     -0.433432    63A     -0.395912
      64A     -0.350848

  @DF-RHF Final Energy:  -886.36498028484141

   => Energetics <=

    Nuclear Repulsion Energy =           1324.4442335268345232
    One-Electron Energy =               -3846.5086133276413420
    Two-Electron Energy =                1635.6993995159652968
    Total Energy =                       -886.3649802848415220
  Basis Set: (AUG-CC-PVTZ AUX)
    Blend: AUG-CC-PVTZ-RI
    Molecular point group: c1

    Geometry (in Angstrom), charge = 0, multiplicity = 1:

       Center              X                  Y                   Z               Mass
    ------------   -----------------  -----------------  -----------------  -----------------
         O           -1.251290815603    -0.651725282266     1.034776840099    15.994914619570
         O           -1.248164815603     2.483793717734    -0.683901159901    15.994914619570
         O           -3.219719815603     1.522041717734     0.747148840099    15.994914619570
         O           -2.360218815603    -3.065894282266     0.097201840099    15.994914619570
         O            1.357340184397     2.247976717734    -0.074280159901    15.994914619570
         N            0.840214184397     0.046165717734     0.258204840099    14.003074004430
         N            3.054036184397     0.721445717734    -0.291465159901    14.003074004430
         N            4.713273184397    -0.835712282266    -0.570036159901    14.003074004430
         C           -1.292673815603     1.079372717734    -0.589815159901    12.000000000000
         C           -2.655746015603     0.641368517734    -0.301651759901    12.000000000000
         C           -0.528597815603     0.482462717734     0.602355840099    12.000000000000
         C           -2.532445815603    -0.715943282266     0.363317840099    12.000000000000
         C           -2.531533815603    -1.849450282266    -0.637028159901    12.000000000000
         C            1.216585184397    -1.260465282266     0.313535840099    12.000000000000
         C            1.752404184397     1.068377717734    -0.057141159901    12.000000000000
         C            2.507911184397    -1.608197282266     0.049256840099    12.000000000000
         C            3.408793184397    -0.549710282266    -0.256663159901    12.000000000000
         H           -0.940795815603     0.592346717734    -1.512629159901     1.007825032230
         H           -3.365771815603     0.643607717734    -1.144203159901     1.007825032230
         H           -0.443479815603     1.222822717734     1.406259840099     1.007825032230
         H           -3.261321115603    -0.959173382266     1.141407840099     1.007825032230
         H           -1.716497815603    -1.699362282266    -1.367202159901     1.007825032230
         H           -3.488750815603    -1.833061282266    -1.181873159901     1.007825032230
         H           -0.300714815603     2.714121717734    -0.522738159901     1.007825032230
         H           -2.850745815603     2.400685717734     0.510924840099     1.007825032230
         H            0.431121184397    -1.962494282266     0.571329840099     1.007825032230
         H           -2.437063815603    -3.797489282266    -0.540971159901     1.007825032230
         H            2.825922184397    -2.644455282266     0.076183840099     1.007825032230
         H            5.121990184397    -1.669918282266    -0.160152159901     1.007825032230
         H            5.316624184397    -0.019111282266    -0.566032159901     1.007825032230

  Basis Set: AUG-CC-PVTZ
    Blend: AUG-CC-PVTZ
  Basis Set: (AUG-CC-PVTZ AUX)
    Blend: AUG-CC-PVTZ-JKFIT
	 Reference Energy          =    -886.3649802848414083 [Eh]
	 Singles Energy            =      -0.0000000000000000 [Eh]
	 Same-Spin Energy          =      -0.9018013089125714 [Eh]
	 Opposite-Spin Energy      =      -2.7165795262920960 [Eh]
	 Correlation Energy        =      -3.6183808352046674 [Eh]
	 Total Energy              =    -889.9833611200460837 [Eh]

	 ================> DF-SCS-MP2 Energies <==================
	-----------------------------------------------------------
	 SCS Same-Spin Scale       =       0.3333333333333333 [-]
	 SCS Opposite-Spin Scale   =       1.2000000000000000 [-]
	 SCS Same-Spin Energy      =      -0.3006004363041904 [Eh]
	 SCS Opposite-Spin Energy  =      -3.2598954315505151 [Eh]
	 SCS Correlation Energy    =      -3.5604958678547054 [Eh]
	 SCS Total Energy          =    -889.9254761526960920 [Eh]
	-----------------------------------------------------------

  Dipole Moment: [D]
     X:     1.8435      Y:    -6.0981      Z:    -1.9151     Total:     6.6522

*** Psi4 exiting successfully. Buy a developer a beer!
