                               Psi4 1.3.2 release

  ==> Input File <==

--------------------------------------------------------------------------
#psi4
#
memory 32 gb

molecule  {
0 1
  O       -1.2481010    -0.6526680     1.0325150
  O       -1.2449750     2.4828510    -0.6861630
  O       -3.2165300     1.5210990     0.7448870
  O       -2.3570290    -3.0668370     0.0949400
  O        1.3605300     2.2470340    -0.0765420
  N        0.8255695     0.0619806     0.2577199
  N        3.0624364     0.7434709    -0.2975741
  N        4.7164630    -0.8366550    -0.5722980
  C       -1.2894840     1.0784300    -0.5920770
  C       -2.7151710     0.6552070    -0.2573930
  C       -0.5254080     0.4815200     0.6000940
  C       -2.5292560    -0.7168860     0.3610560
  C       -2.5283440    -1.8503930    -0.6392900
  C        1.2197750    -1.2614080     0.3112740
  C        1.7555940     1.0674350    -0.0594030
  C        2.5111010    -1.6091400     0.0469950
  C        3.4119830    -0.5506530    -0.2589250
  H       -0.9376060     0.5914040    -1.5148910
  H       -3.3625820     0.6426650    -1.1464650
  H       -0.4402900     1.2218800     1.4039980
  H       -3.2819570    -0.9087340     1.1307830
  H       -1.7133080    -1.7003050    -1.3694640
  H       -3.4855610    -1.8340040    -1.1841350
  H       -0.2975250     2.7131790    -0.5250000
  H       -2.8475560     2.3997430     0.5086630
  H        0.4343110    -1.9634370     0.5690680
  H       -2.4338740    -3.7984320    -0.5432330
  H        2.8291120    -2.6453980     0.0739220
  H        5.1251800    -1.6708610    -0.1624140
  H        5.3198140    -0.0200540    -0.5682940
units angstrom
no_reorient  #important for SAPT in psi4, default
symmetry c1  #important for SAPT in psi4, default
}

set PROPERTIES_ORIGIN ["COM"]
properties('MP2/aug-cc-pvtz', properties = ['dipole'])
--------------------------------------------------------------------------

    Molecular point group: c1
  Charge       = 0
  Multiplicity = 1
  Basis Set: AUG-CC-PVTZ
    Blend: AUG-CC-PVTZ
  Basis Set: (AUG-CC-PVTZ AUX)
    Blend: AUG-CC-PVTZ-JKFIT

    Orbital Energies [Eh]
    ---------------------

    Doubly Occupied:

       1A    -20.582077     2A    -20.580909     3A    -20.556876
       4A    -20.555870     5A    -20.518228     6A    -15.636763
       7A    -15.603063     8A    -15.556569     9A    -11.385908
      10A    -11.362497    11A    -11.339024    12A    -11.332285
      13A    -11.300846    14A    -11.296335    15A    -11.295073
      16A    -11.291940    17A    -11.252343    18A     -1.429037
      19A     -1.394625    20A     -1.379215    21A     -1.372395
      22A     -1.345152    23A     -1.302042    24A     -1.272495
      25A     -1.181026    26A     -1.084209    27A     -1.067023
      28A     -1.020585    29A     -0.935892    30A     -0.908495
      31A     -0.874450    32A     -0.832468    33A     -0.811381
      34A     -0.767653    35A     -0.751031    36A     -0.735495
      37A     -0.720690    38A     -0.703033    39A     -0.697814
      40A     -0.685993    41A     -0.672995    42A     -0.653256
      43A     -0.651180    44A     -0.637746    45A     -0.620374
      46A     -0.614175    47A     -0.606279    48A     -0.591812
      49A     -0.575309    50A     -0.569246    51A     -0.553593
      52A     -0.545524    53A     -0.536709    54A     -0.531356
      55A     -0.495478    56A     -0.476896    57A     -0.473370
      58A     -0.461106    59A     -0.458356    60A     -0.451840
      61A     -0.441426    62A     -0.434769    63A     -0.393437
      64A     -0.351807

  @DF-RHF Final Energy:  -886.37105373931774

   => Energetics <=

    Nuclear Repulsion Energy =           1323.2856422810277763
    One-Electron Energy =               -3844.2797072896210011
    Two-Electron Energy =                1634.6230112692753664
    Total Energy =                       -886.3710537393178583
  Basis Set: (AUG-CC-PVTZ AUX)
    Blend: AUG-CC-PVTZ-RI
    Molecular point group: c1

    Geometry (in Angstrom), charge = 0, multiplicity = 1:

       Center              X                  Y                   Z               Mass
    ------------   -----------------  -----------------  -----------------  -----------------
         O           -1.247373815770    -0.654956398958     1.032634262481    15.994914619570
         O           -1.244247815770     2.480562601042    -0.686043737519    15.994914619570
         O           -3.215802815770     1.518810601042     0.745006262481    15.994914619570
         O           -2.356301815770    -3.069125398958     0.095059262481    15.994914619570
         O            1.361257184230     2.244745601042    -0.076422737519    15.994914619570
         N            0.826296684230     0.059692201042     0.257839162481    14.003074004430
         N            3.063163584230     0.741182501042    -0.297454837519    14.003074004430
         N            4.717190184230    -0.838943398958    -0.572178737519    14.003074004430
         C           -1.288756815770     1.076141601042    -0.591957737519    12.000000000000
         C           -2.714443815770     0.652918601042    -0.257273737519    12.000000000000
         C           -0.524680815770     0.479231601042     0.600213262481    12.000000000000
         C           -2.528528815770    -0.719174398958     0.361175262481    12.000000000000
         C           -2.527616815770    -1.852681398958    -0.639170737519    12.000000000000
         C            1.220502184230    -1.263696398958     0.311393262481    12.000000000000
         C            1.756321184230     1.065146601042    -0.059283737519    12.000000000000
         C            2.511828184230    -1.611428398958     0.047114262481    12.000000000000
         C            3.412710184230    -0.552941398958    -0.258805737519    12.000000000000
         H           -0.936878815770     0.589115601042    -1.514771737519     1.007825032230
         H           -3.361854815770     0.640376601042    -1.146345737519     1.007825032230
         H           -0.439562815770     1.219591601042     1.404117262481     1.007825032230
         H           -3.281229815770    -0.911022398958     1.130902262481     1.007825032230
         H           -1.712580815770    -1.702593398958    -1.369344737519     1.007825032230
         H           -3.484833815770    -1.836292398958    -1.184015737519     1.007825032230
         H           -0.296797815770     2.710890601042    -0.524880737519     1.007825032230
         H           -2.846828815770     2.397454601042     0.508782262481     1.007825032230
         H            0.435038184230    -1.965725398958     0.569187262481     1.007825032230
         H           -2.433146815770    -3.800720398958    -0.543113737519     1.007825032230
         H            2.829839184230    -2.647686398958     0.074041262481     1.007825032230
         H            5.125907184230    -1.673149398958    -0.162294737519     1.007825032230
         H            5.320541184230    -0.022342398958    -0.568174737519     1.007825032230

  Basis Set: AUG-CC-PVTZ
    Blend: AUG-CC-PVTZ
  Basis Set: (AUG-CC-PVTZ AUX)
    Blend: AUG-CC-PVTZ-JKFIT
	 Reference Energy          =    -886.3710537393177447 [Eh]
	 Singles Energy            =      -0.0000000000000000 [Eh]
	 Same-Spin Energy          =      -0.9012696095562192 [Eh]
	 Opposite-Spin Energy      =      -2.7154700404881269 [Eh]
	 Correlation Energy        =      -3.6167396500443463 [Eh]
	 Total Energy              =    -889.9877933893620821 [Eh]

	 ================> DF-SCS-MP2 Energies <==================
	-----------------------------------------------------------
	 SCS Same-Spin Scale       =       0.3333333333333333 [-]
	 SCS Opposite-Spin Scale   =       1.2000000000000000 [-]
	 SCS Same-Spin Energy      =      -0.3004232031854064 [Eh]
	 SCS Opposite-Spin Energy  =      -3.2585640485857521 [Eh]
	 SCS Correlation Energy    =      -3.5589872517711587 [Eh]
	 SCS Total Energy          =    -889.9300409910889584 [Eh]
	-----------------------------------------------------------

  Dipole Moment: [D]
     X:     1.8735      Y:    -6.0977      Z:    -1.8355     Total:     6.6379

*** Psi4 exiting successfully. Buy a developer a beer!
