                               Psi4 1.3.2 release

  ==> Input File <==

--------------------------------------------------------------------------
#psi4
#
memory 32 gb

molecule  {
0 1
  O       -1.2481010    -0.6526680     1.0325150
  O       -1.2449750     2.4828510    -0.6861630
  O       -3.2165300     1.5210990     0.7448870
  O       -2.3570290    -3.0668370     0.0949400
  O        1.3605300     2.2470340    -0.0765420
  N        0.8434040     0.0452230     0.2559430
  N        3.0572260     0.7205030    -0.2937270
  N        4.7164630    -0.8366550    -0.5722980
  C       -1.2894840     1.0784300    -0.5920770
  C       -2.7151710     0.6552070    -0.2573930
  C       -0.5254080     0.4815200     0.6000940
  C       -2.5292560    -0.7168860     0.3610560
  C       -2.5253408    -1.8374574    -0.6181347
  C        1.2197750    -1.2614080     0.3112740
  C        1.7555940     1.0674350    -0.0594030
  C        2.5111010    -1.6091400     0.0469950
  C        3.4119830    -0.5506530    -0.2589250
  H       -0.9376060     0.5914040    -1.5148910
  H       -3.3625820     0.6426650    -1.1464650
  H       -0.4402900     1.2218800     1.4039980
  H       -3.2819570    -0.9087340     1.1307830
  H       -1.7133080    -1.7003050    -1.3694640
  H       -3.4855610    -1.8340040    -1.1841350
  H       -0.2975250     2.7131790    -0.5250000
  H       -2.8475560     2.3997430     0.5086630
  H        0.4343110    -1.9634370     0.5690680
  H       -2.4313236    -3.8095184    -0.5306045
  H        2.8291120    -2.6453980     0.0739220
  H        5.1251800    -1.6708610    -0.1624140
  H        5.3198140    -0.0200540    -0.5682940
units angstrom
no_reorient  #important for SAPT in psi4, default
symmetry c1  #important for SAPT in psi4, default
}

set PROPERTIES_ORIGIN ["COM"]
properties('MP2/aug-cc-pvtz', properties = ['dipole'])
--------------------------------------------------------------------------

    Molecular point group: c1
  Charge       = 0
  Multiplicity = 1
  Basis Set: AUG-CC-PVTZ
    Blend: AUG-CC-PVTZ
  Basis Set: (AUG-CC-PVTZ AUX)
    Blend: AUG-CC-PVTZ-JKFIT

    Orbital Energies [Eh]
    ---------------------

    Doubly Occupied:

       1A    -20.581581     2A    -20.581112     3A    -20.558171
       4A    -20.557361     5A    -20.522018     6A    -15.636953
       7A    -15.599855     8A    -15.553350     9A    -11.388286
      10A    -11.357863    11A    -11.341670    12A    -11.328527
      13A    -11.302328    14A    -11.296788    15A    -11.296317
      16A    -11.293639    17A    -11.248550    18A     -1.429773
      19A     -1.396515    20A     -1.380092    21A     -1.371823
      22A     -1.346560    23A     -1.306090    24A     -1.273858
      25A     -1.182281    26A     -1.082197    27A     -1.070565
      28A     -1.022793    29A     -0.935724    30A     -0.909293
      31A     -0.877052    32A     -0.832586    33A     -0.811836
      34A     -0.766955    35A     -0.752415    36A     -0.736758
      37A     -0.720348    38A     -0.704548    39A     -0.698361
      40A     -0.685592    41A     -0.672982    42A     -0.653960
      43A     -0.651133    44A     -0.638679    45A     -0.619957
      46A     -0.615654    47A     -0.607103    48A     -0.593929
      49A     -0.575607    50A     -0.568956    51A     -0.553432
      52A     -0.546314    53A     -0.537596    54A     -0.531725
      55A     -0.498066    56A     -0.476190    57A     -0.473601
      58A     -0.463681    59A     -0.460004    60A     -0.452743
      61A     -0.440963    62A     -0.433364    63A     -0.395229
      64A     -0.350024

  @DF-RHF Final Energy:  -886.37275808484299

   => Energetics <=

    Nuclear Repulsion Energy =           1324.1690914596588300
    One-Electron Energy =               -3845.9851428993069931
    Two-Electron Energy =                1635.4432933548052915
    Total Energy =                       -886.3727580848428715
  Basis Set: (AUG-CC-PVTZ AUX)
    Blend: AUG-CC-PVTZ-RI
    Molecular point group: c1

    Geometry (in Angstrom), charge = 0, multiplicity = 1:

       Center              X                  Y                   Z               Mass
    ------------   -----------------  -----------------  -----------------  -----------------
         O           -1.248259861813    -0.653260596316     1.031418311479    15.994914619570
         O           -1.245133861813     2.482258403684    -0.687259688521    15.994914619570
         O           -3.216688861813     1.520506403684     0.743790311479    15.994914619570
         O           -2.357187861813    -3.067429596316     0.093843311479    15.994914619570
         O            1.360371138187     2.246441403684    -0.077638688521    15.994914619570
         N            0.843245138187     0.044630403684     0.254846311479    14.003074004430
         N            3.057067138187     0.719910403684    -0.294823688521    14.003074004430
         N            4.716304138187    -0.837247596316    -0.573394688521    14.003074004430
         C           -1.289642861813     1.077837403684    -0.593173688521    12.000000000000
         C           -2.715329861813     0.654614403684    -0.258489688521    12.000000000000
         C           -0.525566861813     0.480927403684     0.598997311479    12.000000000000
         C           -2.529414861813    -0.717478596316     0.359959311479    12.000000000000
         C           -2.525499661813    -1.838049996316    -0.619231388521    12.000000000000
         C            1.219616138187    -1.262000596316     0.310177311479    12.000000000000
         C            1.755435138187     1.066842403684    -0.060499688521    12.000000000000
         C            2.510942138187    -1.609732596316     0.045898311479    12.000000000000
         C            3.411824138187    -0.551245596316    -0.260021688521    12.000000000000
         H           -0.937764861813     0.590811403684    -1.515987688521     1.007825032230
         H           -3.362740861813     0.642072403684    -1.147561688521     1.007825032230
         H           -0.440448861813     1.221287403684     1.402901311479     1.007825032230
         H           -3.282115861813    -0.909326596316     1.129686311479     1.007825032230
         H           -1.713466861813    -1.700897596316    -1.370560688521     1.007825032230
         H           -3.485719861813    -1.834596596316    -1.185231688521     1.007825032230
         H           -0.297683861813     2.712586403684    -0.526096688521     1.007825032230
         H           -2.847714861813     2.399150403684     0.507566311479     1.007825032230
         H            0.434152138187    -1.964029596316     0.567971311479     1.007825032230
         H           -2.431482461813    -3.810110996316    -0.531701188521     1.007825032230
         H            2.828953138187    -2.645990596316     0.072825311479     1.007825032230
         H            5.125021138187    -1.671453596316    -0.163510688521     1.007825032230
         H            5.319655138187    -0.020646596316    -0.569390688521     1.007825032230

  Basis Set: AUG-CC-PVTZ
    Blend: AUG-CC-PVTZ
  Basis Set: (AUG-CC-PVTZ AUX)
    Blend: AUG-CC-PVTZ-JKFIT
	 Reference Energy          =    -886.3727580848429852 [Eh]
	 Singles Energy            =      -0.0000000000000000 [Eh]
	 Same-Spin Energy          =      -0.9013306455593637 [Eh]
	 Opposite-Spin Energy      =      -2.7148928397345289 [Eh]
	 Correlation Energy        =      -3.6162234852938928 [Eh]
	 Total Energy              =    -889.9889815701368434 [Eh]

	 ================> DF-SCS-MP2 Energies <==================
	-----------------------------------------------------------
	 SCS Same-Spin Scale       =       0.3333333333333333 [-]
	 SCS Opposite-Spin Scale   =       1.2000000000000000 [-]
	 SCS Same-Spin Energy      =      -0.3004435485197879 [Eh]
	 SCS Opposite-Spin Energy  =      -3.2578714076814346 [Eh]
	 SCS Correlation Energy    =      -3.5583149562012224 [Eh]
	 SCS Total Energy          =    -889.9310730410442147 [Eh]
	-----------------------------------------------------------

  Dipole Moment: [D]
     X:     1.7129      Y:    -5.9484      Z:    -1.8018     Total:     6.4470

*** Psi4 exiting successfully. Buy a developer a beer!
