                               Psi4 1.3.2 release

  ==> Input File <==

--------------------------------------------------------------------------
#psi4
#
memory 32 gb

molecule  {
0 1
  O       -1.2421054    -0.6724795     0.9877606
  O       -1.2449750     2.4828510    -0.6861630
  O       -3.2165300     1.5210990     0.7448870
  O       -2.3570290    -3.0668370     0.0949400
  O        1.3605300     2.2470340    -0.0765420
  N        0.8434040     0.0452230     0.2559430
  N        3.0572260     0.7205030    -0.2937270
  N        4.7164630    -0.8366550    -0.5722980
  C       -1.2894840     1.0784300    -0.5920770
  C       -2.7151710     0.6552070    -0.2573930
  C       -0.5254080     0.4815200     0.6000940
  C       -2.5292560    -0.7168860     0.3610560
  C       -2.5283440    -1.8503930    -0.6392900
  C        1.2197750    -1.2614080     0.3112740
  C        1.7555940     1.0674350    -0.0594030
  C        2.5111010    -1.6091400     0.0469950
  C        3.4119830    -0.5506530    -0.2589250
  H       -0.9376060     0.5914040    -1.5148910
  H       -3.3625820     0.6426650    -1.1464650
  H       -0.4205229     1.2444267     1.3802299
  H       -3.2819570    -0.9087340     1.1307830
  H       -1.7133080    -1.7003050    -1.3694640
  H       -3.4855610    -1.8340040    -1.1841350
  H       -0.2975250     2.7131790    -0.5250000
  H       -2.8475560     2.3997430     0.5086630
  H        0.4343110    -1.9634370     0.5690680
  H       -2.4338740    -3.7984320    -0.5432330
  H        2.8291120    -2.6453980     0.0739220
  H        5.1251800    -1.6708610    -0.1624140
  H        5.3198140    -0.0200540    -0.5682940
units angstrom
no_reorient  #important for SAPT in psi4, default
symmetry c1  #important for SAPT in psi4, default
}

set PROPERTIES_ORIGIN ["COM"]
properties('MP2/aug-cc-pvtz', properties = ['dipole'])
--------------------------------------------------------------------------

    Molecular point group: c1
  Charge       = 0
  Multiplicity = 1
  Basis Set: AUG-CC-PVTZ
    Blend: AUG-CC-PVTZ
  Basis Set: (AUG-CC-PVTZ AUX)
    Blend: AUG-CC-PVTZ-JKFIT

    Orbital Energies [Eh]
    ---------------------

    Doubly Occupied:

       1A    -20.582550     2A    -20.581543     3A    -20.557943
       4A    -20.557130     5A    -20.522294     6A    -15.636796
       7A    -15.599763     8A    -15.553298     9A    -11.388316
      10A    -11.357740    11A    -11.343120    12A    -11.328067
      13A    -11.299579    14A    -11.295964    15A    -11.295909
      16A    -11.292562    17A    -11.248305    18A     -1.433282
      19A     -1.397402    20A     -1.380411    21A     -1.372630
      22A     -1.346427    23A     -1.306187    24A     -1.274050
      25A     -1.182334    26A     -1.082345    27A     -1.066466
      28A     -1.022663    29A     -0.935253    30A     -0.909696
      31A     -0.877126    32A     -0.833318    33A     -0.812288
      34A     -0.766462    35A     -0.752855    36A     -0.736848
      37A     -0.720188    38A     -0.702672    39A     -0.698569
      40A     -0.686748    41A     -0.672330    42A     -0.656871
      43A     -0.651165    44A     -0.639150    45A     -0.620329
      46A     -0.614608    47A     -0.607216    48A     -0.593613
      49A     -0.575670    50A     -0.573342    51A     -0.553728
      52A     -0.544644    53A     -0.538293    54A     -0.532007
      55A     -0.498038    56A     -0.476961    57A     -0.473630
      58A     -0.462375    59A     -0.460101    60A     -0.452737
      61A     -0.440127    62A     -0.432913    63A     -0.395083
      64A     -0.349917

  @DF-RHF Final Energy:  -886.37287169679064

   => Energetics <=

    Nuclear Repulsion Energy =           1324.6297422519478459
    One-Electron Energy =               -3846.9013309294714418
    Two-Electron Energy =                1635.8987169807328428
    Total Energy =                       -886.3728716967907530
  Basis Set: (AUG-CC-PVTZ AUX)
    Blend: AUG-CC-PVTZ-RI
    Molecular point group: c1

    Geometry (in Angstrom), charge = 0, multiplicity = 1:

       Center              X                  Y                   Z               Mass
    ------------   -----------------  -----------------  -----------------  -----------------
         O           -1.242581895422    -0.671269380260     0.990803968070    15.994914619570
         O           -1.245451495422     2.484061119740    -0.683119631930    15.994914619570
         O           -3.217006495422     1.522309119740     0.747930368070    15.994914619570
         O           -2.357505495422    -3.065626880260     0.097983368070    15.994914619570
         O            1.360053504578     2.248244119740    -0.073498631930    15.994914619570
         N            0.842927504578     0.046433119740     0.258986368070    14.003074004430
         N            3.056749504578     0.721713119740    -0.290683631930    14.003074004430
         N            4.715986504578    -0.835444880260    -0.569254631930    14.003074004430
         C           -1.289960495422     1.079640119740    -0.589033631930    12.000000000000
         C           -2.715647495422     0.656417119740    -0.254349631930    12.000000000000
         C           -0.525884495422     0.482730119740     0.603137368070    12.000000000000
         C           -2.529732495422    -0.715675880260     0.364099368070    12.000000000000
         C           -2.528820495422    -1.849182880260    -0.636246631930    12.000000000000
         C            1.219298504578    -1.260197880260     0.314317368070    12.000000000000
         C            1.755117504578     1.068645119740    -0.056359631930    12.000000000000
         C            2.510624504578    -1.607929880260     0.050038368070    12.000000000000
         C            3.411506504578    -0.549442880260    -0.255881631930    12.000000000000
         H           -0.938082495422     0.592614119740    -1.511847631930     1.007825032230
         H           -3.363058495422     0.643875119740    -1.143421631930     1.007825032230
         H           -0.420999395422     1.245636819740     1.383273268070     1.007825032230
         H           -3.282433495422    -0.907523880260     1.133826368070     1.007825032230
         H           -1.713784495422    -1.699094880260    -1.366420631930     1.007825032230
         H           -3.486037495422    -1.832793880260    -1.181091631930     1.007825032230
         H           -0.298001495422     2.714389119740    -0.521956631930     1.007825032230
         H           -2.848032495422     2.400953119740     0.511706368070     1.007825032230
         H            0.433834504578    -1.962226880260     0.572111368070     1.007825032230
         H           -2.434350495422    -3.797221880260    -0.540189631930     1.007825032230
         H            2.828635504578    -2.644187880260     0.076965368070     1.007825032230
         H            5.124703504578    -1.669650880260    -0.159370631930     1.007825032230
         H            5.319337504578    -0.018843880260    -0.565250631930     1.007825032230

  Basis Set: AUG-CC-PVTZ
    Blend: AUG-CC-PVTZ
  Basis Set: (AUG-CC-PVTZ AUX)
    Blend: AUG-CC-PVTZ-JKFIT
	 Reference Energy          =    -886.3728716967906394 [Eh]
	 Singles Energy            =      -0.0000000000000000 [Eh]
	 Same-Spin Energy          =      -0.9013355343598899 [Eh]
	 Opposite-Spin Energy      =      -2.7147033749303158 [Eh]
	 Correlation Energy        =      -3.6160389092902054 [Eh]
	 Total Energy              =    -889.9889106060808217 [Eh]

	 ================> DF-SCS-MP2 Energies <==================
	-----------------------------------------------------------
	 SCS Same-Spin Scale       =       0.3333333333333333 [-]
	 SCS Opposite-Spin Scale   =       1.2000000000000000 [-]
	 SCS Same-Spin Energy      =      -0.3004451781199633 [Eh]
	 SCS Opposite-Spin Energy  =      -3.2576440499163790 [Eh]
	 SCS Correlation Energy    =      -3.5580892280363425 [Eh]
	 SCS Total Energy          =    -889.9309609248269908 [Eh]
	-----------------------------------------------------------

  Dipole Moment: [D]
     X:     1.7257      Y:    -5.9093      Z:    -1.7467     Total:     6.3991

*** Psi4 exiting successfully. Buy a developer a beer!
