                               Psi4 1.3.2 release

  ==> Input File <==

--------------------------------------------------------------------------
#psi4
#
memory 32 gb

molecule  {
0 1
  O       -1.2481010    -0.6526680     1.0325150
  O       -1.2449750     2.4828510    -0.6861630
  O       -3.2165300     1.5210990     0.7448870
  O       -2.3570290    -3.0668370     0.0949400
  O        1.3605300     2.2470340    -0.0765420
  N        0.8434040     0.0452230     0.2559430
  N        3.0572260     0.7205030    -0.2937270
  N        4.7164630    -0.8366550    -0.5722980
  C       -1.2894840     1.0784300    -0.5920770
  C       -2.7151710     0.6552070    -0.2573930
  C       -0.5254080     0.4815200     0.6000940
  C       -2.5292560    -0.7168860     0.3610560
  C       -2.5283440    -1.8503930    -0.6392900
  C        1.2197750    -1.2614080     0.3112740
  C        1.7555940     1.0674350    -0.0594030
  C        2.5111010    -1.6091400     0.0469950
  C        3.4752816    -0.4762806    -0.2804198
  H       -0.9376060     0.5914040    -1.5148910
  H       -3.3625820     0.6426650    -1.1464650
  H       -0.4402900     1.2218800     1.4039980
  H       -3.2819570    -0.9087340     1.1307830
  H       -1.7133080    -1.7003050    -1.3694640
  H       -3.4855610    -1.8340040    -1.1841350
  H       -0.2975250     2.7131790    -0.5250000
  H       -2.8475560     2.3997430     0.5086630
  H        0.4343110    -1.9634370     0.5690680
  H       -2.4338740    -3.7984320    -0.5432330
  H        2.8291120    -2.6453980     0.0739220
  H        5.1251800    -1.6708610    -0.1624140
  H        5.3198140    -0.0200540    -0.5682940
units angstrom
no_reorient  #important for SAPT in psi4, default
symmetry c1  #important for SAPT in psi4, default
}

set PROPERTIES_ORIGIN ["COM"]
properties('MP2/aug-cc-pvtz', properties = ['dipole'])
--------------------------------------------------------------------------

    Molecular point group: c1
  Charge       = 0
  Multiplicity = 1
  Basis Set: AUG-CC-PVTZ
    Blend: AUG-CC-PVTZ
  Basis Set: (AUG-CC-PVTZ AUX)
    Blend: AUG-CC-PVTZ-JKFIT

    Orbital Energies [Eh]
    ---------------------

    Doubly Occupied:

       1A    -20.579894     2A    -20.578578     3A    -20.556422
       4A    -20.556234     5A    -20.526704     6A    -15.629104
       7A    -15.606761     8A    -15.551463     9A    -11.394121
      10A    -11.358689    11A    -11.338364    12A    -11.315786
      13A    -11.298870    14A    -11.294637    15A    -11.294432
      16A    -11.291039    17A    -11.248689    18A     -1.426974
      19A     -1.398119    20A     -1.378494    21A     -1.370598
      22A     -1.345246    23A     -1.317629    24A     -1.278846
      25A     -1.201415    26A     -1.067398    27A     -1.065515
      28A     -1.015031    29A     -0.933216    30A     -0.898124
      31A     -0.884699    32A     -0.831413    33A     -0.809321
      34A     -0.769013    35A     -0.749039    36A     -0.738188
      37A     -0.731968    38A     -0.702856    39A     -0.696666
      40A     -0.687897    41A     -0.671304    42A     -0.656375
      43A     -0.647890    44A     -0.635385    45A     -0.615592
      46A     -0.613099    47A     -0.600414    48A     -0.594706
      49A     -0.574691    50A     -0.570021    51A     -0.554462
      52A     -0.547433    53A     -0.537706    54A     -0.531601
      55A     -0.496051    56A     -0.475280    57A     -0.472544
      58A     -0.462961    59A     -0.457309    60A     -0.451161
      61A     -0.437822    62A     -0.426362    63A     -0.403456
      64A     -0.342362

  @DF-RHF Final Energy:  -886.36412252954892

   => Energetics <=

    Nuclear Repulsion Energy =           1323.3376135147489094
    One-Electron Energy =               -3844.4165922088623120
    Two-Electron Energy =                1634.7148561645642530
    Total Energy =                       -886.3641225295489221
  Basis Set: (AUG-CC-PVTZ AUX)
    Blend: AUG-CC-PVTZ-RI
    Molecular point group: c1

    Geometry (in Angstrom), charge = 0, multiplicity = 1:

       Center              X                  Y                   Z               Mass
    ------------   -----------------  -----------------  -----------------  -----------------
         O           -1.251225791011    -0.656339408867     1.033576105647    15.994914619570
         O           -1.248099791011     2.479179591133    -0.685101894353    15.994914619570
         O           -3.219654791011     1.517427591133     0.745948105647    15.994914619570
         O           -2.360153791011    -3.070508408867     0.096001105647    15.994914619570
         O            1.357405208989     2.243362591133    -0.075480894353    15.994914619570
         N            0.840279208989     0.041551591133     0.257004105647    14.003074004430
         N            3.054101208989     0.716831591133    -0.292665894353    14.003074004430
         N            4.713338208989    -0.840326408867    -0.571236894353    14.003074004430
         C           -1.292608791011     1.074758591133    -0.591015894353    12.000000000000
         C           -2.718295791011     0.651535591133    -0.256331894353    12.000000000000
         C           -0.528532791011     0.477848591133     0.601155105647    12.000000000000
         C           -2.532380791011    -0.720557408867     0.362117105647    12.000000000000
         C           -2.531468791011    -1.854064408867    -0.638228894353    12.000000000000
         C            1.216650208989    -1.265079408867     0.312335105647    12.000000000000
         C            1.752469208989     1.063763591133    -0.058341894353    12.000000000000
         C            2.507976208989    -1.612811408867     0.048056105647    12.000000000000
         C            3.472156808989    -0.479952008867    -0.279358694353    12.000000000000
         H           -0.940730791011     0.587732591133    -1.513829894353     1.007825032230
         H           -3.365706791011     0.638993591133    -1.145403894353     1.007825032230
         H           -0.443414791011     1.218208591133     1.405059105647     1.007825032230
         H           -3.285081791011    -0.912405408867     1.131844105647     1.007825032230
         H           -1.716432791011    -1.703976408867    -1.368402894353     1.007825032230
         H           -3.488685791011    -1.837675408867    -1.183073894353     1.007825032230
         H           -0.300649791011     2.709507591133    -0.523938894353     1.007825032230
         H           -2.850680791011     2.396071591133     0.509724105647     1.007825032230
         H            0.431186208989    -1.967108408867     0.570129105647     1.007825032230
         H           -2.436998791011    -3.802103408867    -0.542171894353     1.007825032230
         H            2.825987208989    -2.649069408867     0.074983105647     1.007825032230
         H            5.122055208989    -1.674532408867    -0.161352894353     1.007825032230
         H            5.316689208989    -0.023725408867    -0.567232894353     1.007825032230

  Basis Set: AUG-CC-PVTZ
    Blend: AUG-CC-PVTZ
  Basis Set: (AUG-CC-PVTZ AUX)
    Blend: AUG-CC-PVTZ-JKFIT
	 Reference Energy          =    -886.3641225295489221 [Eh]
	 Singles Energy            =      -0.0000000000000000 [Eh]
	 Same-Spin Energy          =      -0.9000846848743409 [Eh]
	 Opposite-Spin Energy      =      -2.7139237149485567 [Eh]
	 Correlation Energy        =      -3.6140083998228976 [Eh]
	 Total Energy              =    -889.9781309293717868 [Eh]

	 ================> DF-SCS-MP2 Energies <==================
	-----------------------------------------------------------
	 SCS Same-Spin Scale       =       0.3333333333333333 [-]
	 SCS Opposite-Spin Scale   =       1.2000000000000000 [-]
	 SCS Same-Spin Energy      =      -0.3000282282914469 [Eh]
	 SCS Opposite-Spin Energy  =      -3.2567084579382679 [Eh]
	 SCS Correlation Energy    =      -3.5567366862297147 [Eh]
	 SCS Total Energy          =    -889.9208592157785915 [Eh]
	-----------------------------------------------------------

  Dipole Moment: [D]
     X:     2.3120      Y:    -5.7211      Z:    -1.9625     Total:     6.4752

*** Psi4 exiting successfully. Buy a developer a beer!
