                               Psi4 1.3.2 release

  ==> Input File <==

--------------------------------------------------------------------------
#psi4
#
memory 32 gb

molecule  {
0 1
  O       -1.2481010    -0.6526680     1.0325150
  O       -1.2449750     2.4828510    -0.6861630
  O       -3.2165300     1.5210990     0.7448870
  O       -2.3570290    -3.0668370     0.0949400
  O        1.3605300     2.2470340    -0.0765420
  N        0.8212816     0.0388837     0.2618208
  N        3.0572260     0.7205030    -0.2937270
  N        4.7164630    -0.8366550    -0.5722980
  C       -1.2894840     1.0784300    -0.5920770
  C       -2.7151710     0.6552070    -0.2573930
  C       -0.5254080     0.4815200     0.6000940
  C       -2.5292560    -0.7168860     0.3610560
  C       -2.5283440    -1.8503930    -0.6392900
  C        1.2197750    -1.2614080     0.3112740
  C        1.7555940     1.0674350    -0.0594030
  C        2.5055193    -1.6319514     0.0508074
  C        3.4119830    -0.5506530    -0.2589250
  H       -0.9376060     0.5914040    -1.5148910
  H       -3.3625820     0.6426650    -1.1464650
  H       -0.4402900     1.2218800     1.4039980
  H       -3.2819570    -0.9087340     1.1307830
  H       -1.7133080    -1.7003050    -1.3694640
  H       -3.4855610    -1.8340040    -1.1841350
  H       -0.2975250     2.7131790    -0.5250000
  H       -2.8475560     2.3997430     0.5086630
  H        0.4343110    -1.9634370     0.5690680
  H       -2.4338740    -3.7984320    -0.5432330
  H        2.8291120    -2.6453980     0.0739220
  H        5.1251800    -1.6708610    -0.1624140
  H        5.3198140    -0.0200540    -0.5682940
units angstrom
no_reorient  #important for SAPT in psi4, default
symmetry c1  #important for SAPT in psi4, default
}

set PROPERTIES_ORIGIN ["COM"]
properties('MP2/aug-cc-pvtz', properties = ['dipole'])
--------------------------------------------------------------------------

    Molecular point group: c1
  Charge       = 0
  Multiplicity = 1
  Basis Set: AUG-CC-PVTZ
    Blend: AUG-CC-PVTZ
  Basis Set: (AUG-CC-PVTZ AUX)
    Blend: AUG-CC-PVTZ-JKFIT

    Orbital Energies [Eh]
    ---------------------

    Doubly Occupied:

       1A    -20.581499     2A    -20.579928     3A    -20.557298
       4A    -20.557155     5A    -20.524807     6A    -15.636258
       7A    -15.601288     8A    -15.555282     9A    -11.391375
      10A    -11.361039    11A    -11.339574    12A    -11.327426
      13A    -11.300415    14A    -11.295956    15A    -11.295874
      16A    -11.292313    17A    -11.248578    18A     -1.429071
      19A     -1.395842    20A     -1.379657    21A     -1.372249
      22A     -1.345989    23A     -1.305396    24A     -1.274155
      25A     -1.183917    26A     -1.081470    27A     -1.066956
      28A     -1.019762    29A     -0.935586    30A     -0.904427
      31A     -0.878066    32A     -0.832904    33A     -0.811127
      34A     -0.766125    35A     -0.752556    36A     -0.736387
      37A     -0.720142    38A     -0.702660    39A     -0.698089
      40A     -0.685622    41A     -0.673395    42A     -0.654918
      43A     -0.653342    44A     -0.638078    45A     -0.617905
      46A     -0.613064    47A     -0.605196    48A     -0.598128
      49A     -0.574967    50A     -0.568977    51A     -0.554106
      52A     -0.545697    53A     -0.537296    54A     -0.531229
      55A     -0.498886    56A     -0.476900    57A     -0.474002
      58A     -0.462668    59A     -0.460261    60A     -0.452376
      61A     -0.440344    62A     -0.433288    63A     -0.395936
      64A     -0.349371

  @DF-RHF Final Energy:  -886.37224600103673

   => Energetics <=

    Nuclear Repulsion Energy =           1323.3435940087990730
    One-Electron Energy =               -3844.3625790844280345
    Two-Electron Energy =                1634.6467390745920056
    Total Energy =                       -886.3722460010367286
  Basis Set: (AUG-CC-PVTZ AUX)
    Blend: AUG-CC-PVTZ-RI
    Molecular point group: c1

    Geometry (in Angstrom), charge = 0, multiplicity = 1:

       Center              X                  Y                   Z               Mass
    ------------   -----------------  -----------------  -----------------  -----------------
         O           -1.246551118485    -0.651176718451     1.031988213173    15.994914619570
         O           -1.243425118485     2.484342281549    -0.686689786827    15.994914619570
         O           -3.214980118485     1.522590281549     0.744360213173    15.994914619570
         O           -2.355479118485    -3.065345718451     0.094413213173    15.994914619570
         O            1.362079881515     2.248525281549    -0.077068786827    15.994914619570
         N            0.822831481515     0.040374981549     0.261294013173    14.003074004430
         N            3.058775881515     0.721994281549    -0.294253786827    14.003074004430
         N            4.718012881515    -0.835163718451    -0.572824786827    14.003074004430
         C           -1.287934118485     1.079921281549    -0.592603786827    12.000000000000
         C           -2.713621118485     0.656698281549    -0.257919786827    12.000000000000
         C           -0.523858118485     0.483011281549     0.599567213173    12.000000000000
         C           -2.527706118485    -0.715394718451     0.360529213173    12.000000000000
         C           -2.526794118485    -1.848901718451    -0.639816786827    12.000000000000
         C            1.221324881515    -1.259916718451     0.310747213173    12.000000000000
         C            1.757143881515     1.068926281549    -0.059929786827    12.000000000000
         C            2.507069181515    -1.630460118451     0.050280613173    12.000000000000
         C            3.413532881515    -0.549161718451    -0.259451786827    12.000000000000
         H           -0.936056118485     0.592895281549    -1.515417786827     1.007825032230
         H           -3.361032118485     0.644156281549    -1.146991786827     1.007825032230
         H           -0.438740118485     1.223371281549     1.403471213173     1.007825032230
         H           -3.280407118485    -0.907242718451     1.130256213173     1.007825032230
         H           -1.711758118485    -1.698813718451    -1.369990786827     1.007825032230
         H           -3.484011118485    -1.832512718451    -1.184661786827     1.007825032230
         H           -0.295975118485     2.714670281549    -0.525526786827     1.007825032230
         H           -2.846006118485     2.401234281549     0.508136213173     1.007825032230
         H            0.435860881515    -1.961945718451     0.568541213173     1.007825032230
         H           -2.432324118485    -3.796940718451    -0.543759786827     1.007825032230
         H            2.830661881515    -2.643906718451     0.073395213173     1.007825032230
         H            5.126729881515    -1.669369718451    -0.162940786827     1.007825032230
         H            5.321363881515    -0.018562718451    -0.568820786827     1.007825032230

  Basis Set: AUG-CC-PVTZ
    Blend: AUG-CC-PVTZ
  Basis Set: (AUG-CC-PVTZ AUX)
    Blend: AUG-CC-PVTZ-JKFIT
	 Reference Energy          =    -886.3722460010367286 [Eh]
	 Singles Energy            =      -0.0000000000000000 [Eh]
	 Same-Spin Energy          =      -0.9009914222168666 [Eh]
	 Opposite-Spin Energy      =      -2.7149164807429318 [Eh]
	 Correlation Energy        =      -3.6159079029597985 [Eh]
	 Total Energy              =    -889.9881539039964764 [Eh]

	 ================> DF-SCS-MP2 Energies <==================
	-----------------------------------------------------------
	 SCS Same-Spin Scale       =       0.3333333333333333 [-]
	 SCS Opposite-Spin Scale   =       1.2000000000000000 [-]
	 SCS Same-Spin Energy      =      -0.3003304740722889 [Eh]
	 SCS Opposite-Spin Energy  =      -3.2578997768915179 [Eh]
	 SCS Correlation Energy    =      -3.5582302509638066 [Eh]
	 SCS Total Energy          =    -889.9304762520005170 [Eh]
	-----------------------------------------------------------

  Dipole Moment: [D]
     X:     1.8410      Y:    -5.8615      Z:    -1.8544     Total:     6.4176

*** Psi4 exiting successfully. Buy a developer a beer!
