                               Psi4 1.3.2 release

  ==> Input File <==

--------------------------------------------------------------------------
#psi4
#
memory 32 gb

molecule  {
0 1
  O       -1.2481010    -0.6526680     1.0325150
  O       -1.2449750     2.4828510    -0.6861630
  O       -3.2165300     1.5210990     0.7448870
  O       -2.3570290    -3.0668370     0.0949400
  O        1.3605300     2.2470340    -0.0765420
  N        0.8434040     0.0452230     0.2559430
  N        3.0572260     0.7205030    -0.2937270
  N        4.7164630    -0.8366550    -0.5722980
  C       -1.2894840     1.0784300    -0.5920770
  C       -2.7151710     0.6552070    -0.2573930
  C       -0.5254080     0.4815200     0.6000940
  C       -2.5214882    -0.7115754     0.3703613
  C       -2.5283440    -1.8503930    -0.6392900
  C        1.2197750    -1.2614080     0.3112740
  C        1.7555940     1.0674350    -0.0594030
  C        2.5111010    -1.6091400     0.0469950
  C        3.4119830    -0.5506530    -0.2589250
  H       -0.9376060     0.5914040    -1.5148910
  H       -3.3614324     0.6521498    -1.1473841
  H       -0.4402900     1.2218800     1.4039980
  H       -3.2819570    -0.9087340     1.1307830
  H       -1.7133080    -1.7003050    -1.3694640
  H       -3.4855610    -1.8340040    -1.1841350
  H       -0.2975250     2.7131790    -0.5250000
  H       -2.8475560     2.3997430     0.5086630
  H        0.4343110    -1.9634370     0.5690680
  H       -2.4338740    -3.7984320    -0.5432330
  H        2.8291120    -2.6453980     0.0739220
  H        5.1251800    -1.6708610    -0.1624140
  H        5.3198140    -0.0200540    -0.5682940
units angstrom
no_reorient  #important for SAPT in psi4, default
symmetry c1  #important for SAPT in psi4, default
}

set PROPERTIES_ORIGIN ["COM"]
properties('MP2/aug-cc-pvtz', properties = ['dipole'])
--------------------------------------------------------------------------

    Molecular point group: c1
  Charge       = 0
  Multiplicity = 1
  Basis Set: AUG-CC-PVTZ
    Blend: AUG-CC-PVTZ
  Basis Set: (AUG-CC-PVTZ AUX)
    Blend: AUG-CC-PVTZ-JKFIT

    Orbital Energies [Eh]
    ---------------------

    Doubly Occupied:

       1A    -20.582987     2A    -20.581661     3A    -20.557326
       4A    -20.557312     5A    -20.522247     6A    -15.637331
       7A    -15.600051     8A    -15.553595     9A    -11.388558
      10A    -11.358103    11A    -11.342265    12A    -11.328850
      13A    -11.300686    14A    -11.296649    15A    -11.296592
      16A    -11.292459    17A    -11.248835    18A     -1.431842
      19A     -1.397166    20A     -1.380112    21A     -1.372776
      22A     -1.346227    23A     -1.306430    24A     -1.274324
      25A     -1.182541    26A     -1.082348    27A     -1.066187
      28A     -1.021382    29A     -0.934822    30A     -0.909913
      31A     -0.877242    32A     -0.832645    33A     -0.812452
      34A     -0.767190    35A     -0.753002    36A     -0.736269
      37A     -0.720517    38A     -0.702405    39A     -0.698620
      40A     -0.685957    41A     -0.672516    42A     -0.654882
      43A     -0.651661    44A     -0.639073    45A     -0.620875
      46A     -0.615029    47A     -0.607014    48A     -0.593899
      49A     -0.576073    50A     -0.570793    51A     -0.554059
      52A     -0.545089    53A     -0.538248    54A     -0.531671
      55A     -0.498169    56A     -0.477010    57A     -0.474247
      58A     -0.461294    59A     -0.460020    60A     -0.453077
      61A     -0.440372    62A     -0.433249    63A     -0.395410
      64A     -0.350273

  @DF-RHF Final Energy:  -886.37362286133805

   => Energetics <=

    Nuclear Repulsion Energy =           1323.8617173069783348
    One-Electron Energy =               -3845.3669174909250614
    Two-Electron Energy =                1635.1315773226087913
    Total Energy =                       -886.3736228613379353
  Basis Set: (AUG-CC-PVTZ AUX)
    Blend: AUG-CC-PVTZ-RI
    Molecular point group: c1

    Geometry (in Angstrom), charge = 0, multiplicity = 1:

       Center              X                  Y                   Z               Mass
    ------------   -----------------  -----------------  -----------------  -----------------
         O           -1.248489260250    -0.652969473136     1.032059458718    15.994914619570
         O           -1.245363260250     2.482549526864    -0.686618541282    15.994914619570
         O           -3.216918260250     1.520797526864     0.744431458718    15.994914619570
         O           -2.357417260250    -3.067138473136     0.094484458718    15.994914619570
         O            1.360141739750     2.246732526864    -0.076997541282    15.994914619570
         N            0.843015739750     0.044921526864     0.255487458718    14.003074004430
         N            3.056837739750     0.720201526864    -0.294182541282    14.003074004430
         N            4.716074739750    -0.836956473136    -0.572753541282    14.003074004430
         C           -1.289872260250     1.078128526864    -0.592532541282    12.000000000000
         C           -2.715559260250     0.654905526864    -0.257848541282    12.000000000000
         C           -0.525796260250     0.481218526864     0.599638458718    12.000000000000
         C           -2.521876460250    -0.711876873136     0.369905758718    12.000000000000
         C           -2.528732260250    -1.850694473136    -0.639745541282    12.000000000000
         C            1.219386739750    -1.261709473136     0.310818458718    12.000000000000
         C            1.755205739750     1.067133526864    -0.059858541282    12.000000000000
         C            2.510712739750    -1.609441473136     0.046539458718    12.000000000000
         C            3.411594739750    -0.550954473136    -0.259380541282    12.000000000000
         H           -0.937994260250     0.591102526864    -1.515346541282     1.007825032230
         H           -3.361820660250     0.651848326864    -1.147839641282     1.007825032230
         H           -0.440678260250     1.221578526864     1.403542458718     1.007825032230
         H           -3.282345260250    -0.909035473136     1.130327458718     1.007825032230
         H           -1.713696260250    -1.700606473136    -1.369919541282     1.007825032230
         H           -3.485949260250    -1.834305473136    -1.184590541282     1.007825032230
         H           -0.297913260250     2.712877526864    -0.525455541282     1.007825032230
         H           -2.847944260250     2.399441526864     0.508207458718     1.007825032230
         H            0.433922739750    -1.963738473136     0.568612458718     1.007825032230
         H           -2.434262260250    -3.798733473136    -0.543688541282     1.007825032230
         H            2.828723739750    -2.645699473136     0.073466458718     1.007825032230
         H            5.124791739750    -1.671162473136    -0.162869541282     1.007825032230
         H            5.319425739750    -0.020355473136    -0.568749541282     1.007825032230

  Basis Set: AUG-CC-PVTZ
    Blend: AUG-CC-PVTZ
  Basis Set: (AUG-CC-PVTZ AUX)
    Blend: AUG-CC-PVTZ-JKFIT
	 Reference Energy          =    -886.3736228613380490 [Eh]
	 Singles Energy            =      -0.0000000000000000 [Eh]
	 Same-Spin Energy          =      -0.9011640350365511 [Eh]
	 Opposite-Spin Energy      =      -2.7147617676913463 [Eh]
	 Correlation Energy        =      -3.6159258027278973 [Eh]
	 Total Energy              =    -889.9895486640659783 [Eh]

	 ================> DF-SCS-MP2 Energies <==================
	-----------------------------------------------------------
	 SCS Same-Spin Scale       =       0.3333333333333333 [-]
	 SCS Opposite-Spin Scale   =       1.2000000000000000 [-]
	 SCS Same-Spin Energy      =      -0.3003880116788503 [Eh]
	 SCS Opposite-Spin Energy  =      -3.2577141212296152 [Eh]
	 SCS Correlation Energy    =      -3.5581021329084654 [Eh]
	 SCS Total Energy          =    -889.9317249942465651 [Eh]
	-----------------------------------------------------------

  Dipole Moment: [D]
     X:     1.7553      Y:    -5.9295      Z:    -1.8055     Total:     6.4421

*** Psi4 exiting successfully. Buy a developer a beer!
