                               Psi4 1.3.2 release

  ==> Input File <==

--------------------------------------------------------------------------
#psi4
#
memory 32 gb

molecule  {
0 1
  O       -1.2481010    -0.6526680     1.0325150
  O       -1.2329719     2.4822449    -0.6887301
  O       -3.2165300     1.5210990     0.7448870
  O       -2.3570290    -3.0668370     0.0949400
  O        1.3605300     2.2470340    -0.0765420
  N        0.8434040     0.0452230     0.2559430
  N        3.0572260     0.7205030    -0.2937270
  N        4.7164630    -0.8366550    -0.5722980
  C       -1.2894840     1.0784300    -0.5920770
  C       -2.7113423     0.6424674    -0.2574576
  C       -0.5254080     0.4815200     0.6000940
  C       -2.5292560    -0.7168860     0.3610560
  C       -2.5283440    -1.8503930    -0.6392900
  C        1.2197750    -1.2614080     0.3112740
  C        1.7555940     1.0674350    -0.0594030
  C        2.5111010    -1.6091400     0.0469950
  C        3.4119830    -0.5506530    -0.2589250
  H       -0.9376060     0.5914040    -1.5148910
  H       -3.3625820     0.6426650    -1.1464650
  H       -0.4402900     1.2218800     1.4039980
  H       -3.2819570    -0.9087340     1.1307830
  H       -1.7133080    -1.7003050    -1.3694640
  H       -3.4855610    -1.8340040    -1.1841350
  H       -0.2975250     2.7131790    -0.5250000
  H       -2.8475560     2.3997430     0.5086630
  H        0.4343110    -1.9634370     0.5690680
  H       -2.4338740    -3.7984320    -0.5432330
  H        2.8291120    -2.6453980     0.0739220
  H        5.1251800    -1.6708610    -0.1624140
  H        5.3198140    -0.0200540    -0.5682940
units angstrom
no_reorient  #important for SAPT in psi4, default
symmetry c1  #important for SAPT in psi4, default
}

set PROPERTIES_ORIGIN ["COM"]
properties('MP2/aug-cc-pvtz', properties = ['dipole'])
--------------------------------------------------------------------------

    Molecular point group: c1
  Charge       = 0
  Multiplicity = 1
  Basis Set: AUG-CC-PVTZ
    Blend: AUG-CC-PVTZ
  Basis Set: (AUG-CC-PVTZ AUX)
    Blend: AUG-CC-PVTZ-JKFIT

    Orbital Energies [Eh]
    ---------------------

    Doubly Occupied:

       1A    -20.582626     2A    -20.581901     3A    -20.557275
       4A    -20.556449     5A    -20.521447     6A    -15.636783
       7A    -15.599735     8A    -15.553155     9A    -11.387954
      10A    -11.357707    11A    -11.341585    12A    -11.328451
      13A    -11.301711    14A    -11.297343    15A    -11.297195
      16A    -11.293565    17A    -11.248463    18A     -1.429666
      19A     -1.396205    20A     -1.379552    21A     -1.373084
      22A     -1.345429    23A     -1.305855    24A     -1.273703
      25A     -1.182102    26A     -1.081970    27A     -1.070331
      28A     -1.022000    29A     -0.935748    30A     -0.909502
      31A     -0.877816    32A     -0.833440    33A     -0.811725
      34A     -0.766892    35A     -0.752669    36A     -0.736864
      37A     -0.720303    38A     -0.703323    39A     -0.698395
      40A     -0.685589    41A     -0.672611    42A     -0.654582
      43A     -0.651597    44A     -0.638441    45A     -0.620992
      46A     -0.614764    47A     -0.606683    48A     -0.593720
      49A     -0.575340    50A     -0.569990    51A     -0.554011
      52A     -0.545118    53A     -0.537398    54A     -0.531935
      55A     -0.498321    56A     -0.478427    57A     -0.475849
      58A     -0.462404    59A     -0.459916    60A     -0.452946
      61A     -0.440974    62A     -0.433016    63A     -0.395040
      64A     -0.349818

  @DF-RHF Final Energy:  -886.37375087056967

   => Energetics <=

    Nuclear Repulsion Energy =           1323.9066225534641035
    One-Electron Energy =               -3845.4619477259534506
    Two-Electron Energy =                1635.1815743019199090
    Total Energy =                       -886.3737508705696655
  Basis Set: (AUG-CC-PVTZ AUX)
    Blend: AUG-CC-PVTZ-RI
    Molecular point group: c1

    Geometry (in Angstrom), charge = 0, multiplicity = 1:

       Center              X                  Y                   Z               Mass
    ------------   -----------------  -----------------  -----------------  -----------------
         O           -1.249079837442    -0.651999214044     1.032687110472    15.994914619570
         O           -1.233950737442     2.482913685956    -0.688557989528    15.994914619570
         O           -3.217508837442     1.521767785956     0.745059110472    15.994914619570
         O           -2.358007837442    -3.066168214044     0.095112110472    15.994914619570
         O            1.359551162558     2.247702785956    -0.076369889528    15.994914619570
         N            0.842425162558     0.045891785956     0.256115110472    14.003074004430
         N            3.056247162558     0.721171785956    -0.293554889528    14.003074004430
         N            4.715484162558    -0.835986214044    -0.572125889528    14.003074004430
         C           -1.290462837442     1.079098785956    -0.591904889528    12.000000000000
         C           -2.712321137442     0.643136185956    -0.257285489528    12.000000000000
         C           -0.526386837442     0.482188785956     0.600266110472    12.000000000000
         C           -2.530234837442    -0.716217214044     0.361228110472    12.000000000000
         C           -2.529322837442    -1.849724214044    -0.639117889528    12.000000000000
         C            1.218796162558    -1.260739214044     0.311446110472    12.000000000000
         C            1.754615162558     1.068103785956    -0.059230889528    12.000000000000
         C            2.510122162558    -1.608471214044     0.047167110472    12.000000000000
         C            3.411004162558    -0.549984214044    -0.258752889528    12.000000000000
         H           -0.938584837442     0.592072785956    -1.514718889528     1.007825032230
         H           -3.363560837442     0.643333785956    -1.146292889528     1.007825032230
         H           -0.441268837442     1.222548785956     1.404170110472     1.007825032230
         H           -3.282935837442    -0.908065214044     1.130955110472     1.007825032230
         H           -1.714286837442    -1.699636214044    -1.369291889528     1.007825032230
         H           -3.486539837442    -1.833335214044    -1.183962889528     1.007825032230
         H           -0.298503837442     2.713847785956    -0.524827889528     1.007825032230
         H           -2.848534837442     2.400411785956     0.508835110472     1.007825032230
         H            0.433332162558    -1.962768214044     0.569240110472     1.007825032230
         H           -2.434852837442    -3.797763214044    -0.543060889528     1.007825032230
         H            2.828133162558    -2.644729214044     0.074094110472     1.007825032230
         H            5.124201162558    -1.670192214044    -0.162241889528     1.007825032230
         H            5.318835162558    -0.019385214044    -0.568121889528     1.007825032230

  Basis Set: AUG-CC-PVTZ
    Blend: AUG-CC-PVTZ
  Basis Set: (AUG-CC-PVTZ AUX)
    Blend: AUG-CC-PVTZ-JKFIT
	 Reference Energy          =    -886.3737508705696655 [Eh]
	 Singles Energy            =      -0.0000000000000000 [Eh]
	 Same-Spin Energy          =      -0.9010862586727864 [Eh]
	 Opposite-Spin Energy      =      -2.7147007933571436 [Eh]
	 Correlation Energy        =      -3.6157870520299298 [Eh]
	 Total Energy              =    -889.9895379225995384 [Eh]

	 ================> DF-SCS-MP2 Energies <==================
	-----------------------------------------------------------
	 SCS Same-Spin Scale       =       0.3333333333333333 [-]
	 SCS Opposite-Spin Scale   =       1.2000000000000000 [-]
	 SCS Same-Spin Energy      =      -0.3003620862242621 [Eh]
	 SCS Opposite-Spin Energy  =      -3.2576409520285723 [Eh]
	 SCS Correlation Energy    =      -3.5580030382528345 [Eh]
	 SCS Total Energy          =    -889.9317539088225431 [Eh]
	-----------------------------------------------------------

  Dipole Moment: [D]
     X:     1.6780      Y:    -5.9810      Z:    -1.8306     Total:     6.4760

*** Psi4 exiting successfully. Buy a developer a beer!
