                               Psi4 1.3.2 release

  ==> Input File <==

--------------------------------------------------------------------------
#psi4
#
memory 32 gb

molecule  {
0 1
  O       -1.2481010    -0.6526680     1.0325150
  O       -1.2449750     2.4828510    -0.6861630
  O       -3.2165300     1.5210990     0.7448870
  O       -2.3570290    -3.0668370     0.0949400
  O        1.3605300     2.2470340    -0.0765420
  N        0.8434040     0.0452230     0.2559430
  N        3.0572260     0.7205030    -0.2937270
  N        4.7164630    -0.8366550    -0.5722980
  C       -1.2894840     1.0784300    -0.5920770
  C       -2.7151710     0.6552070    -0.2573930
  C       -0.5254080     0.4815200     0.6000940
  C       -2.5292560    -0.7168860     0.3610560
  C       -2.5283440    -1.8503930    -0.6392900
  C        1.2197750    -1.2614080     0.3112740
  C        1.7555940     1.0674350    -0.0594030
  C        2.5111010    -1.6091400     0.0469950
  C        3.4119830    -0.5506530    -0.2589250
  H       -0.9376060     0.5914040    -1.5148910
  H       -3.3625820     0.6426650    -1.1464650
  H       -0.4402900     1.2218800     1.4039980
  H       -3.2819570    -0.9087340     1.1307830
  H       -1.7133080    -1.7003050    -1.3694640
  H       -3.4855610    -1.8340040    -1.1841350
  H       -0.2975250     2.7131790    -0.5250000
  H       -2.8475560     2.3997430     0.5086630
  H        0.4343110    -1.9634370     0.5690680
  H       -2.4338740    -3.7984320    -0.5432330
  H        2.8291120    -2.6453980     0.0739220
  H        5.0951270    -1.6882836    -0.1694376
  H        5.2939850    -0.0016615    -0.5841229
units angstrom
no_reorient  #important for SAPT in psi4, default
symmetry c1  #important for SAPT in psi4, default
}

set PROPERTIES_ORIGIN ["COM"]
properties('MP2/aug-cc-pvtz', properties = ['dipole'])
--------------------------------------------------------------------------

    Molecular point group: c1
  Charge       = 0
  Multiplicity = 1
  Basis Set: AUG-CC-PVTZ
    Blend: AUG-CC-PVTZ
  Basis Set: (AUG-CC-PVTZ AUX)
    Blend: AUG-CC-PVTZ-JKFIT

    Orbital Energies [Eh]
    ---------------------

    Doubly Occupied:

       1A    -20.582265     2A    -20.581596     3A    -20.557781
       4A    -20.557230     5A    -20.521962     6A    -15.636808
       7A    -15.600074     8A    -15.553136     9A    -11.388242
      10A    -11.357013    11A    -11.341535    12A    -11.328551
      13A    -11.301198    14A    -11.296926    15A    -11.296631
      16A    -11.292958    17A    -11.248507    18A     -1.429343
      19A     -1.396365    20A     -1.380115    21A     -1.372822
      22A     -1.346295    23A     -1.306282    24A     -1.274106
      25A     -1.182131    26A     -1.081936    27A     -1.067730
      28A     -1.021240    29A     -0.935036    30A     -0.909575
      31A     -0.876491    32A     -0.831927    33A     -0.811946
      34A     -0.768815    35A     -0.752372    36A     -0.736148
      37A     -0.718094    38A     -0.702542    39A     -0.698389
      40A     -0.688958    41A     -0.672602    42A     -0.654747
      43A     -0.651528    44A     -0.638582    45A     -0.620912
      46A     -0.614536    47A     -0.606593    48A     -0.593759
      49A     -0.575759    50A     -0.569764    51A     -0.553999
      52A     -0.545698    53A     -0.537524    54A     -0.531796
      55A     -0.498093    56A     -0.477510    57A     -0.474438
      58A     -0.462170    59A     -0.460051    60A     -0.452831
      61A     -0.440693    62A     -0.433074    63A     -0.394752
      64A     -0.350076

  @DF-RHF Final Energy:  -886.37311428286625

   => Energetics <=

    Nuclear Repulsion Energy =           1323.8346472306272972
    One-Electron Energy =               -3845.3304087578353574
    Two-Electron Energy =                1635.1226472443415787
    Total Energy =                       -886.3731142828662541
  Basis Set: (AUG-CC-PVTZ AUX)
    Blend: AUG-CC-PVTZ-RI
    Molecular point group: c1

    Geometry (in Angstrom), charge = 0, multiplicity = 1:

       Center              X                  Y                   Z               Mass
    ------------   -----------------  -----------------  -----------------  -----------------
         O           -1.247869348897    -0.652672011037     1.032609753237    15.994914619570
         O           -1.244743348897     2.482846988963    -0.686068246763    15.994914619570
         O           -3.216298348897     1.521094988963     0.744981753237    15.994914619570
         O           -2.356797348897    -3.066841011037     0.095034753237    15.994914619570
         O            1.360761651103     2.247029988963    -0.076447246763    15.994914619570
         N            0.843635651103     0.045218988963     0.256037753237    14.003074004430
         N            3.057457651103     0.720498988963    -0.293632246763    14.003074004430
         N            4.716694651103    -0.836659011037    -0.572203246763    14.003074004430
         C           -1.289252348897     1.078425988963    -0.591982246763    12.000000000000
         C           -2.714939348897     0.655202988963    -0.257298246763    12.000000000000
         C           -0.525176348897     0.481515988963     0.600188753237    12.000000000000
         C           -2.529024348897    -0.716890011037     0.361150753237    12.000000000000
         C           -2.528112348897    -1.850397011037    -0.639195246763    12.000000000000
         C            1.220006651103    -1.261412011037     0.311368753237    12.000000000000
         C            1.755825651103     1.067430988963    -0.059308246763    12.000000000000
         C            2.511332651103    -1.609144011037     0.047089753237    12.000000000000
         C            3.412214651103    -0.550657011037    -0.258830246763    12.000000000000
         H           -0.937374348897     0.591399988963    -1.514796246763     1.007825032230
         H           -3.362350348897     0.642660988963    -1.146370246763     1.007825032230
         H           -0.440058348897     1.221875988963     1.404092753237     1.007825032230
         H           -3.281725348897    -0.908738011037     1.130877753237     1.007825032230
         H           -1.713076348897    -1.700309011037    -1.369369246763     1.007825032230
         H           -3.485329348897    -1.834008011037    -1.184040246763     1.007825032230
         H           -0.297293348897     2.713174988963    -0.524905246763     1.007825032230
         H           -2.847324348897     2.399738988963     0.508757753237     1.007825032230
         H            0.434542651103    -1.963441011037     0.569162753237     1.007825032230
         H           -2.433642348897    -3.798436011037    -0.543138246763     1.007825032230
         H            2.829343651103    -2.645402011037     0.074016753237     1.007825032230
         H            5.095358651103    -1.688287611037    -0.169342846763     1.007825032230
         H            5.294216651103    -0.001665511037    -0.584028146763     1.007825032230

  Basis Set: AUG-CC-PVTZ
    Blend: AUG-CC-PVTZ
  Basis Set: (AUG-CC-PVTZ AUX)
    Blend: AUG-CC-PVTZ-JKFIT
	 Reference Energy          =    -886.3731142828662541 [Eh]
	 Singles Energy            =      -0.0000000000000000 [Eh]
	 Same-Spin Energy          =      -0.9013028642217650 [Eh]
	 Opposite-Spin Energy      =      -2.7149888001913922 [Eh]
	 Correlation Energy        =      -3.6162916644131573 [Eh]
	 Total Energy              =    -889.9894059472794652 [Eh]

	 ================> DF-SCS-MP2 Energies <==================
	-----------------------------------------------------------
	 SCS Same-Spin Scale       =       0.3333333333333333 [-]
	 SCS Opposite-Spin Scale   =       1.2000000000000000 [-]
	 SCS Same-Spin Energy      =      -0.3004342880739216 [Eh]
	 SCS Opposite-Spin Energy  =      -3.2579865602296705 [Eh]
	 SCS Correlation Energy    =      -3.5584208483035922 [Eh]
	 SCS Total Energy          =    -889.9315351311698805 [Eh]
	-----------------------------------------------------------

  Dipole Moment: [D]
     X:     1.6894      Y:    -5.9606      Z:    -1.8602     Total:     6.4687

*** Psi4 exiting successfully. Buy a developer a beer!
