                               Psi4 1.3.2 release

  ==> Input File <==

--------------------------------------------------------------------------
#psi4
#
memory 32 gb

molecule  {
0 1
  O       -1.2481010    -0.6526680     1.0325150
  O       -1.2449750     2.4828510    -0.6861630
  O       -3.2165300     1.5210990     0.7448870
  O       -2.3570290    -3.0668370     0.0949400
  O        1.3807286     2.2535319    -0.0811544
  N        0.8434040     0.0452230     0.2559430
  N        3.0626154     0.7435580    -0.2967093
  N        4.7164630    -0.8366550    -0.5722980
  C       -1.2894840     1.0784300    -0.5920770
  C       -2.7151710     0.6552070    -0.2573930
  C       -0.5254080     0.4815200     0.6000940
  C       -2.5292560    -0.7168860     0.3610560
  C       -2.5283440    -1.8503930    -0.6392900
  C        1.2197750    -1.2614080     0.3112740
  C        1.7555940     1.0674350    -0.0594030
  C        2.5111010    -1.6091400     0.0469950
  C        3.4119830    -0.5506530    -0.2589250
  H       -0.9376060     0.5914040    -1.5148910
  H       -3.3625820     0.6426650    -1.1464650
  H       -0.4402900     1.2218800     1.4039980
  H       -3.2819570    -0.9087340     1.1307830
  H       -1.7133080    -1.7003050    -1.3694640
  H       -3.4855610    -1.8340040    -1.1841350
  H       -0.2975250     2.7131790    -0.5250000
  H       -2.8475560     2.3997430     0.5086630
  H        0.4343110    -1.9634370     0.5690680
  H       -2.4338740    -3.7984320    -0.5432330
  H        2.8291120    -2.6453980     0.0739220
  H        5.1251800    -1.6708610    -0.1624140
  H        5.3198140    -0.0200540    -0.5682940
units angstrom
no_reorient  #important for SAPT in psi4, default
symmetry c1  #important for SAPT in psi4, default
}

set PROPERTIES_ORIGIN ["COM"]
properties('MP2/aug-cc-pvtz', properties = ['dipole'])
--------------------------------------------------------------------------

    Molecular point group: c1
  Charge       = 0
  Multiplicity = 1
  Basis Set: AUG-CC-PVTZ
    Blend: AUG-CC-PVTZ
  Basis Set: (AUG-CC-PVTZ AUX)
    Blend: AUG-CC-PVTZ-JKFIT

    Orbital Energies [Eh]
    ---------------------

    Doubly Occupied:

       1A    -20.582622     2A    -20.582238     3A    -20.558113
       4A    -20.557858     5A    -20.519231     6A    -15.638129
       7A    -15.601093     8A    -15.554369     9A    -11.385605
      10A    -11.360048    11A    -11.342290    12A    -11.330121
      13A    -11.301571    14A    -11.297363    15A    -11.297092
      16A    -11.293345    17A    -11.249767    18A     -1.429510
      19A     -1.394689    20A     -1.380493    21A     -1.373172
      22A     -1.346654    23A     -1.303265    24A     -1.273597
      25A     -1.178769    26A     -1.082904    27A     -1.068147
      28A     -1.021676    29A     -0.935386    30A     -0.910216
      31A     -0.874440    32A     -0.832733    33A     -0.812084
      34A     -0.766602    35A     -0.752540    36A     -0.736469
      37A     -0.719473    38A     -0.703172    39A     -0.698853
      40A     -0.685197    41A     -0.673256    42A     -0.653858
      43A     -0.650395    44A     -0.638230    45A     -0.620714
      46A     -0.614310    47A     -0.606844    48A     -0.592754
      49A     -0.576102    50A     -0.569810    51A     -0.554280
      52A     -0.545696    53A     -0.537459    54A     -0.531734
      55A     -0.498072    56A     -0.477872    57A     -0.474797
      58A     -0.462341    59A     -0.457595    60A     -0.453284
      61A     -0.441591    62A     -0.434432    63A     -0.392467
      64A     -0.350308

  @DF-RHF Final Energy:  -886.37170336246379

   => Energetics <=

    Nuclear Repulsion Energy =           1322.7585443256825783
    One-Electron Energy =               -3843.1823034814224229
    Two-Electron Energy =                1634.0520557932761676
    Total Energy =                       -886.3717033624636770
  Basis Set: (AUG-CC-PVTZ AUX)
    Blend: AUG-CC-PVTZ-RI
    Molecular point group: c1

    Geometry (in Angstrom), charge = 0, multiplicity = 1:

       Center              X                  Y                   Z               Mass
    ------------   -----------------  -----------------  -----------------  -----------------
         O           -1.249740551784    -0.654423644521     1.032990298282    15.994914619570
         O           -1.246614551784     2.481095355479    -0.685687701718    15.994914619570
         O           -3.218169551784     1.519343355479     0.745362298282    15.994914619570
         O           -2.358668551784    -3.068592644521     0.095415298282    15.994914619570
         O            1.379089048216     2.251776255479    -0.080679101718    15.994914619570
         N            0.841764448216     0.043467355479     0.256418298282    14.003074004430
         N            3.060975848216     0.741802355479    -0.296234001718    14.003074004430
         N            4.714823448216    -0.838410644521    -0.571822701718    14.003074004430
         C           -1.291123551784     1.076674355479    -0.591601701718    12.000000000000
         C           -2.716810551784     0.653451355479    -0.256917701718    12.000000000000
         C           -0.527047551784     0.479764355479     0.600569298282    12.000000000000
         C           -2.530895551784    -0.718641644521     0.361531298282    12.000000000000
         C           -2.529983551784    -1.852148644521    -0.638814701718    12.000000000000
         C            1.218135448216    -1.263163644521     0.311749298282    12.000000000000
         C            1.753954448216     1.065679355479    -0.058927701718    12.000000000000
         C            2.509461448216    -1.610895644521     0.047470298282    12.000000000000
         C            3.410343448216    -0.552408644521    -0.258449701718    12.000000000000
         H           -0.939245551784     0.589648355479    -1.514415701718     1.007825032230
         H           -3.364221551784     0.640909355479    -1.145989701718     1.007825032230
         H           -0.441929551784     1.220124355479     1.404473298282     1.007825032230
         H           -3.283596551784    -0.910489644521     1.131258298282     1.007825032230
         H           -1.714947551784    -1.702060644521    -1.368988701718     1.007825032230
         H           -3.487200551784    -1.835759644521    -1.183659701718     1.007825032230
         H           -0.299164551784     2.711423355479    -0.524524701718     1.007825032230
         H           -2.849195551784     2.397987355479     0.509138298282     1.007825032230
         H            0.432671448216    -1.965192644521     0.569543298282     1.007825032230
         H           -2.435513551784    -3.800187644521    -0.542757701718     1.007825032230
         H            2.827472448216    -2.647153644521     0.074397298282     1.007825032230
         H            5.123540448216    -1.672616644521    -0.161938701718     1.007825032230
         H            5.318174448216    -0.021809644521    -0.567818701718     1.007825032230

  Basis Set: AUG-CC-PVTZ
    Blend: AUG-CC-PVTZ
  Basis Set: (AUG-CC-PVTZ AUX)
    Blend: AUG-CC-PVTZ-JKFIT
	 Reference Energy          =    -886.3717033624637907 [Eh]
	 Singles Energy            =      -0.0000000000000000 [Eh]
	 Same-Spin Energy          =      -0.9013002298210615 [Eh]
	 Opposite-Spin Energy      =      -2.7153923351005864 [Eh]
	 Correlation Energy        =      -3.6166925649216477 [Eh]
	 Total Energy              =    -889.9883959273854543 [Eh]

	 ================> DF-SCS-MP2 Energies <==================
	-----------------------------------------------------------
	 SCS Same-Spin Scale       =       0.3333333333333333 [-]
	 SCS Opposite-Spin Scale   =       1.2000000000000000 [-]
	 SCS Same-Spin Energy      =      -0.3004334099403538 [Eh]
	 SCS Opposite-Spin Energy  =      -3.2584708021207036 [Eh]
	 SCS Correlation Energy    =      -3.5589042120610577 [Eh]
	 SCS Total Energy          =    -889.9306075745248563 [Eh]
	-----------------------------------------------------------

  Dipole Moment: [D]
     X:     1.6702      Y:    -6.0460      Z:    -1.8156     Total:     6.5299

*** Psi4 exiting successfully. Buy a developer a beer!
