                               Psi4 1.3.2 release

  ==> Input File <==

--------------------------------------------------------------------------
#psi4
#
memory 32 gb

molecule  {
0 1
  O       -1.2481010    -0.6526680     1.0325150
  O       -1.2449750     2.4828510    -0.6861630
  O       -3.2165300     1.5210990     0.7448870
  O       -2.3570290    -3.0668370     0.0949400
  O        1.3605300     2.2470340    -0.0765420
  N        0.8434040     0.0452230     0.2559430
  N        3.0572260     0.7205030    -0.2937270
  N        4.7164630    -0.8366550    -0.5722980
  C       -1.2894840     1.0784300    -0.5920770
  C       -2.7151710     0.6552070    -0.2573930
  C       -0.5220891     0.4937219     0.5975839
  C       -2.5292560    -0.7168860     0.3610560
  C       -2.5283440    -1.8503930    -0.6392900
  C        1.2306853    -1.2583624     0.3077066
  C        1.7555940     1.0674350    -0.0594030
  C        2.5111010    -1.6091400     0.0469950
  C        3.4119830    -0.5506530    -0.2589250
  H       -0.9376060     0.5914040    -1.5148910
  H       -3.3625820     0.6426650    -1.1464650
  H       -0.4402900     1.2218800     1.4039980
  H       -3.2819570    -0.9087340     1.1307830
  H       -1.7133080    -1.7003050    -1.3694640
  H       -3.4855610    -1.8340040    -1.1841350
  H       -0.2975250     2.7131790    -0.5250000
  H       -2.8475560     2.3997430     0.5086630
  H        0.4343110    -1.9634370     0.5690680
  H       -2.4338740    -3.7984320    -0.5432330
  H        2.8291120    -2.6453980     0.0739220
  H        5.1251800    -1.6708610    -0.1624140
  H        5.3198140    -0.0200540    -0.5682940
units angstrom
no_reorient  #important for SAPT in psi4, default
symmetry c1  #important for SAPT in psi4, default
}

set PROPERTIES_ORIGIN ["COM"]
properties('MP2/aug-cc-pvtz', properties = ['dipole'])
--------------------------------------------------------------------------

    Molecular point group: c1
  Charge       = 0
  Multiplicity = 1
  Basis Set: AUG-CC-PVTZ
    Blend: AUG-CC-PVTZ
  Basis Set: (AUG-CC-PVTZ AUX)
    Blend: AUG-CC-PVTZ-JKFIT

    Orbital Energies [Eh]
    ---------------------

    Doubly Occupied:

       1A    -20.581688     2A    -20.580220     3A    -20.557702
       4A    -20.557126     5A    -20.522154     6A    -15.636534
       7A    -15.600336     8A    -15.553493     9A    -11.388014
      10A    -11.358304    11A    -11.341753    12A    -11.327589
      13A    -11.300539    14A    -11.296707    15A    -11.295948
      16A    -11.292860    17A    -11.247962    18A     -1.426551
      19A     -1.395913    20A     -1.379755    21A     -1.371636
      22A     -1.346300    23A     -1.306459    24A     -1.273661
      25A     -1.182498    26A     -1.084365    27A     -1.066642
      28A     -1.022115    29A     -0.935617    30A     -0.907798
      31A     -0.877602    32A     -0.833013    33A     -0.810928
      34A     -0.767345    35A     -0.751984    36A     -0.736505
      37A     -0.719799    38A     -0.702582    39A     -0.697896
      40A     -0.684391    41A     -0.672256    42A     -0.654286
      43A     -0.651697    44A     -0.638602    45A     -0.619876
      46A     -0.613257    47A     -0.606143    48A     -0.594669
      49A     -0.574787    50A     -0.569325    51A     -0.553752
      52A     -0.545376    53A     -0.537418    54A     -0.531889
      55A     -0.498521    56A     -0.477071    57A     -0.474158
      58A     -0.461661    59A     -0.460061    60A     -0.452693
      61A     -0.441588    62A     -0.433038    63A     -0.395692
      64A     -0.351741

  @DF-RHF Final Energy:  -886.37317089847318

   => Energetics <=

    Nuclear Repulsion Energy =           1323.6971004243362131
    One-Electron Energy =               -3845.0808695521091067
    Two-Electron Energy =                1635.0105982292998306
    Total Energy =                       -886.3731708984732904
  Basis Set: (AUG-CC-PVTZ AUX)
    Blend: AUG-CC-PVTZ-RI
    Molecular point group: c1

    Geometry (in Angstrom), charge = 0, multiplicity = 1:

       Center              X                  Y                   Z               Mass
    ------------   -----------------  -----------------  -----------------  -----------------
         O           -1.248803463269    -0.653420687922     1.032815025350    15.994914619570
         O           -1.245677463269     2.482098312078    -0.685862974650    15.994914619570
         O           -3.217232463269     1.520346312078     0.745187025350    15.994914619570
         O           -2.357731463269    -3.067589687922     0.095240025350    15.994914619570
         O            1.359827536731     2.246281312078    -0.076241974650    15.994914619570
         N            0.842701536731     0.044470312078     0.256243025350    14.003074004430
         N            3.056523536731     0.719750312078    -0.293426974650    14.003074004430
         N            4.715760536731    -0.837407687922    -0.571997974650    14.003074004430
         C           -1.290186463269     1.077677312078    -0.591776974650    12.000000000000
         C           -2.715873463269     0.654454312078    -0.257092974650    12.000000000000
         C           -0.522791563269     0.492969212078     0.597883925350    12.000000000000
         C           -2.529958463269    -0.717638687922     0.361356025350    12.000000000000
         C           -2.529046463269    -1.851145687922    -0.638989974650    12.000000000000
         C            1.229982836731    -1.259115087922     0.308006625350    12.000000000000
         C            1.754891536731     1.066682312078    -0.059102974650    12.000000000000
         C            2.510398536731    -1.609892687922     0.047295025350    12.000000000000
         C            3.411280536731    -0.551405687922    -0.258624974650    12.000000000000
         H           -0.938308463269     0.590651312078    -1.514590974650     1.007825032230
         H           -3.363284463269     0.641912312078    -1.146164974650     1.007825032230
         H           -0.440992463269     1.221127312078     1.404298025350     1.007825032230
         H           -3.282659463269    -0.909486687922     1.131083025350     1.007825032230
         H           -1.714010463269    -1.701057687922    -1.369163974650     1.007825032230
         H           -3.486263463269    -1.834756687922    -1.183834974650     1.007825032230
         H           -0.298227463269     2.712426312078    -0.524699974650     1.007825032230
         H           -2.848258463269     2.398990312078     0.508963025350     1.007825032230
         H            0.433608536731    -1.964189687922     0.569368025350     1.007825032230
         H           -2.434576463269    -3.799184687922    -0.542932974650     1.007825032230
         H            2.828409536731    -2.646150687922     0.074222025350     1.007825032230
         H            5.124477536731    -1.671613687922    -0.162113974650     1.007825032230
         H            5.319111536731    -0.020806687922    -0.567993974650     1.007825032230

  Basis Set: AUG-CC-PVTZ
    Blend: AUG-CC-PVTZ
  Basis Set: (AUG-CC-PVTZ AUX)
    Blend: AUG-CC-PVTZ-JKFIT
	 Reference Energy          =    -886.3731708984731767 [Eh]
	 Singles Energy            =      -0.0000000000000000 [Eh]
	 Same-Spin Energy          =      -0.9011376324173719 [Eh]
	 Opposite-Spin Energy      =      -2.7149243647451202 [Eh]
	 Correlation Energy        =      -3.6160619971624923 [Eh]
	 Total Energy              =    -889.9892328956357233 [Eh]

	 ================> DF-SCS-MP2 Energies <==================
	-----------------------------------------------------------
	 SCS Same-Spin Scale       =       0.3333333333333333 [-]
	 SCS Opposite-Spin Scale   =       1.2000000000000000 [-]
	 SCS Same-Spin Energy      =      -0.3003792108057906 [Eh]
	 SCS Opposite-Spin Energy  =      -3.2579092376941441 [Eh]
	 SCS Correlation Energy    =      -3.5582884484999346 [Eh]
	 SCS Total Energy          =    -889.9314593469731562 [Eh]
	-----------------------------------------------------------

  Dipole Moment: [D]
     X:     1.7693      Y:    -5.9234      Z:    -1.8303     Total:     6.4472

*** Psi4 exiting successfully. Buy a developer a beer!
