                               Psi4 1.3.2 release

  ==> Input File <==

--------------------------------------------------------------------------
#psi4
#
memory 32 gb

molecule  {
0 1
  O       -1.2481010    -0.6526680     1.0325150
  O       -1.2449750     2.4828510    -0.6861630
  O       -3.2165300     1.5210990     0.7448870
  O       -2.3570290    -3.0668370     0.0949400
  O        1.3605300     2.2470340    -0.0765420
  N        0.8434040     0.0452230     0.2559430
  N        3.0572260     0.7205030    -0.2937270
  N        4.7164630    -0.8366550    -0.5722980
  C       -1.2964915     1.1469777    -0.5505500
  C       -2.7151710     0.6552070    -0.2573930
  C       -0.5254080     0.4815200     0.6000940
  C       -2.5292560    -0.7168860     0.3610560
  C       -2.5283440    -1.8503930    -0.6392900
  C        1.2197750    -1.2614080     0.3112740
  C        1.7555940     1.0674350    -0.0594030
  C        2.5111010    -1.6091400     0.0469950
  C        3.4119830    -0.5506530    -0.2589250
  H       -0.9376060     0.5914040    -1.5148910
  H       -3.3625820     0.6426650    -1.1464650
  H       -0.4691625     1.2588620     1.3709478
  H       -3.2819570    -0.9087340     1.1307830
  H       -1.7133080    -1.7003050    -1.3694640
  H       -3.4855610    -1.8340040    -1.1841350
  H       -0.2975250     2.7131790    -0.5250000
  H       -2.8475560     2.3997430     0.5086630
  H        0.4343110    -1.9634370     0.5690680
  H       -2.4338740    -3.7984320    -0.5432330
  H        2.8291120    -2.6453980     0.0739220
  H        5.1251800    -1.6708610    -0.1624140
  H        5.3198140    -0.0200540    -0.5682940
units angstrom
no_reorient  #important for SAPT in psi4, default
symmetry c1  #important for SAPT in psi4, default
}

set PROPERTIES_ORIGIN ["COM"]
properties('MP2/aug-cc-pvtz', properties = ['dipole'])
--------------------------------------------------------------------------

    Molecular point group: c1
  Charge       = 0
  Multiplicity = 1
  Basis Set: AUG-CC-PVTZ
    Blend: AUG-CC-PVTZ
  Basis Set: (AUG-CC-PVTZ AUX)
    Blend: AUG-CC-PVTZ-JKFIT

    Orbital Energies [Eh]
    ---------------------

    Doubly Occupied:

       1A    -20.582537     2A    -20.581473     3A    -20.564244
       4A    -20.556663     5A    -20.523246     6A    -15.638004
       7A    -15.599944     8A    -15.553596     9A    -11.389002
      10A    -11.358031    11A    -11.340410    12A    -11.328651
      13A    -11.300033    14A    -11.299309    15A    -11.297039
      16A    -11.291826    17A    -11.248593    18A     -1.432019
      19A     -1.398240    20A     -1.396677    21A     -1.373538
      22A     -1.354777    23A     -1.306539    24A     -1.273810
      25A     -1.182410    26A     -1.081752    27A     -1.064336
      28A     -1.019819    29A     -0.934776    30A     -0.909333
      31A     -0.877524    32A     -0.831801    33A     -0.811555
      34A     -0.766836    35A     -0.755132    36A     -0.739551
      37A     -0.719679    38A     -0.705131    39A     -0.699217
      40A     -0.686006    41A     -0.672968    42A     -0.655563
      43A     -0.652307    44A     -0.638165    45A     -0.623217
      46A     -0.618154    47A     -0.606472    48A     -0.597619
      49A     -0.577302    50A     -0.570451    51A     -0.559626
      52A     -0.546371    53A     -0.542206    54A     -0.532147
      55A     -0.499194    56A     -0.477341    57A     -0.471148
      58A     -0.463094    59A     -0.460785    60A     -0.441808
      61A     -0.436915    62A     -0.430471    63A     -0.394653
      64A     -0.349990

  @DF-RHF Final Energy:  -886.36583602751512

   => Energetics <=

    Nuclear Repulsion Energy =           1324.0887656964475809
    One-Electron Energy =               -3845.7271516829641769
    Two-Electron Energy =                1635.2725499590012532
    Total Energy =                       -886.3658360275151153
  Basis Set: (AUG-CC-PVTZ AUX)
    Blend: AUG-CC-PVTZ-RI
    Molecular point group: c1

    Geometry (in Angstrom), charge = 0, multiplicity = 1:

       Center              X                  Y                   Z               Mass
    ------------   -----------------  -----------------  -----------------  -----------------
         O           -1.247635401808    -0.656205196781     1.030602038004    15.994914619570
         O           -1.244509401808     2.479313803219    -0.688075961996    15.994914619570
         O           -3.216064401808     1.517561803219     0.742974038004    15.994914619570
         O           -2.356563401808    -3.070374196781     0.093027038004    15.994914619570
         O            1.360995598192     2.243496803219    -0.078454961996    15.994914619570
         N            0.843869598192     0.041685803219     0.254030038004    14.003074004430
         N            3.057691598192     0.716965803219    -0.295639961996    14.003074004430
         N            4.716928598192    -0.840192196781    -0.574210961996    14.003074004430
         C           -1.296025901808     1.143440503219    -0.552462961996    12.000000000000
         C           -2.714705401808     0.651669803219    -0.259305961996    12.000000000000
         C           -0.524942401808     0.477982803219     0.598181038004    12.000000000000
         C           -2.528790401808    -0.720423196781     0.359143038004    12.000000000000
         C           -2.527878401808    -1.853930196781    -0.641202961996    12.000000000000
         C            1.220240598192    -1.264945196781     0.309361038004    12.000000000000
         C            1.756059598192     1.063897803219    -0.061315961996    12.000000000000
         C            2.511566598192    -1.612677196781     0.045082038004    12.000000000000
         C            3.412448598192    -0.554190196781    -0.260837961996    12.000000000000
         H           -0.937140401808     0.587866803219    -1.516803961996     1.007825032230
         H           -3.362116401808     0.639127803219    -1.148377961996     1.007825032230
         H           -0.468696901808     1.255324803219     1.369034838004     1.007825032230
         H           -3.281491401808    -0.912271196781     1.128870038004     1.007825032230
         H           -1.712842401808    -1.703842196781    -1.371376961996     1.007825032230
         H           -3.485095401808    -1.837541196781    -1.186047961996     1.007825032230
         H           -0.297059401808     2.709641803219    -0.526912961996     1.007825032230
         H           -2.847090401808     2.396205803219     0.506750038004     1.007825032230
         H            0.434776598192    -1.966974196781     0.567155038004     1.007825032230
         H           -2.433408401808    -3.801969196781    -0.545145961996     1.007825032230
         H            2.829577598192    -2.648935196781     0.072009038004     1.007825032230
         H            5.125645598192    -1.674398196781    -0.164326961996     1.007825032230
         H            5.320279598192    -0.023591196781    -0.570206961996     1.007825032230

  Basis Set: AUG-CC-PVTZ
    Blend: AUG-CC-PVTZ
  Basis Set: (AUG-CC-PVTZ AUX)
    Blend: AUG-CC-PVTZ-JKFIT
	 Reference Energy          =    -886.3658360275151153 [Eh]
	 Singles Energy            =      -0.0000000000000000 [Eh]
	 Same-Spin Energy          =      -0.9015280585934978 [Eh]
	 Opposite-Spin Energy      =      -2.7145515243871077 [Eh]
	 Correlation Energy        =      -3.6160795829806056 [Eh]
	 Total Energy              =    -889.9819156104957756 [Eh]

	 ================> DF-SCS-MP2 Energies <==================
	-----------------------------------------------------------
	 SCS Same-Spin Scale       =       0.3333333333333333 [-]
	 SCS Opposite-Spin Scale   =       1.2000000000000000 [-]
	 SCS Same-Spin Energy      =      -0.3005093528644993 [Eh]
	 SCS Opposite-Spin Energy  =      -3.2574618292645292 [Eh]
	 SCS Correlation Energy    =      -3.5579711821290285 [Eh]
	 SCS Total Energy          =    -889.9238072096441101 [Eh]
	-----------------------------------------------------------

  Dipole Moment: [D]
     X:     1.7300      Y:    -5.7434      Z:    -1.7900     Total:     6.2597

*** Psi4 exiting successfully. Buy a developer a beer!
