                               Psi4 1.3.2 release

  ==> Input File <==

--------------------------------------------------------------------------
#psi4
#
memory 32 gb

molecule  {
0 1
  O       -1.2481010    -0.6526680     1.0325150
  O       -1.2449750     2.4828510    -0.6861630
  O       -3.2165300     1.5210990     0.7448870
  O       -2.3570290    -3.0668370     0.0949400
  O        1.3605300     2.2470340    -0.0765420
  N        0.8434040     0.0452230     0.2559430
  N        3.0572260     0.7205030    -0.2937270
  N        4.7164630    -0.8366550    -0.5722980
  C       -1.2829027     1.0756939    -0.5664445
  C       -2.7151710     0.6552070    -0.2573930
  C       -0.5254080     0.4815200     0.6000940
  C       -2.5292560    -0.7168860     0.3610560
  C       -2.5283440    -1.8503930    -0.6392900
  C        1.2197750    -1.2614080     0.3112740
  C        1.7555940     1.0674350    -0.0594030
  C        2.5111010    -1.6091400     0.0469950
  C        3.4119830    -0.5506530    -0.2589250
  H       -0.9376060     0.5914040    -1.5148910
  H       -3.3772721     0.6370038    -1.1354808
  H       -0.4402900     1.2218800     1.4039980
  H       -3.2819570    -0.9087340     1.1307830
  H       -1.7133080    -1.7003050    -1.3694640
  H       -3.4855610    -1.8340040    -1.1841350
  H       -0.2975250     2.7131790    -0.5250000
  H       -2.8475560     2.3997430     0.5086630
  H        0.4343110    -1.9634370     0.5690680
  H       -2.4338740    -3.7984320    -0.5432330
  H        2.8291120    -2.6453980     0.0739220
  H        5.1251800    -1.6708610    -0.1624140
  H        5.3198140    -0.0200540    -0.5682940
units angstrom
no_reorient  #important for SAPT in psi4, default
symmetry c1  #important for SAPT in psi4, default
}

set PROPERTIES_ORIGIN ["COM"]
properties('MP2/aug-cc-pvtz', properties = ['dipole'])
--------------------------------------------------------------------------

    Molecular point group: c1
  Charge       = 0
  Multiplicity = 1
  Basis Set: AUG-CC-PVTZ
    Blend: AUG-CC-PVTZ
  Basis Set: (AUG-CC-PVTZ AUX)
    Blend: AUG-CC-PVTZ-JKFIT

    Orbital Energies [Eh]
    ---------------------

    Doubly Occupied:

       1A    -20.582215     2A    -20.582036     3A    -20.557270
       4A    -20.557145     5A    -20.522223     6A    -15.637335
       7A    -15.600037     8A    -15.553543     9A    -11.388543
      10A    -11.358095    11A    -11.341712    12A    -11.328858
      13A    -11.301099    14A    -11.297122    15A    -11.296742
      16A    -11.293099    17A    -11.248819    18A     -1.430332
      19A     -1.396731    20A     -1.379669    21A     -1.372730
      22A     -1.345623    23A     -1.306318    24A     -1.274158
      25A     -1.182525    26A     -1.082943    27A     -1.067813
      28A     -1.024107    29A     -0.935836    30A     -0.909782
      31A     -0.877751    32A     -0.831197    33A     -0.813076
      34A     -0.767197    35A     -0.753316    36A     -0.736023
      37A     -0.720360    38A     -0.703159    39A     -0.697049
      40A     -0.685907    41A     -0.671997    42A     -0.654676
      43A     -0.651442    44A     -0.638821    45A     -0.620803
      46A     -0.614124    47A     -0.606455    48A     -0.594411
      49A     -0.576338    50A     -0.569867    51A     -0.554266
      52A     -0.545328    53A     -0.537811    54A     -0.531846
      55A     -0.498109    56A     -0.477973    57A     -0.473031
      58A     -0.462518    59A     -0.460285    60A     -0.451638
      61A     -0.442664    62A     -0.433306    63A     -0.395791
      64A     -0.350593

  @DF-RHF Final Energy:  -886.37236803533733

   => Energetics <=

    Nuclear Repulsion Energy =           1324.1223514944422277
    One-Electron Energy =               -3845.8822692835251473
    Two-Electron Energy =                1635.3875497537455885
    Total Energy =                       -886.3723680353373311
  Basis Set: (AUG-CC-PVTZ AUX)
    Blend: AUG-CC-PVTZ-RI
    Molecular point group: c1

    Geometry (in Angstrom), charge = 0, multiplicity = 1:

       Center              X                  Y                   Z               Mass
    ------------   -----------------  -----------------  -----------------  -----------------
         O           -1.248365017366    -0.652509450188     1.031204110184    15.994914619570
         O           -1.245239017366     2.483009549812    -0.687473889816    15.994914619570
         O           -3.216794017366     1.521257549812     0.743576110184    15.994914619570
         O           -2.357293017366    -3.066678450188     0.093629110184    15.994914619570
         O            1.360265982634     2.247192549812    -0.077852889816    15.994914619570
         N            0.843139982634     0.045381549812     0.254632110184    14.003074004430
         N            3.056961982634     0.720661549812    -0.295037889816    14.003074004430
         N            4.716198982634    -0.836496450188    -0.573608889816    14.003074004430
         C           -1.283166717366     1.075852449812    -0.567755389816    12.000000000000
         C           -2.715435017366     0.655365549812    -0.258703889816    12.000000000000
         C           -0.525672017366     0.481678549812     0.598783110184    12.000000000000
         C           -2.529520017366    -0.716727450188     0.359745110184    12.000000000000
         C           -2.528608017366    -1.850234450188    -0.640600889816    12.000000000000
         C            1.219510982634    -1.261249450188     0.309963110184    12.000000000000
         C            1.755329982634     1.067593549812    -0.060713889816    12.000000000000
         C            2.510836982634    -1.608981450188     0.045684110184    12.000000000000
         C            3.411718982634    -0.550494450188    -0.260235889816    12.000000000000
         H           -0.937870017366     0.591562549812    -1.516201889816     1.007825032230
         H           -3.377536117366     0.637162349812    -1.136791689816     1.007825032230
         H           -0.440554017366     1.222038549812     1.402687110184     1.007825032230
         H           -3.282221017366    -0.908575450188     1.129472110184     1.007825032230
         H           -1.713572017366    -1.700146450188    -1.370774889816     1.007825032230
         H           -3.485825017366    -1.833845450188    -1.185445889816     1.007825032230
         H           -0.297789017366     2.713337549812    -0.526310889816     1.007825032230
         H           -2.847820017366     2.399901549812     0.507352110184     1.007825032230
         H            0.434046982634    -1.963278450188     0.567757110184     1.007825032230
         H           -2.434138017366    -3.798273450188    -0.544543889816     1.007825032230
         H            2.828847982634    -2.645239450188     0.072611110184     1.007825032230
         H            5.124915982634    -1.670702450188    -0.163724889816     1.007825032230
         H            5.319549982634    -0.019895450188    -0.569604889816     1.007825032230

  Basis Set: AUG-CC-PVTZ
    Blend: AUG-CC-PVTZ
  Basis Set: (AUG-CC-PVTZ AUX)
    Blend: AUG-CC-PVTZ-JKFIT
	 Reference Energy          =    -886.3723680353373311 [Eh]
	 Singles Energy            =      -0.0000000000000000 [Eh]
	 Same-Spin Energy          =      -0.9013776014084544 [Eh]
	 Opposite-Spin Energy      =      -2.7151630227545214 [Eh]
	 Correlation Energy        =      -3.6165406241629756 [Eh]
	 Total Energy              =    -889.9889086595003391 [Eh]

	 ================> DF-SCS-MP2 Energies <==================
	-----------------------------------------------------------
	 SCS Same-Spin Scale       =       0.3333333333333333 [-]
	 SCS Opposite-Spin Scale   =       1.2000000000000000 [-]
	 SCS Same-Spin Energy      =      -0.3004592004694848 [Eh]
	 SCS Opposite-Spin Energy  =      -3.2581956273054256 [Eh]
	 SCS Correlation Energy    =      -3.5586548277749102 [Eh]
	 SCS Total Energy          =    -889.9310228631122754 [Eh]
	-----------------------------------------------------------

  Dipole Moment: [D]
     X:     1.7232      Y:    -5.9643      Z:    -1.7991     Total:     6.4636

*** Psi4 exiting successfully. Buy a developer a beer!
