                               Psi4 1.4a3.dev225

  ==> Input File <==

--------------------------------------------------------------------------
#psi4
#
memory 32 gb

molecule  {
0 1
  O       -1.3191770     0.6538360    -1.0992360
  O       -1.5735610    -2.4640850     0.5135810
  O       -3.5606630    -1.0699430    -0.4600060
  O       -1.4399290     3.1254620     0.1265180
  O        1.1065530    -2.3833650     0.0076020
  N        0.7686360    -0.1579440    -0.3706350
  N        2.9363770    -0.9938720     0.1460080
  N        4.7058880     0.4431110     0.3611260
  C       -1.3768610    -1.0680440     0.5552780
  C       -2.7379840    -0.3746360     0.4578480
  C       -0.6377490    -0.5042940    -0.6790150
  C       -2.3659124     0.9831773    -0.1666151
  C       -1.8992030     1.9895750     0.8571380
  C        1.2309690     1.1190800    -0.4442230
  C        1.6104480    -1.2470590    -0.0585760
  C        2.5474650     1.3753690    -0.1998620
  C        3.3802090     0.2523040     0.0808410
  H       -0.8441360    -0.7686950     1.4698480
  H       -3.2257400    -0.2778790     1.4400230
  H       -0.6227070    -1.2428120    -1.4883720
  H       -3.1941750     1.3785730    -0.7472070
  H       -1.0952130     1.5703990     1.4802000
  H       -2.7410530     2.2466610     1.5166010
  H       -0.6710550    -2.8260740     0.3542250
  H       -3.3063470    -2.0105220    -0.3629290
  H        0.4929290     1.8778260    -0.6840360
  H       -1.2098800     3.8154810     0.7720340
  H        2.9334840     2.3875570    -0.2389120
  H        5.1589650     1.2712730    -0.0008400
  H        5.2635310    -0.4031270     0.3606700
units angstrom
no_reorient  #important for SAPT in psi4, default
symmetry c1  #important for SAPT in psi4, default
}

set PROPERTIES_ORIGIN ["COM"]
properties('MP2/aug-cc-pvtz', properties = ['dipole'])
--------------------------------------------------------------------------

    Molecular point group: c1
  Charge       = 0
  Multiplicity = 1
  Basis Set: AUG-CC-PVTZ
    Blend: AUG-CC-PVTZ
  Basis Set: (AUG-CC-PVTZ AUX)
    Blend: AUG-CC-PVTZ-JKFIT

    Orbital Energies [Eh]
    ---------------------

    Doubly Occupied:

       1A    -20.586459     2A    -20.581488     3A    -20.559127
       4A    -20.556087     5A    -20.519729     6A    -15.633026
       7A    -15.599693     8A    -15.551789     9A    -11.385998
      10A    -11.358096    11A    -11.339888    12A    -11.325183
      13A    -11.303129    14A    -11.297590    15A    -11.296571
      16A    -11.293794    17A    -11.246607    18A     -1.429605
      19A     -1.394245    20A     -1.382958    21A     -1.375533
      22A     -1.346058    23A     -1.303708    24A     -1.271448
      25A     -1.181248    26A     -1.079521    27A     -1.065837
      28A     -1.017909    29A     -0.936482    30A     -0.906808
      31A     -0.876271    32A     -0.829013    33A     -0.813137
      34A     -0.766624    35A     -0.750262    36A     -0.735486
      37A     -0.721894    38A     -0.708231    39A     -0.702916
      40A     -0.685347    41A     -0.674734    42A     -0.653718
      43A     -0.649170    44A     -0.633097    45A     -0.620639
      46A     -0.615404    47A     -0.608145    48A     -0.593102
      49A     -0.576990    50A     -0.566136    51A     -0.555855
      52A     -0.546660    53A     -0.536667    54A     -0.531703
      55A     -0.495638    56A     -0.480774    57A     -0.471987
      58A     -0.463837    59A     -0.457946    60A     -0.451944
      61A     -0.441598    62A     -0.430363    63A     -0.392267
      64A     -0.348256

  @DF-RHF Final Energy:  -886.37405737618167

   => Energetics <=

    Nuclear Repulsion Energy =           1334.4385339601237774
    One-Electron Energy =               -3866.6023306285624130
    Two-Electron Energy =                1645.7897392922568542
    Total Energy =                       -886.3740573761815540
  Basis Set: (AUG-CC-PVTZ AUX)
    Blend: AUG-CC-PVTZ-RI
    Molecular point group: c1

    Geometry (in Angstrom), charge = 0, multiplicity = 1:

       Center              X                  Y                   Z               Mass
    ------------   -----------------  -----------------  -----------------  -----------------
         O           -1.332159168386     0.681577042217    -1.083055480594    15.994914619570
         O           -1.586543168386    -2.436343957783     0.529761519406    15.994914619570
         O           -3.573645168386    -1.042201957783    -0.443825480594    15.994914619570
         O           -1.452911168386     3.153203042217     0.142698519406    15.994914619570
         O            1.093570831614    -2.355623957783     0.023782519406    15.994914619570
         N            0.755653831614    -0.130202957783    -0.354454480594    14.003074004430
         N            2.923394831614    -0.966130957783     0.162188519406    14.003074004430
         N            4.692905831614     0.470852042217     0.377306519406    14.003074004430
         C           -1.389843168386    -1.040302957783     0.571458519406    12.000000000000
         C           -2.750966168386    -0.346894957783     0.474028519406    12.000000000000
         C           -0.650731168386    -0.476552957783    -0.662834480594    12.000000000000
         C           -2.378894568386     1.010918342217    -0.150434580594    12.000000000000
         C           -1.912185168386     2.017316042217     0.873318519406    12.000000000000
         C            1.217986831614     1.146821042217    -0.428042480594    12.000000000000
         C            1.597465831614    -1.219317957783    -0.042395480594    12.000000000000
         C            2.534482831614     1.403110042217    -0.183681480594    12.000000000000
         C            3.367226831614     0.280045042217     0.097021519406    12.000000000000
         H           -0.857118168386    -0.740953957783     1.486028519406     1.007825032230
         H           -3.238722168386    -0.250137957783     1.456203519406     1.007825032230
         H           -0.635689168386    -1.215070957783    -1.472191480594     1.007825032230
         H           -3.207157168386     1.406314042217    -0.731026480594     1.007825032230
         H           -1.108195168386     1.598140042217     1.496380519406     1.007825032230
         H           -2.754035168386     2.274402042217     1.532781519406     1.007825032230
         H           -0.684037168386    -2.798332957783     0.370405519406     1.007825032230
         H           -3.319329168386    -1.982780957783    -0.346748480594     1.007825032230
         H            0.479946831614     1.905567042217    -0.667855480594     1.007825032230
         H           -1.222862168386     3.843222042217     0.788214519406     1.007825032230
         H            2.920501831614     2.415298042217    -0.222731480594     1.007825032230
         H            5.145982831614     1.299014042217     0.015340519406     1.007825032230
         H            5.250548831614    -0.375385957783     0.376850519406     1.007825032230

  Basis Set: AUG-CC-PVTZ
    Blend: AUG-CC-PVTZ
  Basis Set: (AUG-CC-PVTZ AUX)
    Blend: AUG-CC-PVTZ-JKFIT
	 Reference Energy          =    -886.3740573761816677 [Eh]
	 Singles Energy            =      -0.0000000000000000 [Eh]
	 Same-Spin Energy          =      -0.9017238252569003 [Eh]
	 Opposite-Spin Energy      =      -2.7157608750068420 [Eh]
	 Correlation Energy        =      -3.6174847002637422 [Eh]
	 Total Energy              =    -889.9915420764453984 [Eh]

	 ================> DF-SCS-MP2 Energies <==================
	-----------------------------------------------------------
	 SCS Same-Spin Scale       =       0.3333333333333333 [-]
	 SCS Opposite-Spin Scale   =       1.2000000000000000 [-]
	 SCS Same-Spin Energy      =      -0.3005746084189668 [Eh]
	 SCS Opposite-Spin Energy  =      -3.2589130500082102 [Eh]
	 SCS Correlation Energy    =      -3.5594876584271771 [Eh]
	 SCS Total Energy          =    -889.9335450346088692 [Eh]
	-----------------------------------------------------------

  Dipole Moment: [D]
     X:     2.7444      Y:     5.8159      Z:     1.9391     Total:     6.7169

*** Psi4 exiting successfully. Buy a developer a beer!
