                               Psi4 1.4a3.dev225

  ==> Input File <==

--------------------------------------------------------------------------
#psi4
#
memory 32 gb

molecule  {
0 1
  O       -1.3191770     0.6538360    -1.0992360
  O       -1.5735610    -2.4640850     0.5135810
  O       -3.5606630    -1.0699430    -0.4600060
  O       -1.4399290     3.1254620     0.1265180
  O        1.1065530    -2.3833650     0.0076020
  N        0.7686360    -0.1579440    -0.3706350
  N        2.9363770    -0.9938720     0.1460080
  N        4.7058880     0.4431110     0.3611260
  C       -1.3768610    -1.0680440     0.5552780
  C       -2.7379840    -0.3746360     0.4578480
  C       -0.6377490    -0.5042940    -0.6790150
  C       -2.3707440     0.9655450    -0.1585060
  C       -1.8992030     1.9895750     0.8571380
  C        1.2309690     1.1190800    -0.4442230
  C        1.6104480    -1.2470590    -0.0585760
  C        2.5474650     1.3753690    -0.1998620
  C        3.3802090     0.2523040     0.0808410
  H       -0.8441360    -0.7686950     1.4698480
  H       -3.2257400    -0.2778790     1.4400230
  H       -0.6227070    -1.2428120    -1.4883720
  H       -3.1941750     1.3785730    -0.7472070
  H       -1.0952130     1.5703990     1.4802000
  H       -2.7410530     2.2466610     1.5166010
  H       -0.6710550    -2.8260740     0.3542250
  H       -3.3063470    -2.0105220    -0.3629290
  H        0.4929290     1.8778260    -0.6840360
  H       -1.2051489     3.8296717     0.7853095
  H        2.9334840     2.3875570    -0.2389120
  H        5.1589650     1.2712730    -0.0008400
  H        5.2635310    -0.4031270     0.3606700
units angstrom
no_reorient  #important for SAPT in psi4, default
symmetry c1  #important for SAPT in psi4, default
}

set PROPERTIES_ORIGIN ["COM"]
properties('MP2/aug-cc-pvtz', properties = ['dipole'])
--------------------------------------------------------------------------

    Molecular point group: c1
  Charge       = 0
  Multiplicity = 1
  Basis Set: AUG-CC-PVTZ
    Blend: AUG-CC-PVTZ
  Basis Set: (AUG-CC-PVTZ AUX)
    Blend: AUG-CC-PVTZ-JKFIT

    Orbital Energies [Eh]
    ---------------------

    Doubly Occupied:

       1A    -20.588470     2A    -20.581324     3A    -20.559289
       4A    -20.556370     5A    -20.519655     6A    -15.632897
       7A    -15.599620     8A    -15.551696     9A    -11.385897
      10A    -11.358004    11A    -11.339515    12A    -11.325041
      13A    -11.303315    14A    -11.297827    15A    -11.296902
      16A    -11.293439    17A    -11.246485    18A     -1.429057
      19A     -1.393666    20A     -1.380832    21A     -1.373846
      22A     -1.346474    23A     -1.303591    24A     -1.271258
      25A     -1.181134    26A     -1.079241    27A     -1.067616
      28A     -1.016894    29A     -0.935741    30A     -0.906479
      31A     -0.876590    32A     -0.829907    33A     -0.812260
      34A     -0.766399    35A     -0.750076    36A     -0.734511
      37A     -0.721226    38A     -0.705355    39A     -0.703185
      40A     -0.684917    41A     -0.674970    42A     -0.653136
      43A     -0.648959    44A     -0.633294    45A     -0.620103
      46A     -0.614935    47A     -0.607590    48A     -0.593049
      49A     -0.576790    50A     -0.564810    51A     -0.555366
      52A     -0.547974    53A     -0.536434    54A     -0.530668
      55A     -0.495554    56A     -0.480355    57A     -0.473583
      58A     -0.463235    59A     -0.457892    60A     -0.452867
      61A     -0.441945    62A     -0.430182    63A     -0.392198
      64A     -0.348164

  @DF-RHF Final Energy:  -886.37258959530232

   => Energetics <=

    Nuclear Repulsion Energy =           1334.4383931797003697
    One-Electron Energy =               -3866.6218514731272080
    Two-Electron Energy =                1645.8108686981247502
    Total Energy =                       -886.3725895953023155
  Basis Set: (AUG-CC-PVTZ AUX)
    Blend: AUG-CC-PVTZ-RI
    Molecular point group: c1

    Geometry (in Angstrom), charge = 0, multiplicity = 1:

       Center              X                  Y                   Z               Mass
    ------------   -----------------  -----------------  -----------------  -----------------
         O           -1.331940269790     0.682388632545    -1.083510828905    15.994914619570
         O           -1.586324269790    -2.435532367455     0.529306171095    15.994914619570
         O           -3.573426269790    -1.041390367455    -0.444280828905    15.994914619570
         O           -1.452692269790     3.154014632545     0.142243171095    15.994914619570
         O            1.093789730210    -2.354812367455     0.023327171095    15.994914619570
         N            0.755872730210    -0.129391367455    -0.354909828905    14.003074004430
         N            2.923613730210    -0.965319367455     0.161733171095    14.003074004430
         N            4.693124730210     0.471663632545     0.376851171095    14.003074004430
         C           -1.389624269790    -1.039491367455     0.571003171095    12.000000000000
         C           -2.750747269790    -0.346083367455     0.473573171095    12.000000000000
         C           -0.650512269790    -0.475741367455    -0.663289828905    12.000000000000
         C           -2.383507269790     0.994097632545    -0.142780828905    12.000000000000
         C           -1.911966269790     2.018127632545     0.872863171095    12.000000000000
         C            1.218205730210     1.147632632545    -0.428497828905    12.000000000000
         C            1.597684730210    -1.218506367455    -0.042850828905    12.000000000000
         C            2.534701730210     1.403921632545    -0.184136828905    12.000000000000
         C            3.367445730210     0.280856632545     0.096566171095    12.000000000000
         H           -0.856899269790    -0.740142367455     1.485573171095     1.007825032230
         H           -3.238503269790    -0.249326367455     1.455748171095     1.007825032230
         H           -0.635470269790    -1.214259367455    -1.472646828905     1.007825032230
         H           -3.206938269790     1.407125632545    -0.731481828905     1.007825032230
         H           -1.107976269790     1.598951632545     1.495925171095     1.007825032230
         H           -2.753816269790     2.275213632545     1.532326171095     1.007825032230
         H           -0.683818269790    -2.797521367455     0.369950171095     1.007825032230
         H           -3.319110269790    -1.981969367455    -0.347203828905     1.007825032230
         H            0.480165730210     1.906378632545    -0.668310828905     1.007825032230
         H           -1.217912169790     3.858224332545     0.801034671095     1.007825032230
         H            2.920720730210     2.416109632545    -0.223186828905     1.007825032230
         H            5.146201730210     1.299825632545     0.014885171095     1.007825032230
         H            5.250767730210    -0.374574367455     0.376395171095     1.007825032230

  Basis Set: AUG-CC-PVTZ
    Blend: AUG-CC-PVTZ
  Basis Set: (AUG-CC-PVTZ AUX)
    Blend: AUG-CC-PVTZ-JKFIT
	 Reference Energy          =    -886.3725895953023155 [Eh]
	 Singles Energy            =      -0.0000000000000000 [Eh]
	 Same-Spin Energy          =      -0.9020438630900014 [Eh]
	 Opposite-Spin Energy      =      -2.7165467357465496 [Eh]
	 Correlation Energy        =      -3.6185905988365512 [Eh]
	 Total Energy              =    -889.9911801941389058 [Eh]

	 ================> DF-SCS-MP2 Energies <==================
	-----------------------------------------------------------
	 SCS Same-Spin Scale       =       0.3333333333333333 [-]
	 SCS Opposite-Spin Scale   =       1.2000000000000000 [-]
	 SCS Same-Spin Energy      =      -0.3006812876966671 [Eh]
	 SCS Opposite-Spin Energy  =      -3.2598560828958596 [Eh]
	 SCS Correlation Energy    =      -3.5605373705925265 [Eh]
	 SCS Total Energy          =    -889.9331269658948713 [Eh]
	-----------------------------------------------------------

  Dipole Moment: [D]
     X:     2.7387      Y:     5.8161      Z:     1.9560     Total:     6.7196

*** Psi4 exiting successfully. Buy a developer a beer!
