                               Psi4 1.3.2 release

  ==> Input File <==

--------------------------------------------------------------------------
#psi4
#
memory 32 gb

molecule  {
0 1
  O       -1.2481010    -0.6526680     1.0325150
  O       -1.2449750     2.4828510    -0.6861630
  O       -3.2165300     1.5210990     0.7448870
  O       -2.3570290    -3.0668370     0.0949400
  O        1.3605300     2.2470340    -0.0765420
  N        0.8434040     0.0452230     0.2559430
  N        3.0572260     0.7205030    -0.2937270
  N        4.7164630    -0.8366550    -0.5722980
  C       -1.2894840     1.0784300    -0.5920770
  C       -2.7151710     0.6552070    -0.2573930
  C       -0.5254080     0.4815200     0.6000940
  C       -2.5292560    -0.7168860     0.3610560
  C       -2.4705703    -1.8130438    -0.6784271
  C        1.2197750    -1.2614080     0.3112740
  C        1.7555940     1.0674350    -0.0594030
  C        2.5111010    -1.6091400     0.0469950
  C        3.4119830    -0.5506530    -0.2589250
  H       -0.9376060     0.5914040    -1.5148910
  H       -3.3625820     0.6426650    -1.1464650
  H       -0.4402900     1.2218800     1.4039980
  H       -3.2669734    -0.8593695     1.1556097
  H       -1.7133080    -1.7003050    -1.3694640
  H       -3.4855610    -1.8340040    -1.1841350
  H       -0.2975250     2.7131790    -0.5250000
  H       -2.8475560     2.3997430     0.5086630
  H        0.4343110    -1.9634370     0.5690680
  H       -2.4338740    -3.7984320    -0.5432330
  H        2.8291120    -2.6453980     0.0739220
  H        5.1251800    -1.6708610    -0.1624140
  H        5.3198140    -0.0200540    -0.5682940
units angstrom
no_reorient  #important for SAPT in psi4, default
symmetry c1  #important for SAPT in psi4, default
}

set PROPERTIES_ORIGIN ["COM"]
properties('MP2/aug-cc-pvtz', properties = ['dipole'])
--------------------------------------------------------------------------

    Molecular point group: c1
  Charge       = 0
  Multiplicity = 1
  Basis Set: AUG-CC-PVTZ
    Blend: AUG-CC-PVTZ
  Basis Set: (AUG-CC-PVTZ AUX)
    Blend: AUG-CC-PVTZ-JKFIT

    Orbital Energies [Eh]
    ---------------------

    Doubly Occupied:

       1A    -20.580653     2A    -20.577960     3A    -20.558373
       4A    -20.557855     5A    -20.522412     6A    -15.637358
       7A    -15.600195     8A    -15.553761     9A    -11.388666
      10A    -11.358261    11A    -11.341687    12A    -11.328927
      13A    -11.301532    14A    -11.298312    15A    -11.297358
      16A    -11.292480    17A    -11.249019    18A     -1.429616
      19A     -1.396423    20A     -1.379198    21A     -1.357688
      22A     -1.346930    23A     -1.306468    24A     -1.274216
      25A     -1.182648    26A     -1.082428    27A     -1.069851
      28A     -1.021630    29A     -0.937464    30A     -0.910954
      31A     -0.879278    32A     -0.833940    33A     -0.813509
      34A     -0.767626    35A     -0.752706    36A     -0.736145
      37A     -0.720155    38A     -0.699287    39A     -0.691994
      40A     -0.686930    41A     -0.675804    42A     -0.655163
      43A     -0.650596    44A     -0.638287    45A     -0.620913
      46A     -0.612051    47A     -0.608164    48A     -0.593799
      49A     -0.573010    50A     -0.569575    51A     -0.550467
      52A     -0.545162    53A     -0.537390    54A     -0.533582
      55A     -0.499140    56A     -0.480347    57A     -0.472619
      58A     -0.465231    59A     -0.460708    60A     -0.454293
      61A     -0.440642    62A     -0.433713    63A     -0.395558
      64A     -0.350444

  @DF-RHF Final Energy:  -886.36475715333597

   => Energetics <=

    Nuclear Repulsion Energy =           1324.1596061254429060
    One-Electron Energy =               -3845.9716184927910945
    Two-Electron Energy =                1635.4472552140121024
    Total Energy =                       -886.3647571533358587
  Basis Set: (AUG-CC-PVTZ AUX)
    Blend: AUG-CC-PVTZ-RI
    Molecular point group: c1

    Geometry (in Angstrom), charge = 0, multiplicity = 1:

       Center              X                  Y                   Z               Mass
    ------------   -----------------  -----------------  -----------------  -----------------
         O           -1.251015173971    -0.654716409601     1.034344093102    15.994914619570
         O           -1.247889173971     2.480802590399    -0.684333906898    15.994914619570
         O           -3.219444173971     1.519050590399     0.746716093102    15.994914619570
         O           -2.359943173971    -3.068885409601     0.096769093102    15.994914619570
         O            1.357615826029     2.244985590399    -0.074712906898    15.994914619570
         N            0.840489826029     0.043174590399     0.257772093102    14.003074004430
         N            3.054311826029     0.718454590399    -0.291897906898    14.003074004430
         N            4.713548826029    -0.838703409601    -0.570468906898    14.003074004430
         C           -1.292398173971     1.076381590399    -0.590247906898    12.000000000000
         C           -2.718085173971     0.653158590399    -0.255563906898    12.000000000000
         C           -0.528322173971     0.479471590399     0.601923093102    12.000000000000
         C           -2.532170173971    -0.718934409601     0.362885093102    12.000000000000
         C           -2.473484473971    -1.815092209601    -0.676598006898    12.000000000000
         C            1.216860826029    -1.263456409601     0.313103093102    12.000000000000
         C            1.752679826029     1.065386590399    -0.057573906898    12.000000000000
         C            2.508186826029    -1.611188409601     0.048824093102    12.000000000000
         C            3.409068826029    -0.552701409601    -0.257095906898    12.000000000000
         H           -0.940520173971     0.589355590399    -1.513061906898     1.007825032230
         H           -3.365496173971     0.640616590399    -1.144635906898     1.007825032230
         H           -0.443204173971     1.219831590399     1.405827093102     1.007825032230
         H           -3.269887573971    -0.861417909601     1.157438793102     1.007825032230
         H           -1.716222173971    -1.702353409601    -1.367634906898     1.007825032230
         H           -3.488475173971    -1.836052409601    -1.182305906898     1.007825032230
         H           -0.300439173971     2.711130590399    -0.523170906898     1.007825032230
         H           -2.850470173971     2.397694590399     0.510492093102     1.007825032230
         H            0.431396826029    -1.965485409601     0.570897093102     1.007825032230
         H           -2.436788173971    -3.800480409601    -0.541403906898     1.007825032230
         H            2.826197826029    -2.647446409601     0.075751093102     1.007825032230
         H            5.122265826029    -1.672909409601    -0.160584906898     1.007825032230
         H            5.316899826029    -0.022102409601    -0.566464906898     1.007825032230

  Basis Set: AUG-CC-PVTZ
    Blend: AUG-CC-PVTZ
  Basis Set: (AUG-CC-PVTZ AUX)
    Blend: AUG-CC-PVTZ-JKFIT
	 Reference Energy          =    -886.3647571533359724 [Eh]
	 Singles Energy            =      -0.0000000000000000 [Eh]
	 Same-Spin Energy          =      -0.9015618287391136 [Eh]
	 Opposite-Spin Energy      =      -2.7162851439104823 [Eh]
	 Correlation Energy        =      -3.6178469726495956 [Eh]
	 Total Energy              =    -889.9826041259855174 [Eh]

	 ================> DF-SCS-MP2 Energies <==================
	-----------------------------------------------------------
	 SCS Same-Spin Scale       =       0.3333333333333333 [-]
	 SCS Opposite-Spin Scale   =       1.2000000000000000 [-]
	 SCS Same-Spin Energy      =      -0.3005206095797045 [Eh]
	 SCS Opposite-Spin Energy  =      -3.2595421726925786 [Eh]
	 SCS Correlation Energy    =      -3.5600627822722832 [Eh]
	 SCS Total Energy          =    -889.9248199356082978 [Eh]
	-----------------------------------------------------------

  Dipole Moment: [D]
     X:     1.7884      Y:    -5.7821      Z:    -1.8762     Total:     6.3365

*** Psi4 exiting successfully. Buy a developer a beer!
