                               Psi4 1.4a3.dev225

  ==> Input File <==

--------------------------------------------------------------------------
#psi4
#
memory 32 gb

molecule  {
0 1
  O       -1.3191770     0.6538360    -1.0992360
  O       -1.5735610    -2.4640850     0.5135810
  O       -3.5606630    -1.0699430    -0.4600060
  O       -1.4399290     3.1254620     0.1265180
  O        1.1065530    -2.3833650     0.0076020
  N        0.7686360    -0.1579440    -0.3706350
  N        2.9363770    -0.9938720     0.1460080
  N        4.7058880     0.4431110     0.3611260
  C       -1.3838340    -1.1175333     0.5537999
  C       -2.7379840    -0.3746360     0.4578480
  C       -0.6377490    -0.5042940    -0.6790150
  C       -2.3707440     0.9655450    -0.1585060
  C       -1.8992030     1.9895750     0.8571380
  C        1.2309690     1.1190800    -0.4442230
  C        1.6104480    -1.2470590    -0.0585760
  C        2.5474650     1.3753690    -0.1998620
  C        3.3802090     0.2523040     0.0808410
  H       -0.8441360    -0.7686950     1.4698480
  H       -3.2257400    -0.2778790     1.4400230
  H       -0.6227070    -1.2428120    -1.4883720
  H       -3.1941750     1.3785730    -0.7472070
  H       -1.0952130     1.5703990     1.4802000
  H       -2.7410530     2.2466610     1.5166010
  H       -0.6710550    -2.8260740     0.3542250
  H       -3.3063470    -2.0105220    -0.3629290
  H        0.4929290     1.8778260    -0.6840360
  H       -1.2098800     3.8154810     0.7720340
  H        2.9334840     2.3875570    -0.2389120
  H        5.1589650     1.2712730    -0.0008400
  H        5.2635310    -0.4031270     0.3606700
units angstrom
no_reorient  #important for SAPT in psi4, default
symmetry c1  #important for SAPT in psi4, default
}

set PROPERTIES_ORIGIN ["COM"]
properties('MP2/aug-cc-pvtz', properties = ['dipole'])
--------------------------------------------------------------------------

    Molecular point group: c1
  Charge       = 0
  Multiplicity = 1
  Basis Set: AUG-CC-PVTZ
    Blend: AUG-CC-PVTZ
  Basis Set: (AUG-CC-PVTZ AUX)
    Blend: AUG-CC-PVTZ-JKFIT

    Orbital Energies [Eh]
    ---------------------

    Doubly Occupied:

       1A    -20.586141     2A    -20.581043     3A    -20.564341
       4A    -20.555684     5A    -20.520083     6A    -15.632666
       7A    -15.599378     8A    -15.551553     9A    -11.385918
      10A    -11.357736    11A    -11.338152    12A    -11.324587
      13A    -11.302750    14A    -11.298550    15A    -11.297514
      16A    -11.292671    17A    -11.246098    18A     -1.429399
      19A     -1.395017    20A     -1.391973    21A     -1.379154
      22A     -1.352402    23A     -1.303494    24A     -1.270779
      25A     -1.180863    26A     -1.078281    27A     -1.064402
      28A     -1.012750    29A     -0.934983    30A     -0.906031
      31A     -0.876474    32A     -0.830391    33A     -0.810622
      34A     -0.765949    35A     -0.750172    36A     -0.738610
      37A     -0.721369    38A     -0.708624    39A     -0.704351
      40A     -0.684691    41A     -0.676056    42A     -0.652953
      43A     -0.649843    44A     -0.633324    45A     -0.623937
      46A     -0.616051    47A     -0.607785    48A     -0.595208
      49A     -0.577717    50A     -0.564861    51A     -0.558219
      52A     -0.550270    53A     -0.540769    54A     -0.530727
      55A     -0.495813    56A     -0.480142    57A     -0.469936
      58A     -0.461839    59A     -0.457988    60A     -0.449040
      61A     -0.437193    62A     -0.430068    63A     -0.391378
      64A     -0.347501

  @DF-RHF Final Energy:  -886.37262201329440

   => Energetics <=

    Nuclear Repulsion Energy =           1334.3023292583720831
    One-Electron Energy =               -3866.3013741686222602
    Two-Electron Energy =                1645.6264228969557735
    Total Energy =                       -886.3726220132944036
  Basis Set: (AUG-CC-PVTZ AUX)
    Blend: AUG-CC-PVTZ-RI
    Molecular point group: c1

    Geometry (in Angstrom), charge = 0, multiplicity = 1:

       Center              X                  Y                   Z               Mass
    ------------   -----------------  -----------------  -----------------  -----------------
         O           -1.331576430263     0.684890522996    -1.083382822181    15.994914619570
         O           -1.585960430263    -2.433030477004     0.529434177819    15.994914619570
         O           -3.573062430263    -1.038888477004    -0.444152822181    15.994914619570
         O           -1.452328430263     3.156516522996     0.142371177819    15.994914619570
         O            1.094153569737    -2.352310477004     0.023455177819    15.994914619570
         N            0.756236569737    -0.126889477004    -0.354781822181    14.003074004430
         N            2.923977569737    -0.962817477004     0.161861177819    14.003074004430
         N            4.693488569737     0.474165522996     0.376979177819    14.003074004430
         C           -1.396233430263    -1.086478777004     0.569653077819    12.000000000000
         C           -2.750383430263    -0.343581477004     0.473701177819    12.000000000000
         C           -0.650148430263    -0.473239477004    -0.663161822181    12.000000000000
         C           -2.383143430263     0.996599522996    -0.142652822181    12.000000000000
         C           -1.911602430263     2.020629522996     0.872991177819    12.000000000000
         C            1.218569569737     1.150134522996    -0.428369822181    12.000000000000
         C            1.598048569737    -1.216004477004    -0.042722822181    12.000000000000
         C            2.535065569737     1.406423522996    -0.184008822181    12.000000000000
         C            3.367809569737     0.283358522996     0.096694177819    12.000000000000
         H           -0.856535430263    -0.737640477004     1.485701177819     1.007825032230
         H           -3.238139430263    -0.246824477004     1.455876177819     1.007825032230
         H           -0.635106430263    -1.211757477004    -1.472518822181     1.007825032230
         H           -3.206574430263     1.409627522996    -0.731353822181     1.007825032230
         H           -1.107612430263     1.601453522996     1.496053177819     1.007825032230
         H           -2.753452430263     2.277715522996     1.532454177819     1.007825032230
         H           -0.683454430263    -2.795019477004     0.370078177819     1.007825032230
         H           -3.318746430263    -1.979467477004    -0.347075822181     1.007825032230
         H            0.480529569737     1.908880522996    -0.668182822181     1.007825032230
         H           -1.222279430263     3.846535522996     0.787887177819     1.007825032230
         H            2.921084569737     2.418611522996    -0.223058822181     1.007825032230
         H            5.146565569737     1.302327522996     0.015013177819     1.007825032230
         H            5.251131569737    -0.372072477004     0.376523177819     1.007825032230

  Basis Set: AUG-CC-PVTZ
    Blend: AUG-CC-PVTZ
  Basis Set: (AUG-CC-PVTZ AUX)
    Blend: AUG-CC-PVTZ-JKFIT
	 Reference Energy          =    -886.3726220132944036 [Eh]
	 Singles Energy            =      -0.0000000000000000 [Eh]
	 Same-Spin Energy          =      -0.9017742031899121 [Eh]
	 Opposite-Spin Energy      =      -2.7152518538744408 [Eh]
	 Correlation Energy        =      -3.6170260570643529 [Eh]
	 Total Energy              =    -889.9896480703587258 [Eh]

	 ================> DF-SCS-MP2 Energies <==================
	-----------------------------------------------------------
	 SCS Same-Spin Scale       =       0.3333333333333333 [-]
	 SCS Opposite-Spin Scale   =       1.2000000000000000 [-]
	 SCS Same-Spin Energy      =      -0.3005914010633040 [Eh]
	 SCS Opposite-Spin Energy  =      -3.2583022246493289 [Eh]
	 SCS Correlation Energy    =      -3.5588936257126331 [Eh]
	 SCS Total Energy          =    -889.9315156390069887 [Eh]
	-----------------------------------------------------------

  Dipole Moment: [D]
     X:     2.7076      Y:     5.6442      Z:     1.9476     Total:     6.5560

*** Psi4 exiting successfully. Buy a developer a beer!
