                               Psi4 1.3.2 release

  ==> Input File <==

--------------------------------------------------------------------------
#psi4
#
memory 32 gb

molecule  {
0 1
  O       -1.2481010    -0.6526680     1.0325150
  O       -1.2449750     2.4828510    -0.6861630
  O       -3.2165300     1.5210990     0.7448870
  O       -2.3570290    -3.0668370     0.0949400
  O        1.3605300     2.2470340    -0.0765420
  N        0.8434040     0.0452230     0.2559430
  N        3.0572260     0.7205030    -0.2937270
  N        4.7164630    -0.8366550    -0.5722980
  C       -1.2894840     1.0784300    -0.5920770
  C       -2.7151710     0.6552070    -0.2573930
  C       -0.5254080     0.4815200     0.6000940
  C       -2.5292560    -0.7168860     0.3610560
  C       -2.5341930    -1.8773717    -0.6809233
  C        1.2197750    -1.2614080     0.3112740
  C        1.7555940     1.0674350    -0.0594030
  C        2.5111010    -1.6091400     0.0469950
  C        3.4119830    -0.5506530    -0.2589250
  H       -0.9376060     0.5914040    -1.5148910
  H       -3.3625820     0.6426650    -1.1464650
  H       -0.4402900     1.2218800     1.4039980
  H       -3.2819570    -0.9087340     1.1307830
  H       -1.7133080    -1.7003050    -1.3694640
  H       -3.4855610    -1.8340040    -1.1841350
  H       -0.2975250     2.7131790    -0.5250000
  H       -2.8475560     2.3997430     0.5086630
  H        0.4343110    -1.9634370     0.5690680
  H       -2.4389037    -3.7755941    -0.5679031
  H        2.8291120    -2.6453980     0.0739220
  H        5.1251800    -1.6708610    -0.1624140
  H        5.3198140    -0.0200540    -0.5682940
units angstrom
no_reorient  #important for SAPT in psi4, default
symmetry c1  #important for SAPT in psi4, default
}

set PROPERTIES_ORIGIN ["COM"]
properties('MP2/aug-cc-pvtz', properties = ['dipole'])
--------------------------------------------------------------------------

    Molecular point group: c1
  Charge       = 0
  Multiplicity = 1
  Basis Set: AUG-CC-PVTZ
    Blend: AUG-CC-PVTZ
  Basis Set: (AUG-CC-PVTZ AUX)
    Blend: AUG-CC-PVTZ-JKFIT

    Orbital Energies [Eh]
    ---------------------

    Doubly Occupied:

       1A    -20.584525     2A    -20.581722     3A    -20.557048
       4A    -20.557006     5A    -20.521961     6A    -15.636906
       7A    -15.599875     8A    -15.553366     9A    -11.388244
      10A    -11.357882    11A    -11.341374    12A    -11.328565
      13A    -11.299546    14A    -11.297995    15A    -11.296389
      16A    -11.291697    17A    -11.248611    18A     -1.428661
      19A     -1.396202    20A     -1.380657    21A     -1.374509
      22A     -1.345805    23A     -1.306040    24A     -1.273725
      25A     -1.182224    26A     -1.081741    27A     -1.062735
      28A     -1.018539    29A     -0.935119    30A     -0.909893
      31A     -0.877814    32A     -0.831893    33A     -0.811698
      34A     -0.767015    35A     -0.752354    36A     -0.735169
      37A     -0.719984    38A     -0.701166    39A     -0.697690
      40A     -0.685788    41A     -0.672756    42A     -0.656578
      43A     -0.651914    44A     -0.638124    45A     -0.622118
      46A     -0.613212    47A     -0.605181    48A     -0.593825
      49A     -0.577111    50A     -0.570954    51A     -0.556079
      52A     -0.543494    53A     -0.537363    54A     -0.530581
      55A     -0.498073    56A     -0.482701    57A     -0.473787
      58A     -0.460272    59A     -0.458334    60A     -0.452761
      61A     -0.439493    62A     -0.432359    63A     -0.395153
      64A     -0.350004

  @DF-RHF Final Energy:  -886.37029929038727

   => Energetics <=

    Nuclear Repulsion Energy =           1322.8010982282630721
    One-Electron Energy =               -3843.2800664355813751
    Two-Electron Energy =                1634.1086689169310375
    Total Energy =                       -886.3702992903872655
  Basis Set: (AUG-CC-PVTZ AUX)
    Blend: AUG-CC-PVTZ-RI
    Molecular point group: c1

    Geometry (in Angstrom), charge = 0, multiplicity = 1:

       Center              X                  Y                   Z               Mass
    ------------   -----------------  -----------------  -----------------  -----------------
         O           -1.247791443067    -0.651430862318     1.034672531068    15.994914619570
         O           -1.244665443067     2.484088137682    -0.684005468932    15.994914619570
         O           -3.216220443067     1.522336137682     0.747044531068    15.994914619570
         O           -2.356719443067    -3.065599862318     0.097097531068    15.994914619570
         O            1.360839556933     2.248271137682    -0.074384468932    15.994914619570
         N            0.843713556933     0.046460137682     0.258100531068    14.003074004430
         N            3.057535556933     0.721740137682    -0.291569468932    14.003074004430
         N            4.716772556933    -0.835417862318    -0.570140468932    14.003074004430
         C           -1.289174443067     1.079667137682    -0.589919468932    12.000000000000
         C           -2.714861443067     0.656444137682    -0.255235468932    12.000000000000
         C           -0.525098443067     0.482757137682     0.602251531068    12.000000000000
         C           -2.528946443067    -0.715648862318     0.363213531068    12.000000000000
         C           -2.533883443067    -1.876134562318    -0.678765768932    12.000000000000
         C            1.220084556933    -1.260170862318     0.313431531068    12.000000000000
         C            1.755903556933     1.068672137682    -0.057245468932    12.000000000000
         C            2.511410556933    -1.607902862318     0.049152531068    12.000000000000
         C            3.412292556933    -0.549415862318    -0.256767468932    12.000000000000
         H           -0.937296443067     0.592641137682    -1.512733468932     1.007825032230
         H           -3.362272443067     0.643902137682    -1.144307468932     1.007825032230
         H           -0.439980443067     1.223117137682     1.406155531068     1.007825032230
         H           -3.281647443067    -0.907496862318     1.132940531068     1.007825032230
         H           -1.712998443067    -1.699067862318    -1.367306468932     1.007825032230
         H           -3.485251443067    -1.832766862318    -1.181977468932     1.007825032230
         H           -0.297215443067     2.714416137682    -0.522842468932     1.007825032230
         H           -2.847246443067     2.400980137682     0.510820531068     1.007825032230
         H            0.434620556933    -1.962199862318     0.571225531068     1.007825032230
         H           -2.438594143067    -3.774356962318    -0.565745568932     1.007825032230
         H            2.829421556933    -2.644160862318     0.076079531068     1.007825032230
         H            5.125489556933    -1.669623862318    -0.160256468932     1.007825032230
         H            5.320123556933    -0.018816862318    -0.566136468932     1.007825032230

  Basis Set: AUG-CC-PVTZ
    Blend: AUG-CC-PVTZ
  Basis Set: (AUG-CC-PVTZ AUX)
    Blend: AUG-CC-PVTZ-JKFIT
	 Reference Energy          =    -886.3702992903872655 [Eh]
	 Singles Energy            =      -0.0000000000000000 [Eh]
	 Same-Spin Energy          =      -0.9012680121333614 [Eh]
	 Opposite-Spin Energy      =      -2.7153841010202364 [Eh]
	 Correlation Energy        =      -3.6166521131535978 [Eh]
	 Total Energy              =    -889.9869514035408429 [Eh]

	 ================> DF-SCS-MP2 Energies <==================
	-----------------------------------------------------------
	 SCS Same-Spin Scale       =       0.3333333333333333 [-]
	 SCS Opposite-Spin Scale   =       1.2000000000000000 [-]
	 SCS Same-Spin Energy      =      -0.3004226707111204 [Eh]
	 SCS Opposite-Spin Energy  =      -3.2584609212242834 [Eh]
	 SCS Correlation Energy    =      -3.5588835919354040 [Eh]
	 SCS Total Energy          =    -889.9291828823227206 [Eh]
	-----------------------------------------------------------

  Dipole Moment: [D]
     X:     1.7070      Y:    -5.9527      Z:    -1.8573     Total:     6.4652

*** Psi4 exiting successfully. Buy a developer a beer!
