                               Psi4 1.3.2 release

  ==> Input File <==

--------------------------------------------------------------------------
#psi4
#
memory 32 gb

molecule  {
0 1
  O       -1.2481010    -0.6526680     1.0325150
  O       -1.2713836     2.4863582    -0.6174157
  O       -3.2165300     1.5210990     0.7448870
  O       -2.3570290    -3.0668370     0.0949400
  O        1.3605300     2.2470340    -0.0765420
  N        0.8434040     0.0452230     0.2559430
  N        3.0572260     0.7205030    -0.2937270
  N        4.7164630    -0.8366550    -0.5722980
  C       -1.2894840     1.0784300    -0.5920770
  C       -2.7151710     0.6552070    -0.2573930
  C       -0.5254080     0.4815200     0.6000940
  C       -2.5292560    -0.7168860     0.3610560
  C       -2.5283440    -1.8503930    -0.6392900
  C        1.2197750    -1.2614080     0.3112740
  C        1.7555940     1.0674350    -0.0594030
  C        2.5111010    -1.6091400     0.0469950
  C        3.4119830    -0.5506530    -0.2589250
  H       -0.9475022     0.5403841    -1.4899373
  H       -3.3625820     0.6426650    -1.1464650
  H       -0.4402900     1.2218800     1.4039980
  H       -3.2819570    -0.9087340     1.1307830
  H       -1.7133080    -1.7003050    -1.3694640
  H       -3.4855610    -1.8340040    -1.1841350
  H       -0.2975250     2.7131790    -0.5250000
  H       -2.8475560     2.3997430     0.5086630
  H        0.4343110    -1.9634370     0.5690680
  H       -2.4338740    -3.7984320    -0.5432330
  H        2.8291120    -2.6453980     0.0739220
  H        5.1251800    -1.6708610    -0.1624140
  H        5.3198140    -0.0200540    -0.5682940
units angstrom
no_reorient  #important for SAPT in psi4, default
symmetry c1  #important for SAPT in psi4, default
}

set PROPERTIES_ORIGIN ["COM"]
properties('MP2/aug-cc-pvtz', properties = ['dipole'])
--------------------------------------------------------------------------

    Molecular point group: c1
  Charge       = 0
  Multiplicity = 1
  Basis Set: AUG-CC-PVTZ
    Blend: AUG-CC-PVTZ
  Basis Set: (AUG-CC-PVTZ AUX)
    Blend: AUG-CC-PVTZ-JKFIT

    Orbital Energies [Eh]
    ---------------------

    Doubly Occupied:

       1A    -20.582053     2A    -20.580440     3A    -20.561030
       4A    -20.554754     5A    -20.522732     6A    -15.636819
       7A    -15.600029     8A    -15.553636     9A    -11.388673
      10A    -11.358066    11A    -11.339618    12A    -11.328545
      13A    -11.301009    14A    -11.297098    15A    -11.295920
      16A    -11.291423    17A    -11.248671    18A     -1.428874
      19A     -1.396500    20A     -1.380270    21A     -1.372543
      22A     -1.343332    23A     -1.306341    24A     -1.273846
      25A     -1.182448    26A     -1.081949    27A     -1.067299
      28A     -1.021086    29A     -0.935070    30A     -0.909516
      31A     -0.877071    32A     -0.831092    33A     -0.811281
      34A     -0.766984    35A     -0.751317    36A     -0.738172
      37A     -0.720124    38A     -0.702756    39A     -0.696353
      40A     -0.685580    41A     -0.672599    42A     -0.654726
      43A     -0.650462    44A     -0.638239    45A     -0.619338
      46A     -0.614442    47A     -0.606897    48A     -0.594357
      49A     -0.574783    50A     -0.568183    51A     -0.554440
      52A     -0.545073    53A     -0.537432    54A     -0.531319
      55A     -0.497366    56A     -0.476796    57A     -0.475412
      58A     -0.461687    59A     -0.459299    60A     -0.453549
      61A     -0.439435    62A     -0.433245    63A     -0.395294
      64A     -0.350237

  @DF-RHF Final Energy:  -886.36972558100399

   => Energetics <=

    Nuclear Repulsion Energy =           1324.2997514580488314
    One-Electron Energy =               -3846.2890953994119627
    Two-Electron Energy =                1635.6196183603592544
    Total Energy =                       -886.3697255810038769
  Basis Set: (AUG-CC-PVTZ AUX)
    Blend: AUG-CC-PVTZ-RI
    Molecular point group: c1

    Geometry (in Angstrom), charge = 0, multiplicity = 1:

       Center              X                  Y                   Z               Mass
    ------------   -----------------  -----------------  -----------------  -----------------
         O           -1.246322330954    -0.652687235072     1.027888009727    15.994914619570
         O           -1.269604930954     2.486338964928    -0.622042690273    15.994914619570
         O           -3.214751330954     1.521079764928     0.740260009727    15.994914619570
         O           -2.355250330954    -3.066856235072     0.090313009727    15.994914619570
         O            1.362308669046     2.247014764928    -0.081168990273    15.994914619570
         N            0.845182669046     0.045203764928     0.251316009727    14.003074004430
         N            3.059004669046     0.720483764928    -0.298353990273    14.003074004430
         N            4.718241669046    -0.836674235072    -0.576924990273    14.003074004430
         C           -1.287705330954     1.078410764928    -0.596703990273    12.000000000000
         C           -2.713392330954     0.655187764928    -0.262019990273    12.000000000000
         C           -0.523629330954     0.481500764928     0.595467009727    12.000000000000
         C           -2.527477330954    -0.716905235072     0.356429009727    12.000000000000
         C           -2.526565330954    -1.850412235072    -0.643916990273    12.000000000000
         C            1.221553669046    -1.261427235072     0.306647009727    12.000000000000
         C            1.757372669046     1.067415764928    -0.064029990273    12.000000000000
         C            2.512879669046    -1.609159235072     0.042368009727    12.000000000000
         C            3.413761669046    -0.550672235072    -0.263551990273    12.000000000000
         H           -0.945723530954     0.540364864928    -1.494564290273     1.007825032230
         H           -3.360803330954     0.642645764928    -1.151091990273     1.007825032230
         H           -0.438511330954     1.221860764928     1.399371009727     1.007825032230
         H           -3.280178330954    -0.908753235072     1.126156009727     1.007825032230
         H           -1.711529330954    -1.700324235072    -1.374090990273     1.007825032230
         H           -3.483782330954    -1.834023235072    -1.188761990273     1.007825032230
         H           -0.295746330954     2.713159764928    -0.529626990273     1.007825032230
         H           -2.845777330954     2.399723764928     0.504036009727     1.007825032230
         H            0.436089669046    -1.963456235072     0.564441009727     1.007825032230
         H           -2.432095330954    -3.798451235072    -0.547859990273     1.007825032230
         H            2.830890669046    -2.645417235072     0.069295009727     1.007825032230
         H            5.126958669046    -1.670880235072    -0.167040990273     1.007825032230
         H            5.321592669046    -0.020073235072    -0.572920990273     1.007825032230

  Basis Set: AUG-CC-PVTZ
    Blend: AUG-CC-PVTZ
  Basis Set: (AUG-CC-PVTZ AUX)
    Blend: AUG-CC-PVTZ-JKFIT
	 Reference Energy          =    -886.3697255810039906 [Eh]
	 Singles Energy            =      -0.0000000000000000 [Eh]
	 Same-Spin Energy          =      -0.9019247047096882 [Eh]
	 Opposite-Spin Energy      =      -2.7158921609521967 [Eh]
	 Correlation Energy        =      -3.6178168656618848 [Eh]
	 Total Energy              =    -889.9875424466658842 [Eh]

	 ================> DF-SCS-MP2 Energies <==================
	-----------------------------------------------------------
	 SCS Same-Spin Scale       =       0.3333333333333333 [-]
	 SCS Opposite-Spin Scale   =       1.2000000000000000 [-]
	 SCS Same-Spin Energy      =      -0.3006415682365627 [Eh]
	 SCS Opposite-Spin Energy  =      -3.2590705931426358 [Eh]
	 SCS Correlation Energy    =      -3.5597121613791987 [Eh]
	 SCS Total Energy          =    -889.9294377423832429 [Eh]
	-----------------------------------------------------------

  Dipole Moment: [D]
     X:     1.7955      Y:    -5.9251      Z:    -1.9573     Total:     6.4932

*** Psi4 exiting successfully. Buy a developer a beer!
