                               Psi4 1.3.2 release

  ==> Input File <==

--------------------------------------------------------------------------
#psi4
#
memory 32 gb

molecule  {
0 1
  O       -1.2543845    -0.7006189     1.0471881
  O       -1.2449750     2.4828510    -0.6861630
  O       -3.2165300     1.5210990     0.7448870
  O       -2.3570290    -3.0668370     0.0949400
  O        1.3605300     2.2470340    -0.0765420
  N        0.8434040     0.0452230     0.2559430
  N        3.0572260     0.7205030    -0.2937270
  N        4.7164630    -0.8366550    -0.5722980
  C       -1.2894840     1.0784300    -0.5920770
  C       -2.7617928     0.6391822    -0.2766652
  C       -0.5254080     0.4815200     0.6000940
  C       -2.5292560    -0.7168860     0.3610560
  C       -2.5283440    -1.8503930    -0.6392900
  C        1.2197750    -1.2614080     0.3112740
  C        1.7555940     1.0674350    -0.0594030
  C        2.5111010    -1.6091400     0.0469950
  C        3.4119830    -0.5506530    -0.2589250
  H       -0.9376060     0.5914040    -1.5148910
  H       -3.3625820     0.6426650    -1.1464650
  H       -0.4402900     1.2218800     1.4039980
  H       -3.2819570    -0.9087340     1.1307830
  H       -1.7133080    -1.7003050    -1.3694640
  H       -3.4855610    -1.8340040    -1.1841350
  H       -0.2975250     2.7131790    -0.5250000
  H       -2.8475560     2.3997430     0.5086630
  H        0.4343110    -1.9634370     0.5690680
  H       -2.4338740    -3.7984320    -0.5432330
  H        2.8291120    -2.6453980     0.0739220
  H        5.1251800    -1.6708610    -0.1624140
  H        5.3198140    -0.0200540    -0.5682940
units angstrom
no_reorient  #important for SAPT in psi4, default
symmetry c1  #important for SAPT in psi4, default
}

set PROPERTIES_ORIGIN ["COM"]
properties('MP2/aug-cc-pvtz', properties = ['dipole'])
--------------------------------------------------------------------------

    Molecular point group: c1
  Charge       = 0
  Multiplicity = 1
  Basis Set: AUG-CC-PVTZ
    Blend: AUG-CC-PVTZ
  Basis Set: (AUG-CC-PVTZ AUX)
    Blend: AUG-CC-PVTZ-JKFIT

    Orbital Energies [Eh]
    ---------------------

    Doubly Occupied:

       1A    -20.584091     2A    -20.580468     3A    -20.558331
       4A    -20.557008     5A    -20.522803     6A    -15.638421
       7A    -15.600180     8A    -15.553826     9A    -11.389063
      10A    -11.358267    11A    -11.345647    12A    -11.328521
      13A    -11.299976    14A    -11.299275    15A    -11.295042
      16A    -11.293593    17A    -11.248750    18A     -1.420395
      19A     -1.394442    20A     -1.378048    21A     -1.368795
      22A     -1.344740    23A     -1.306532    24A     -1.274392
      25A     -1.182778    26A     -1.082255    27A     -1.064550
      28A     -1.017619    29A     -0.933897    30A     -0.909211
      31A     -0.877876    32A     -0.831931    33A     -0.813642
      34A     -0.767064    35A     -0.750942    36A     -0.733141
      37A     -0.720311    38A     -0.702075    39A     -0.696131
      40A     -0.684476    41A     -0.673519    42A     -0.652876
      43A     -0.650495    44A     -0.639086    45A     -0.619796
      46A     -0.613888    47A     -0.604606    48A     -0.594608
      49A     -0.575295    50A     -0.566471    51A     -0.554094
      52A     -0.544556    53A     -0.537492    54A     -0.531348
      55A     -0.497429    56A     -0.476219    57A     -0.473650
      58A     -0.461684    59A     -0.460761    60A     -0.450904
      61A     -0.441569    62A     -0.434181    63A     -0.395981
      64A     -0.350650

  @DF-RHF Final Energy:  -886.36617067942211

   => Energetics <=

    Nuclear Repulsion Energy =           1321.2991386403045908
    One-Electron Energy =               -3840.3112904894251187
    Two-Electron Energy =                1632.6459811696984161
    Total Energy =                       -886.3661706794221118
  Basis Set: (AUG-CC-PVTZ AUX)
    Blend: AUG-CC-PVTZ-RI
    Molecular point group: c1

    Geometry (in Angstrom), charge = 0, multiplicity = 1:

       Center              X                  Y                   Z               Mass
    ------------   -----------------  -----------------  -----------------  -----------------
         O           -1.251669581418    -0.696672673117     1.047174003055    15.994914619570
         O           -1.242260081418     2.486797226883    -0.686177096945    15.994914619570
         O           -3.213815081418     1.525045226883     0.744872903055    15.994914619570
         O           -2.354314081418    -3.062890773117     0.094925903055    15.994914619570
         O            1.363244918582     2.250980226883    -0.076556096945    15.994914619570
         N            0.846118918582     0.049169226883     0.255928903055    14.003074004430
         N            3.059940918582     0.724449226883    -0.293741096945    14.003074004430
         N            4.719177918582    -0.832708773117    -0.572312096945    14.003074004430
         C           -1.286769081418     1.082376226883    -0.592091096945    12.000000000000
         C           -2.759077881418     0.643128426883    -0.276679296945    12.000000000000
         C           -0.522693081418     0.485466226883     0.600079903055    12.000000000000
         C           -2.526541081418    -0.712939773117     0.361041903055    12.000000000000
         C           -2.525629081418    -1.846446773117    -0.639304096945    12.000000000000
         C            1.222489918582    -1.257461773117     0.311259903055    12.000000000000
         C            1.758308918582     1.071381226883    -0.059417096945    12.000000000000
         C            2.513815918582    -1.605193773117     0.046980903055    12.000000000000
         C            3.414697918582    -0.546706773117    -0.258939096945    12.000000000000
         H           -0.934891081418     0.595350226883    -1.514905096945     1.007825032230
         H           -3.359867081418     0.646611226883    -1.146479096945     1.007825032230
         H           -0.437575081418     1.225826226883     1.403983903055     1.007825032230
         H           -3.279242081418    -0.904787773117     1.130768903055     1.007825032230
         H           -1.710593081418    -1.696358773117    -1.369478096945     1.007825032230
         H           -3.482846081418    -1.830057773117    -1.184149096945     1.007825032230
         H           -0.294810081418     2.717125226883    -0.525014096945     1.007825032230
         H           -2.844841081418     2.403689226883     0.508648903055     1.007825032230
         H            0.437025918582    -1.959490773117     0.569053903055     1.007825032230
         H           -2.431159081418    -3.794485773117    -0.543247096945     1.007825032230
         H            2.831826918582    -2.641451773117     0.073907903055     1.007825032230
         H            5.127894918582    -1.666914773117    -0.162428096945     1.007825032230
         H            5.322528918582    -0.016107773117    -0.568308096945     1.007825032230

  Basis Set: AUG-CC-PVTZ
    Blend: AUG-CC-PVTZ
  Basis Set: (AUG-CC-PVTZ AUX)
    Blend: AUG-CC-PVTZ-JKFIT
	 Reference Energy          =    -886.3661706794221118 [Eh]
	 Singles Energy            =      -0.0000000000000000 [Eh]
	 Same-Spin Energy          =      -0.9015427635353903 [Eh]
	 Opposite-Spin Energy      =      -2.7167261677182504 [Eh]
	 Correlation Energy        =      -3.6182689312536409 [Eh]
	 Total Energy              =    -889.9844396106757358 [Eh]

	 ================> DF-SCS-MP2 Energies <==================
	-----------------------------------------------------------
	 SCS Same-Spin Scale       =       0.3333333333333333 [-]
	 SCS Opposite-Spin Scale   =       1.2000000000000000 [-]
	 SCS Same-Spin Energy      =      -0.3005142545117968 [Eh]
	 SCS Opposite-Spin Energy  =      -3.2600714012619005 [Eh]
	 SCS Correlation Energy    =      -3.5605856557736972 [Eh]
	 SCS Total Energy          =    -889.9267563351958188 [Eh]
	-----------------------------------------------------------

  Dipole Moment: [D]
     X:     1.7699      Y:    -5.8173      Z:    -1.9037     Total:     6.3716

*** Psi4 exiting successfully. Buy a developer a beer!
