                               Psi4 1.4a3.dev225

  ==> Input File <==

--------------------------------------------------------------------------
#psi4
#
memory 32 gb

molecule  {
0 1
  O       -1.3191770     0.6538360    -1.0992360
  O       -1.5735610    -2.4640850     0.5135810
  O       -3.5606630    -1.0699430    -0.4600060
  O       -1.4399290     3.1254620     0.1265180
  O        1.1065530    -2.3833650     0.0076020
  N        0.7686360    -0.1579440    -0.3706350
  N        2.9363770    -0.9938720     0.1460080
  N        4.7058880     0.4431110     0.3611260
  C       -1.3768610    -1.0680440     0.5552780
  C       -2.7379840    -0.3746360     0.4578480
  C       -0.6377490    -0.5042940    -0.6790150
  C       -2.3707440     0.9655450    -0.1585060
  C       -1.8992030     1.9895750     0.8571380
  C        1.2309690     1.1190800    -0.4442230
  C        1.6104480    -1.2470590    -0.0585760
  C        2.5474650     1.3753690    -0.1998620
  C        3.3802090     0.2523040     0.0808410
  H       -0.8441360    -0.7686950     1.4698480
  H       -3.2257400    -0.2778790     1.4400230
  H       -0.6227070    -1.2428120    -1.4883720
  H       -3.1941750     1.3785730    -0.7472070
  H       -1.1317532     1.5894500     1.4518827
  H       -2.7410530     2.2466610     1.5166010
  H       -0.6710550    -2.8260740     0.3542250
  H       -3.3063470    -2.0105220    -0.3629290
  H        0.4929290     1.8778260    -0.6840360
  H       -1.2098800     3.8154810     0.7720340
  H        2.9334840     2.3875570    -0.2389120
  H        5.1589650     1.2712730    -0.0008400
  H        5.2635310    -0.4031270     0.3606700
units angstrom
no_reorient  #important for SAPT in psi4, default
symmetry c1  #important for SAPT in psi4, default
}

set PROPERTIES_ORIGIN ["COM"]
properties('MP2/aug-cc-pvtz', properties = ['dipole'])
--------------------------------------------------------------------------

    Molecular point group: c1
  Charge       = 0
  Multiplicity = 1
  Basis Set: AUG-CC-PVTZ
    Blend: AUG-CC-PVTZ
  Basis Set: (AUG-CC-PVTZ AUX)
    Blend: AUG-CC-PVTZ-JKFIT

    Orbital Energies [Eh]
    ---------------------

    Doubly Occupied:

       1A    -20.585683     2A    -20.581346     3A    -20.559505
       4A    -20.556393     5A    -20.519815     6A    -15.633092
       7A    -15.599742     8A    -15.551853     9A    -11.386058
      10A    -11.358153    11A    -11.339654    12A    -11.325210
      13A    -11.297640    14A    -11.297179    15A    -11.296971
      16A    -11.293457    17A    -11.246667    18A     -1.429229
      19A     -1.394107    20A     -1.382688    21A     -1.375365
      22A     -1.346568    23A     -1.303747    24A     -1.271421
      25A     -1.181280    26A     -1.079458    27A     -1.068857
      28A     -1.017695    29A     -0.938921    30A     -0.907252
      31A     -0.877603    32A     -0.830377    33A     -0.813664
      34A     -0.766805    35A     -0.750576    36A     -0.736095
      37A     -0.722569    38A     -0.707473    39A     -0.703291
      40A     -0.686073    41A     -0.676007    42A     -0.655605
      43A     -0.649076    44A     -0.633558    45A     -0.620474
      46A     -0.615327    47A     -0.607827    48A     -0.593210
      49A     -0.577095    50A     -0.565054    51A     -0.555980
      52A     -0.548175    53A     -0.536760    54A     -0.531350
      55A     -0.495760    56A     -0.482306    57A     -0.474203
      58A     -0.463287    59A     -0.458041    60A     -0.453398
      61A     -0.442108    62A     -0.430328    63A     -0.392339
      64A     -0.348325

  @DF-RHF Final Energy:  -886.37352228504142

   => Energetics <=

    Nuclear Repulsion Energy =           1334.7727541936549187
    One-Electron Energy =               -3867.2423058477334052
    Two-Electron Energy =                1646.0960293690372964
    Total Energy =                       -886.3735222850414175
  Basis Set: (AUG-CC-PVTZ AUX)
    Blend: AUG-CC-PVTZ-RI
    Molecular point group: c1

    Geometry (in Angstrom), charge = 0, multiplicity = 1:

       Center              X                  Y                   Z               Mass
    ------------   -----------------  -----------------  -----------------  -----------------
         O           -1.331769160260     0.682368481892    -1.083338386445    15.994914619570
         O           -1.586153160260    -2.435552518108     0.529478613555    15.994914619570
         O           -3.573255160260    -1.041410518108    -0.444108386445    15.994914619570
         O           -1.452521160260     3.153994481892     0.142415613555    15.994914619570
         O            1.093960839740    -2.354832518108     0.023499613555    15.994914619570
         N            0.756043839740    -0.129411518108    -0.354737386445    14.003074004430
         N            2.923784839740    -0.965339518108     0.161905613555    14.003074004430
         N            4.693295839740     0.471643481892     0.377023613555    14.003074004430
         C           -1.389453160260    -1.039511518108     0.571175613555    12.000000000000
         C           -2.750576160260    -0.346103518108     0.473745613555    12.000000000000
         C           -0.650341160260    -0.475761518108    -0.663117386445    12.000000000000
         C           -2.383336160260     0.994077481892    -0.142608386445    12.000000000000
         C           -1.911795160260     2.018107481892     0.873035613555    12.000000000000
         C            1.218376839740     1.147612481892    -0.428325386445    12.000000000000
         C            1.597855839740    -1.218526518108    -0.042678386445    12.000000000000
         C            2.534872839740     1.403901481892    -0.183964386445    12.000000000000
         C            3.367616839740     0.280836481892     0.096738613555    12.000000000000
         H           -0.856728160260    -0.740162518108     1.485745613555     1.007825032230
         H           -3.238332160260    -0.249346518108     1.455920613555     1.007825032230
         H           -0.635299160260    -1.214279518108    -1.472474386445     1.007825032230
         H           -3.206767160260     1.407105481892    -0.731309386445     1.007825032230
         H           -1.144345360260     1.617982481892     1.467780313555     1.007825032230
         H           -2.753645160260     2.275193481892     1.532498613555     1.007825032230
         H           -0.683647160260    -2.797541518108     0.370122613555     1.007825032230
         H           -3.318939160260    -1.981989518108    -0.347031386445     1.007825032230
         H            0.480336839740     1.906358481892    -0.668138386445     1.007825032230
         H           -1.222472160260     3.844013481892     0.787931613555     1.007825032230
         H            2.920891839740     2.416089481892    -0.223014386445     1.007825032230
         H            5.146372839740     1.299805481892     0.015057613555     1.007825032230
         H            5.250938839740    -0.374594518108     0.376567613555     1.007825032230

  Basis Set: AUG-CC-PVTZ
    Blend: AUG-CC-PVTZ
  Basis Set: (AUG-CC-PVTZ AUX)
    Blend: AUG-CC-PVTZ-JKFIT
	 Reference Energy          =    -886.3735222850414175 [Eh]
	 Singles Energy            =      -0.0000000000000000 [Eh]
	 Same-Spin Energy          =      -0.9017128961133924 [Eh]
	 Opposite-Spin Energy      =      -2.7155188313903436 [Eh]
	 Correlation Energy        =      -3.6172317275037358 [Eh]
	 Total Energy              =    -889.9907540125451533 [Eh]

	 ================> DF-SCS-MP2 Energies <==================
	-----------------------------------------------------------
	 SCS Same-Spin Scale       =       0.3333333333333333 [-]
	 SCS Opposite-Spin Scale   =       1.2000000000000000 [-]
	 SCS Same-Spin Energy      =      -0.3005709653711308 [Eh]
	 SCS Opposite-Spin Energy  =      -3.2586225976684120 [Eh]
	 SCS Correlation Energy    =      -3.5591935630395426 [Eh]
	 SCS Total Energy          =    -889.9327158480809885 [Eh]
	-----------------------------------------------------------

  Dipole Moment: [D]
     X:     2.7550      Y:     5.7765      Z:     1.9679     Total:     6.6955

*** Psi4 exiting successfully. Buy a developer a beer!
