                               Psi4 1.3.2 release

  ==> Input File <==

--------------------------------------------------------------------------
#psi4
#
memory 32 gb

molecule  {
0 1
  O       -1.2581092    -0.7246054     1.0542122
  O       -1.2449750     2.4828510    -0.6861630
  O       -3.2165300     1.5210990     0.7448870
  O       -2.3570290    -3.0668370     0.0949400
  O        1.3605300     2.2470340    -0.0765420
  N        0.8434040     0.0452230     0.2559430
  N        3.0572260     0.7205030    -0.2937270
  N        4.7164630    -0.8366550    -0.5722980
  C       -1.2894840     1.0784300    -0.5920770
  C       -2.7850011     0.6305490    -0.2860114
  C       -0.5254080     0.4815200     0.6000940
  C       -2.5292560    -0.7168860     0.3610560
  C       -2.5283440    -1.8503930    -0.6392900
  C        1.2197750    -1.2614080     0.3112740
  C        1.7555940     1.0674350    -0.0594030
  C        2.5111010    -1.6091400     0.0469950
  C        3.4119830    -0.5506530    -0.2589250
  H       -0.9376060     0.5914040    -1.5148910
  H       -3.3625820     0.6426650    -1.1464650
  H       -0.4402900     1.2218800     1.4039980
  H       -3.2819570    -0.9087340     1.1307830
  H       -1.7133080    -1.7003050    -1.3694640
  H       -3.4855610    -1.8340040    -1.1841350
  H       -0.2975250     2.7131790    -0.5250000
  H       -2.8475560     2.3997430     0.5086630
  H        0.4343110    -1.9634370     0.5690680
  H       -2.4338740    -3.7984320    -0.5432330
  H        2.8291120    -2.6453980     0.0739220
  H        5.1251800    -1.6708610    -0.1624140
  H        5.3198140    -0.0200540    -0.5682940
units angstrom
no_reorient  #important for SAPT in psi4, default
symmetry c1  #important for SAPT in psi4, default
}

set PROPERTIES_ORIGIN ["COM"]
properties('MP2/aug-cc-pvtz', properties = ['dipole'])
--------------------------------------------------------------------------

    Molecular point group: c1
  Charge       = 0
  Multiplicity = 1
  Basis Set: AUG-CC-PVTZ
    Blend: AUG-CC-PVTZ
  Basis Set: (AUG-CC-PVTZ AUX)
    Blend: AUG-CC-PVTZ-JKFIT

    Orbital Energies [Eh]
    ---------------------

    Doubly Occupied:

       1A    -20.585278     2A    -20.579599     3A    -20.558907
       4A    -20.556685     5A    -20.523207     6A    -15.639153
       7A    -15.600347     8A    -15.554072     9A    -11.389466
      10A    -11.358476    11A    -11.347747    12A    -11.328536
      13A    -11.301592    14A    -11.298365    15A    -11.294611
      16A    -11.293948    17A    -11.248858    18A     -1.417277
      19A     -1.393017    20A     -1.377104    21A     -1.366591
      22A     -1.343691    23A     -1.306768    24A     -1.274711
      25A     -1.183051    26A     -1.082449    27A     -1.063334
      28A     -1.016021    29A     -0.933306    30A     -0.909129
      31A     -0.878314    32A     -0.831734    33A     -0.814872
      34A     -0.767327    35A     -0.750173    36A     -0.731831
      37A     -0.720485    38A     -0.701693    39A     -0.695060
      40A     -0.684170    41A     -0.674289    42A     -0.651960
      43A     -0.649963    44A     -0.639196    45A     -0.619682
      46A     -0.613453    47A     -0.603515    48A     -0.594883
      49A     -0.574803    50A     -0.565572    51A     -0.554023
      52A     -0.543190    53A     -0.537608    54A     -0.531052
      55A     -0.497285    56A     -0.475648    57A     -0.474338
      58A     -0.462131    59A     -0.459772    60A     -0.449584
      61A     -0.440502    62A     -0.434631    63A     -0.396318
      64A     -0.350946

  @DF-RHF Final Energy:  -886.35872165138164

   => Energetics <=

    Nuclear Repulsion Energy =           1320.1174293545068394
    One-Electron Energy =               -3837.9617028929510525
    Two-Electron Energy =                1631.4855518870624564
    Total Energy =                       -886.3587216513817566
  Basis Set: (AUG-CC-PVTZ AUX)
    Blend: AUG-CC-PVTZ-RI
    Molecular point group: c1

    Geometry (in Angstrom), charge = 0, multiplicity = 1:

       Center              X                  Y                   Z               Mass
    ------------   -----------------  -----------------  -----------------  -----------------
         O           -1.254003512204    -0.718654691655     1.054197298894    15.994914619570
         O           -1.240869312204     2.488801708345    -0.686177901106    15.994914619570
         O           -3.212424312204     1.527049708345     0.744872098894    15.994914619570
         O           -2.352923312204    -3.060886291655     0.094925098894    15.994914619570
         O            1.364635687796     2.252984708345    -0.076556901106    15.994914619570
         N            0.847509687796     0.051173708345     0.255928098894    14.003074004430
         N            3.061331687796     0.726453708345    -0.293741901106    14.003074004430
         N            4.720568687796    -0.830704291655    -0.572312901106    14.003074004430
         C           -1.285378312204     1.084380708345    -0.592091901106    12.000000000000
         C           -2.780895412204     0.636499708345    -0.286026301106    12.000000000000
         C           -0.521302312204     0.487470708345     0.600079098894    12.000000000000
         C           -2.525150312204    -0.710935291655     0.361041098894    12.000000000000
         C           -2.524238312204    -1.844442291655    -0.639304901106    12.000000000000
         C            1.223880687796    -1.255457291655     0.311259098894    12.000000000000
         C            1.759699687796     1.073385708345    -0.059417901106    12.000000000000
         C            2.515206687796    -1.603189291655     0.046980098894    12.000000000000
         C            3.416088687796    -0.544702291655    -0.258939901106    12.000000000000
         H           -0.933500312204     0.597354708345    -1.514905901106     1.007825032230
         H           -3.358476312204     0.648615708345    -1.146479901106     1.007825032230
         H           -0.436184312204     1.227830708345     1.403983098894     1.007825032230
         H           -3.277851312204    -0.902783291655     1.130768098894     1.007825032230
         H           -1.709202312204    -1.694354291655    -1.369478901106     1.007825032230
         H           -3.481455312204    -1.828053291655    -1.184149901106     1.007825032230
         H           -0.293419312204     2.719129708345    -0.525014901106     1.007825032230
         H           -2.843450312204     2.405693708345     0.508648098894     1.007825032230
         H            0.438416687796    -1.957486291655     0.569053098894     1.007825032230
         H           -2.429768312204    -3.792481291655    -0.543247901106     1.007825032230
         H            2.833217687796    -2.639447291655     0.073907098894     1.007825032230
         H            5.129285687796    -1.664910291655    -0.162428901106     1.007825032230
         H            5.323919687796    -0.014103291655    -0.568308901106     1.007825032230

  Basis Set: AUG-CC-PVTZ
    Blend: AUG-CC-PVTZ
  Basis Set: (AUG-CC-PVTZ AUX)
    Blend: AUG-CC-PVTZ-JKFIT
	 Reference Energy          =    -886.3587216513816429 [Eh]
	 Singles Energy            =      -0.0000000000000000 [Eh]
	 Same-Spin Energy          =      -0.9018434986421316 [Eh]
	 Opposite-Spin Energy      =      -2.7179142902451141 [Eh]
	 Correlation Energy        =      -3.6197577888872456 [Eh]
	 Total Energy              =    -889.9784794402688703 [Eh]

	 ================> DF-SCS-MP2 Energies <==================
	-----------------------------------------------------------
	 SCS Same-Spin Scale       =       0.3333333333333333 [-]
	 SCS Opposite-Spin Scale   =       1.2000000000000000 [-]
	 SCS Same-Spin Energy      =      -0.3006144995473772 [Eh]
	 SCS Opposite-Spin Energy  =      -3.2614971482941368 [Eh]
	 SCS Correlation Energy    =      -3.5621116478415140 [Eh]
	 SCS Total Energy          =    -889.9208332992232044 [Eh]
	-----------------------------------------------------------

  Dipole Moment: [D]
     X:     1.8016      Y:    -5.7549      Z:    -1.9399     Total:     6.3347

*** Psi4 exiting successfully. Buy a developer a beer!
