                               Psi4 1.3.2 release

  ==> Input File <==

--------------------------------------------------------------------------
#psi4
#
memory 32 gb

molecule  {
0 1
  O       -1.2481010    -0.6526680     1.0325150
  O       -1.2449750     2.4828510    -0.6861630
  O       -3.2165300     1.5210990     0.7448870
  O       -2.3570290    -3.0668370     0.0949400
  O        1.3605300     2.2470340    -0.0765420
  N        0.8434040     0.0452230     0.2559430
  N        3.0572260     0.7205030    -0.2937270
  N        4.7164630    -0.8366550    -0.5722980
  C       -1.2894840     1.0784300    -0.5920770
  C       -2.7151710     0.6552070    -0.2573930
  C       -0.5254080     0.4815200     0.6000940
  C       -2.5292560    -0.7168860     0.3610560
  C       -2.5283440    -1.8503930    -0.6392900
  C        1.2197750    -1.2614080     0.3112740
  C        1.7555940     1.0674350    -0.0594030
  C        2.5111010    -1.6091400     0.0469950
  C        3.4119830    -0.5506530    -0.2589250
  H       -0.9376060     0.5914040    -1.5148910
  H       -3.3625820     0.6426650    -1.1464650
  H       -0.4402900     1.2218800     1.4039980
  H       -3.2131258    -0.8911903     1.0603949
  H       -1.7133080    -1.7003050    -1.3694640
  H       -3.4855610    -1.8340040    -1.1841350
  H       -0.2975250     2.7131790    -0.5250000
  H       -2.8475560     2.3997430     0.5086630
  H        0.4343110    -1.9634370     0.5690680
  H       -2.4338740    -3.7984320    -0.5432330
  H        2.8291120    -2.6453980     0.0739220
  H        5.1251800    -1.6708610    -0.1624140
  H        5.3198140    -0.0200540    -0.5682940
units angstrom
no_reorient  #important for SAPT in psi4, default
symmetry c1  #important for SAPT in psi4, default
}

set PROPERTIES_ORIGIN ["COM"]
properties('MP2/aug-cc-pvtz', properties = ['dipole'])
--------------------------------------------------------------------------

    Molecular point group: c1
  Charge       = 0
  Multiplicity = 1
  Basis Set: AUG-CC-PVTZ
    Blend: AUG-CC-PVTZ
  Basis Set: (AUG-CC-PVTZ AUX)
    Blend: AUG-CC-PVTZ-JKFIT

    Orbital Energies [Eh]
    ---------------------

    Doubly Occupied:

       1A    -20.582454     2A    -20.580667     3A    -20.557973
       4A    -20.557010     5A    -20.521807     6A    -15.636667
       7A    -15.599725     8A    -15.553182     9A    -11.388063
      10A    -11.357703    11A    -11.341148    12A    -11.328345
      13A    -11.300667    14A    -11.296279    15A    -11.292553
      16A    -11.285530    17A    -11.248390    18A     -1.429122
      19A     -1.396271    20A     -1.380117    21A     -1.372836
      22A     -1.346317    23A     -1.305896    24A     -1.273650
      25A     -1.182126    26A     -1.082150    27A     -1.070325
      28A     -1.022992    29A     -0.935211    30A     -0.909852
      31A     -0.878645    32A     -0.835201    33A     -0.817149
      34A     -0.767807    35A     -0.752491    36A     -0.738019
      37A     -0.720230    38A     -0.704965    39A     -0.700085
      40A     -0.685637    41A     -0.672883    42A     -0.654563
      43A     -0.651505    44A     -0.638327    45A     -0.620629
      46A     -0.614299    47A     -0.608484    48A     -0.594199
      49A     -0.578427    50A     -0.575142    51A     -0.554030
      52A     -0.545984    53A     -0.537690    54A     -0.531969
      55A     -0.498711    56A     -0.478010    57A     -0.475151
      58A     -0.463115    59A     -0.460041    60A     -0.452847
      61A     -0.440775    62A     -0.433292    63A     -0.395059
      64A     -0.349833

  @DF-RHF Final Energy:  -886.36795038676621

   => Energetics <=

    Nuclear Repulsion Energy =           1324.3995255646457281
    One-Electron Energy =               -3846.4145009631320136
    Two-Electron Energy =                1635.6470250117199612
    Total Energy =                       -886.3679503867660969
  Basis Set: (AUG-CC-PVTZ AUX)
    Blend: AUG-CC-PVTZ-RI
    Molecular point group: c1

    Geometry (in Angstrom), charge = 0, multiplicity = 1:

       Center              X                  Y                   Z               Mass
    ------------   -----------------  -----------------  -----------------  -----------------
         O           -1.248386405958    -0.652740725498     1.032806834361    15.994914619570
         O           -1.245260405958     2.482778274502    -0.685871165639    15.994914619570
         O           -3.216815405958     1.521026274502     0.745178834361    15.994914619570
         O           -2.357314405958    -3.066909725498     0.095231834361    15.994914619570
         O            1.360244594042     2.246961274502    -0.076250165639    15.994914619570
         N            0.843118594042     0.045150274502     0.256234834361    14.003074004430
         N            3.056940594042     0.720430274502    -0.293435165639    14.003074004430
         N            4.716177594042    -0.836727725498    -0.572006165639    14.003074004430
         C           -1.289769405958     1.078357274502    -0.591785165639    12.000000000000
         C           -2.715456405958     0.655134274502    -0.257101165639    12.000000000000
         C           -0.525693405958     0.481447274502     0.600385834361    12.000000000000
         C           -2.529541405958    -0.716958725498     0.361347834361    12.000000000000
         C           -2.528629405958    -1.850465725498    -0.638998165639    12.000000000000
         C            1.219489594042    -1.261480725498     0.311565834361    12.000000000000
         C            1.755308594042     1.067362274502    -0.059111165639    12.000000000000
         C            2.510815594042    -1.609212725498     0.047286834361    12.000000000000
         C            3.411697594042    -0.550725725498    -0.258633165639    12.000000000000
         H           -0.937891405958     0.591331274502    -1.514599165639     1.007825032230
         H           -3.362867405958     0.642592274502    -1.146173165639     1.007825032230
         H           -0.440575405958     1.221807274502     1.404289834361     1.007825032230
         H           -3.213411205958    -0.891263025498     1.060686734361     1.007825032230
         H           -1.713593405958    -1.700377725498    -1.369172165639     1.007825032230
         H           -3.485846405958    -1.834076725498    -1.183843165639     1.007825032230
         H           -0.297810405958     2.713106274502    -0.524708165639     1.007825032230
         H           -2.847841405958     2.399670274502     0.508954834361     1.007825032230
         H            0.434025594042    -1.963509725498     0.569359834361     1.007825032230
         H           -2.434159405958    -3.798504725498    -0.542941165639     1.007825032230
         H            2.828826594042    -2.645470725498     0.074213834361     1.007825032230
         H            5.124894594042    -1.670933725498    -0.162122165639     1.007825032230
         H            5.319528594042    -0.020126725498    -0.568002165639     1.007825032230

  Basis Set: AUG-CC-PVTZ
    Blend: AUG-CC-PVTZ
  Basis Set: (AUG-CC-PVTZ AUX)
    Blend: AUG-CC-PVTZ-JKFIT
	 Reference Energy          =    -886.3679503867662106 [Eh]
	 Singles Energy            =      -0.0000000000000000 [Eh]
	 Same-Spin Energy          =      -0.9010039446561516 [Eh]
	 Opposite-Spin Energy      =      -2.7141486323647390 [Eh]
	 Correlation Energy        =      -3.6151525770208908 [Eh]
	 Total Energy              =    -889.9831029637871325 [Eh]

	 ================> DF-SCS-MP2 Energies <==================
	-----------------------------------------------------------
	 SCS Same-Spin Scale       =       0.3333333333333333 [-]
	 SCS Opposite-Spin Scale   =       1.2000000000000000 [-]
	 SCS Same-Spin Energy      =      -0.3003346482187172 [Eh]
	 SCS Opposite-Spin Energy  =      -3.2569783588376868 [Eh]
	 SCS Correlation Energy    =      -3.5573130070564041 [Eh]
	 SCS Total Energy          =    -889.9252633938226609 [Eh]
	-----------------------------------------------------------

  Dipole Moment: [D]
     X:     1.6795      Y:    -5.9601      Z:    -1.8249     Total:     6.4556

*** Psi4 exiting successfully. Buy a developer a beer!
