                               Psi4 1.3.2 release

  ==> Input File <==

--------------------------------------------------------------------------
#psi4
#
memory 32 gb

molecule  {
0 1
  O       -1.2481010    -0.6526680     1.0325150
  O       -1.2449750     2.4828510    -0.6861630
  O       -3.2165300     1.5210990     0.7448870
  O       -2.3570290    -3.0668370     0.0949400
  O        1.3605300     2.2470340    -0.0765420
  N        0.8434040     0.0452230     0.2559430
  N        3.0572260     0.7205030    -0.2937270
  N        4.7164630    -0.8366550    -0.5722980
  C       -1.3085960     1.1241585    -0.6114349
  C       -2.7151710     0.6552070    -0.2573930
  C       -0.5254080     0.4815200     0.6000940
  C       -2.5816886    -0.7200206     0.3675985
  C       -2.5283440    -1.8503930    -0.6392900
  C        1.2197750    -1.2614080     0.3112740
  C        1.7555940     1.0674350    -0.0594030
  C        2.5111010    -1.6091400     0.0469950
  C        3.4119830    -0.5506530    -0.2589250
  H       -0.9376060     0.5914040    -1.5148910
  H       -3.3625820     0.6426650    -1.1464650
  H       -0.4402900     1.2218800     1.4039980
  H       -3.2819570    -0.9087340     1.1307830
  H       -1.7133080    -1.7003050    -1.3694640
  H       -3.4855610    -1.8340040    -1.1841350
  H       -0.2975250     2.7131790    -0.5250000
  H       -2.8475560     2.3997430     0.5086630
  H        0.4343110    -1.9634370     0.5690680
  H       -2.4338740    -3.7984320    -0.5432330
  H        2.8291120    -2.6453980     0.0739220
  H        5.1251800    -1.6708610    -0.1624140
  H        5.3198140    -0.0200540    -0.5682940
units angstrom
no_reorient  #important for SAPT in psi4, default
symmetry c1  #important for SAPT in psi4, default
}

set PROPERTIES_ORIGIN ["COM"]
properties('MP2/aug-cc-pvtz', properties = ['dipole'])
--------------------------------------------------------------------------

    Molecular point group: c1
  Charge       = 0
  Multiplicity = 1
  Basis Set: AUG-CC-PVTZ
    Blend: AUG-CC-PVTZ
  Basis Set: (AUG-CC-PVTZ AUX)
    Blend: AUG-CC-PVTZ-JKFIT

    Orbital Energies [Eh]
    ---------------------

    Doubly Occupied:

       1A    -20.582800     2A    -20.575478     3A    -20.561060
       4A    -20.557817     5A    -20.521328     6A    -15.635186
       7A    -15.598807     8A    -15.552207     9A    -11.387110
      10A    -11.356589    11A    -11.337792    12A    -11.326703
      13A    -11.302740    14A    -11.298626    15A    -11.298287
      16A    -11.293369    17A    -11.246987    18A     -1.422134
      19A     -1.393530    20A     -1.387888    21A     -1.372651
      22A     -1.352555    23A     -1.304475    24A     -1.271125
      25A     -1.180765    26A     -1.079052    27A     -1.066816
      28A     -1.014139    29A     -0.933531    30A     -0.907159
      31A     -0.877491    32A     -0.833829    33A     -0.809988
      34A     -0.766072    35A     -0.750643    36A     -0.738410
      37A     -0.718202    38A     -0.705440    39A     -0.699533
      40A     -0.683905    41A     -0.674378    42A     -0.652733
      43A     -0.650682    44A     -0.635555    45A     -0.620964
      46A     -0.615486    47A     -0.605538    48A     -0.594527
      49A     -0.576613    50A     -0.571280    51A     -0.554960
      52A     -0.545376    53A     -0.538779    54A     -0.530289
      55A     -0.499027    56A     -0.478651    57A     -0.475943
      58A     -0.462913    59A     -0.459349    60A     -0.447664
      61A     -0.434545    62A     -0.430748    63A     -0.392849
      64A     -0.347809

  @DF-RHF Final Energy:  -886.36798274275384

   => Energetics <=

    Nuclear Repulsion Energy =           1322.0719914194919511
    One-Electron Energy =               -3841.8821899516956364
    Two-Electron Energy =                1633.4422157894498469
    Total Energy =                       -886.3679827427538385
  Basis Set: (AUG-CC-PVTZ AUX)
    Blend: AUG-CC-PVTZ-RI
    Molecular point group: c1

    Geometry (in Angstrom), charge = 0, multiplicity = 1:

       Center              X                  Y                   Z               Mass
    ------------   -----------------  -----------------  -----------------  -----------------
         O           -1.244569210247    -0.654770652327     1.033147644092    15.994914619570
         O           -1.241443210247     2.480748347673    -0.685530355908    15.994914619570
         O           -3.212998210247     1.518996347673     0.745519644092    15.994914619570
         O           -2.353497210247    -3.068939652327     0.095572644092    15.994914619570
         O            1.364061789753     2.244931347673    -0.075909355908    15.994914619570
         N            0.846935789753     0.043120347673     0.256575644092    14.003074004430
         N            3.060757789753     0.718400347673    -0.293094355908    14.003074004430
         N            4.719994789753    -0.838757652327    -0.571665355908    14.003074004430
         C           -1.305064210247     1.122055847673    -0.610802255908    12.000000000000
         C           -2.711639210247     0.653104347673    -0.256760355908    12.000000000000
         C           -0.521876210247     0.479417347673     0.600726644092    12.000000000000
         C           -2.578156810247    -0.722123252327     0.368231144092    12.000000000000
         C           -2.524812210247    -1.852495652327    -0.638657355908    12.000000000000
         C            1.223306789753    -1.263510652327     0.311906644092    12.000000000000
         C            1.759125789753     1.065332347673    -0.058770355908    12.000000000000
         C            2.514632789753    -1.611242652327     0.047627644092    12.000000000000
         C            3.415514789753    -0.552755652327    -0.258292355908    12.000000000000
         H           -0.934074210247     0.589301347673    -1.514258355908     1.007825032230
         H           -3.359050210247     0.640562347673    -1.145832355908     1.007825032230
         H           -0.436758210247     1.219777347673     1.404630644092     1.007825032230
         H           -3.278425210247    -0.910836652327     1.131415644092     1.007825032230
         H           -1.709776210247    -1.702407652327    -1.368831355908     1.007825032230
         H           -3.482029210247    -1.836106652327    -1.183502355908     1.007825032230
         H           -0.293993210247     2.711076347673    -0.524367355908     1.007825032230
         H           -2.844024210247     2.397640347673     0.509295644092     1.007825032230
         H            0.437842789753    -1.965539652327     0.569700644092     1.007825032230
         H           -2.430342210247    -3.800534652327    -0.542600355908     1.007825032230
         H            2.832643789753    -2.647500652327     0.074554644092     1.007825032230
         H            5.128711789753    -1.672963652327    -0.161781355908     1.007825032230
         H            5.323345789753    -0.022156652327    -0.567661355908     1.007825032230

  Basis Set: AUG-CC-PVTZ
    Blend: AUG-CC-PVTZ
  Basis Set: (AUG-CC-PVTZ AUX)
    Blend: AUG-CC-PVTZ-JKFIT
	 Reference Energy          =    -886.3679827427538385 [Eh]
	 Singles Energy            =      -0.0000000000000000 [Eh]
	 Same-Spin Energy          =      -0.9011052993499012 [Eh]
	 Opposite-Spin Energy      =      -2.7146725554431184 [Eh]
	 Correlation Energy        =      -3.6157778547930195 [Eh]
	 Total Energy              =    -889.9837605975468477 [Eh]

	 ================> DF-SCS-MP2 Energies <==================
	-----------------------------------------------------------
	 SCS Same-Spin Scale       =       0.3333333333333333 [-]
	 SCS Opposite-Spin Scale   =       1.2000000000000000 [-]
	 SCS Same-Spin Energy      =      -0.3003684331166337 [Eh]
	 SCS Opposite-Spin Energy  =      -3.2576070665317420 [Eh]
	 SCS Correlation Energy    =      -3.5579754996483759 [Eh]
	 SCS Total Energy          =    -889.9259582424022028 [Eh]
	-----------------------------------------------------------

  Dipole Moment: [D]
     X:     1.5184      Y:    -5.8628      Z:    -1.8673     Total:     6.3376

*** Psi4 exiting successfully. Buy a developer a beer!
