                               Psi4 1.4a3.dev225

  ==> Input File <==

--------------------------------------------------------------------------
#psi4
#
memory 32 gb

molecule  {
0 1
  O       -1.3191770     0.6538360    -1.0992360
  O       -1.5735610    -2.4640850     0.5135810
  O       -3.5606630    -1.0699430    -0.4600060
  O       -1.4399290     3.1254620     0.1265180
  O        1.1065530    -2.3833650     0.0076020
  N        0.7686360    -0.1579440    -0.3706350
  N        2.9363770    -0.9938720     0.1460080
  N        4.7058880     0.4431110     0.3611260
  C       -1.3768610    -1.0680440     0.5552780
  C       -2.7379840    -0.3746360     0.4578480
  C       -0.6377490    -0.5042940    -0.6790150
  C       -2.3707440     0.9655450    -0.1585060
  C       -1.8992030     1.9895750     0.8571380
  C        1.2309690     1.1190800    -0.4442230
  C        1.6104480    -1.2470590    -0.0585760
  C        2.5474650     1.3753690    -0.1998620
  C        3.3802090     0.2523040     0.0808410
  H       -0.8441360    -0.7686950     1.4698480
  H       -3.2257400    -0.2778790     1.4400230
  H       -0.6227070    -1.2428120    -1.4883720
  H       -3.1791111     1.3710170    -0.7364373
  H       -1.0952130     1.5703990     1.4802000
  H       -2.7410530     2.2466610     1.5166010
  H       -0.6710550    -2.8260740     0.3542250
  H       -3.3063470    -2.0105220    -0.3629290
  H        0.4929290     1.8778260    -0.6840360
  H       -1.2098800     3.8154810     0.7720340
  H        2.9334840     2.3875570    -0.2389120
  H        5.1589650     1.2712730    -0.0008400
  H        5.2635310    -0.4031270     0.3606700
units angstrom
no_reorient  #important for SAPT in psi4, default
symmetry c1  #important for SAPT in psi4, default
}

set PROPERTIES_ORIGIN ["COM"]
properties('MP2/aug-cc-pvtz', properties = ['dipole'])
--------------------------------------------------------------------------

    Molecular point group: c1
  Charge       = 0
  Multiplicity = 1
  Basis Set: AUG-CC-PVTZ
    Blend: AUG-CC-PVTZ
  Basis Set: (AUG-CC-PVTZ AUX)
    Blend: AUG-CC-PVTZ-JKFIT

    Orbital Energies [Eh]
    ---------------------

    Doubly Occupied:

       1A    -20.586751     2A    -20.581199     3A    -20.559280
       4A    -20.556449     5A    -20.519653     6A    -15.632890
       7A    -15.599621     8A    -15.551699     9A    -11.385894
      10A    -11.358008    11A    -11.339471    12A    -11.325058
      13A    -11.303428    14A    -11.296871    15A    -11.295711
      16A    -11.293359    17A    -11.246498    18A     -1.429152
      19A     -1.394048    20A     -1.383025    21A     -1.375462
      22A     -1.346521    23A     -1.303596    24A     -1.271271
      25A     -1.181143    26A     -1.079334    27A     -1.068457
      28A     -1.017531    29A     -0.936458    30A     -0.906726
      31A     -0.876978    32A     -0.830329    33A     -0.813488
      34A     -0.766507    35A     -0.750283    36A     -0.735514
      37A     -0.721969    38A     -0.708603    39A     -0.703472
      40A     -0.685064    41A     -0.675060    42A     -0.653359
      43A     -0.648994    44A     -0.633407    45A     -0.620211
      46A     -0.615130    47A     -0.608078    48A     -0.593183
      49A     -0.577155    50A     -0.566472    51A     -0.555764
      52A     -0.548252    53A     -0.536662    54A     -0.531227
      55A     -0.495774    56A     -0.480800    57A     -0.474159
      58A     -0.463429    59A     -0.457904    60A     -0.452983
      61A     -0.442015    62A     -0.430240    63A     -0.392199
      64A     -0.348168

  @DF-RHF Final Energy:  -886.37433437481218

   => Energetics <=

    Nuclear Repulsion Energy =           1334.7100567982379289
    One-Electron Energy =               -3867.1339930708618340
    Two-Electron Energy =                1646.0496018978117263
    Total Energy =                       -886.3743343748121788
  Basis Set: (AUG-CC-PVTZ AUX)
    Blend: AUG-CC-PVTZ-RI
    Molecular point group: c1

    Geometry (in Angstrom), charge = 0, multiplicity = 1:

       Center              X                  Y                   Z               Mass
    ------------   -----------------  -----------------  -----------------  -----------------
         O           -1.331983109259     0.682478793689    -1.083500439936    15.994914619570
         O           -1.586367109259    -2.435442206311     0.529316560064    15.994914619570
         O           -3.573469109259    -1.041300206311    -0.444270439936    15.994914619570
         O           -1.452735109259     3.154104793689     0.142253560064    15.994914619570
         O            1.093746890741    -2.354722206311     0.023337560064    15.994914619570
         N            0.755829890741    -0.129301206311    -0.354899439936    14.003074004430
         N            2.923570890741    -0.965229206311     0.161743560064    14.003074004430
         N            4.693081890741     0.471753793689     0.376861560064    14.003074004430
         C           -1.389667109259    -1.039401206311     0.571013560064    12.000000000000
         C           -2.750790109259    -0.345993206311     0.473583560064    12.000000000000
         C           -0.650555109259    -0.475651206311    -0.663279439936    12.000000000000
         C           -2.383550109259     0.994187793689    -0.142770439936    12.000000000000
         C           -1.912009109259     2.018217793689     0.872873560064    12.000000000000
         C            1.218162890741     1.147722793689    -0.428487439936    12.000000000000
         C            1.597641890741    -1.218416206311    -0.042840439936    12.000000000000
         C            2.534658890741     1.404011793689    -0.184126439936    12.000000000000
         C            3.367402890741     0.280946793689     0.096576560064    12.000000000000
         H           -0.856942109259    -0.740052206311     1.485583560064     1.007825032230
         H           -3.238546109259    -0.249236206311     1.455758560064     1.007825032230
         H           -0.635513109259    -1.214169206311    -1.472636439936     1.007825032230
         H           -3.191917209259     1.399659793689    -0.720701739936     1.007825032230
         H           -1.108019109259     1.599041793689     1.495935560064     1.007825032230
         H           -2.753859109259     2.275303793689     1.532336560064     1.007825032230
         H           -0.683861109259    -2.797431206311     0.369960560064     1.007825032230
         H           -3.319153109259    -1.981879206311    -0.347193439936     1.007825032230
         H            0.480122890741     1.906468793689    -0.668300439936     1.007825032230
         H           -1.222686109259     3.844123793689     0.787769560064     1.007825032230
         H            2.920677890741     2.416199793689    -0.223176439936     1.007825032230
         H            5.146158890741     1.299915793689     0.014895560064     1.007825032230
         H            5.250724890741    -0.374484206311     0.376405560064     1.007825032230

  Basis Set: AUG-CC-PVTZ
    Blend: AUG-CC-PVTZ
  Basis Set: (AUG-CC-PVTZ AUX)
    Blend: AUG-CC-PVTZ-JKFIT
	 Reference Energy          =    -886.3743343748121788 [Eh]
	 Singles Energy            =      -0.0000000000000000 [Eh]
	 Same-Spin Energy          =      -0.9017649449026066 [Eh]
	 Opposite-Spin Energy      =      -2.7157308003765017 [Eh]
	 Correlation Energy        =      -3.6174957452791086 [Eh]
	 Total Energy              =    -889.9918301200913220 [Eh]

	 ================> DF-SCS-MP2 Energies <==================
	-----------------------------------------------------------
	 SCS Same-Spin Scale       =       0.3333333333333333 [-]
	 SCS Opposite-Spin Scale   =       1.2000000000000000 [-]
	 SCS Same-Spin Energy      =      -0.3005883149675355 [Eh]
	 SCS Opposite-Spin Energy  =      -3.2588769604518020 [Eh]
	 SCS Correlation Energy    =      -3.5594652754193374 [Eh]
	 SCS Total Energy          =    -889.9337996502315491 [Eh]
	-----------------------------------------------------------

  Dipole Moment: [D]
     X:     2.7296      Y:     5.8034      Z:     1.9479     Total:     6.7025

*** Psi4 exiting successfully. Buy a developer a beer!
