                               Psi4 1.3.2 release

  ==> Input File <==

--------------------------------------------------------------------------
#psi4
#
memory 32 gb

molecule  {
0 1
  O       -1.2481010    -0.6526680     1.0325150
  O       -1.2449750     2.4828510    -0.6861630
  O       -3.2165300     1.5210990     0.7448870
  O       -2.3570290    -3.0668370     0.0949400
  O        1.3605300     2.2470340    -0.0765420
  N        0.8434040     0.0452230     0.2559430
  N        3.0572260     0.7205030    -0.2937270
  N        4.7164630    -0.8366550    -0.5722980
  C       -1.2894840     1.0784300    -0.5920770
  C       -2.7151710     0.6552070    -0.2573930
  C       -0.5254080     0.4815200     0.6000940
  C       -2.5292560    -0.7168860     0.3610560
  C       -2.5283440    -1.8503930    -0.6392900
  C        1.2308736    -1.2582773     0.3084357
  C        1.7645004     1.0590710    -0.0605137
  C        2.5111010    -1.6091400     0.0469950
  C        3.4119830    -0.5506530    -0.2589250
  H       -0.9376060     0.5914040    -1.5148910
  H       -3.3625820     0.6426650    -1.1464650
  H       -0.4402900     1.2218800     1.4039980
  H       -3.2819570    -0.9087340     1.1307830
  H       -1.7133080    -1.7003050    -1.3694640
  H       -3.4855610    -1.8340040    -1.1841350
  H       -0.2975250     2.7131790    -0.5250000
  H       -2.8475560     2.3997430     0.5086630
  H        0.4343110    -1.9634370     0.5690680
  H       -2.4338740    -3.7984320    -0.5432330
  H        2.8291120    -2.6453980     0.0739220
  H        5.1251800    -1.6708610    -0.1624140
  H        5.3198140    -0.0200540    -0.5682940
units angstrom
no_reorient  #important for SAPT in psi4, default
symmetry c1  #important for SAPT in psi4, default
}

set PROPERTIES_ORIGIN ["COM"]
properties('MP2/aug-cc-pvtz', properties = ['dipole'])
--------------------------------------------------------------------------

    Molecular point group: c1
  Charge       = 0
  Multiplicity = 1
  Basis Set: AUG-CC-PVTZ
    Blend: AUG-CC-PVTZ
  Basis Set: (AUG-CC-PVTZ AUX)
    Blend: AUG-CC-PVTZ-JKFIT

    Orbital Energies [Eh]
    ---------------------

    Doubly Occupied:

       1A    -20.582075     2A    -20.581404     3A    -20.557378
       4A    -20.556235     5A    -20.518659     6A    -15.636889
       7A    -15.601431     8A    -15.554486     9A    -11.387457
      10A    -11.359757    11A    -11.341639    12A    -11.327998
      13A    -11.300974    14A    -11.296661    15A    -11.296157
      16A    -11.292576    17A    -11.248555    18A     -1.428549
      19A     -1.392410    20A     -1.379572    21A     -1.372355
      22A     -1.345589    23A     -1.304908    24A     -1.273976
      25A     -1.185570    26A     -1.084474    27A     -1.067390
      28A     -1.021647    29A     -0.935723    30A     -0.908104
      31A     -0.878929    32A     -0.832966    33A     -0.811634
      34A     -0.768628    35A     -0.752160    36A     -0.735606
      37A     -0.720241    38A     -0.702670    39A     -0.698062
      40A     -0.685042    41A     -0.672539    42A     -0.654343
      43A     -0.650402    44A     -0.638791    45A     -0.620374
      46A     -0.613445    47A     -0.606509    48A     -0.592684
      49A     -0.575318    50A     -0.569731    51A     -0.553772
      52A     -0.545542    53A     -0.536645    54A     -0.531002
      55A     -0.496873    56A     -0.477220    57A     -0.474004
      58A     -0.461427    59A     -0.457835    60A     -0.452262
      61A     -0.441052    62A     -0.434187    63A     -0.396222
      64A     -0.351728

  @DF-RHF Final Energy:  -886.37302101242437

   => Energetics <=

    Nuclear Repulsion Energy =           1323.7386421057126427
    One-Electron Energy =               -3845.1624384897077107
    Two-Electron Energy =                1635.0507753715705803
    Total Energy =                       -886.3730210124244877
  Basis Set: (AUG-CC-PVTZ AUX)
    Blend: AUG-CC-PVTZ-RI
    Molecular point group: c1

    Geometry (in Angstrom), charge = 0, multiplicity = 1:

       Center              X                  Y                   Z               Mass
    ------------   -----------------  -----------------  -----------------  -----------------
         O           -1.249088587615    -0.652409646214     1.032709951219    15.994914619570
         O           -1.245962587615     2.483109353786    -0.685968048781    15.994914619570
         O           -3.217517587615     1.521357353786     0.745081951219    15.994914619570
         O           -2.358016587615    -3.066578646214     0.095134951219    15.994914619570
         O            1.359542412385     2.247292353786    -0.076347048781    15.994914619570
         N            0.842416412385     0.045481353786     0.256137951219    14.003074004430
         N            3.056238412385     0.720761353786    -0.293532048781    14.003074004430
         N            4.715475412385    -0.836396646214    -0.572103048781    14.003074004430
         C           -1.290471587615     1.078688353786    -0.591882048781    12.000000000000
         C           -2.716158587615     0.655465353786    -0.257198048781    12.000000000000
         C           -0.526395587615     0.481778353786     0.600288951219    12.000000000000
         C           -2.530243587615    -0.716627646214     0.361250951219    12.000000000000
         C           -2.529331587615    -1.850134646214    -0.639095048781    12.000000000000
         C            1.229886012385    -1.258018946214     0.308630651219    12.000000000000
         C            1.763512812385     1.059329353786    -0.060318748781    12.000000000000
         C            2.510113412385    -1.608881646214     0.047189951219    12.000000000000
         C            3.410995412385    -0.550394646214    -0.258730048781    12.000000000000
         H           -0.938593587615     0.591662353786    -1.514696048781     1.007825032230
         H           -3.363569587615     0.642923353786    -1.146270048781     1.007825032230
         H           -0.441277587615     1.222138353786     1.404192951219     1.007825032230
         H           -3.282944587615    -0.908475646214     1.130977951219     1.007825032230
         H           -1.714295587615    -1.700046646214    -1.369269048781     1.007825032230
         H           -3.486548587615    -1.833745646214    -1.183940048781     1.007825032230
         H           -0.298512587615     2.713437353786    -0.524805048781     1.007825032230
         H           -2.848543587615     2.400001353786     0.508857951219     1.007825032230
         H            0.433323412385    -1.963178646214     0.569262951219     1.007825032230
         H           -2.434861587615    -3.798173646214    -0.543038048781     1.007825032230
         H            2.828124412385    -2.645139646214     0.074116951219     1.007825032230
         H            5.124192412385    -1.670602646214    -0.162219048781     1.007825032230
         H            5.318826412385    -0.019795646214    -0.568099048781     1.007825032230

  Basis Set: AUG-CC-PVTZ
    Blend: AUG-CC-PVTZ
  Basis Set: (AUG-CC-PVTZ AUX)
    Blend: AUG-CC-PVTZ-JKFIT
	 Reference Energy          =    -886.3730210124243740 [Eh]
	 Singles Energy            =      -0.0000000000000000 [Eh]
	 Same-Spin Energy          =      -0.9013030605031463 [Eh]
	 Opposite-Spin Energy      =      -2.7149113360133010 [Eh]
	 Correlation Energy        =      -3.6162143965164475 [Eh]
	 Total Energy              =    -889.9892354089407718 [Eh]

	 ================> DF-SCS-MP2 Energies <==================
	-----------------------------------------------------------
	 SCS Same-Spin Scale       =       0.3333333333333333 [-]
	 SCS Opposite-Spin Scale   =       1.2000000000000000 [-]
	 SCS Same-Spin Energy      =      -0.3004343535010487 [Eh]
	 SCS Opposite-Spin Energy  =      -3.2578936032159613 [Eh]
	 SCS Correlation Energy    =      -3.5583279567170099 [Eh]
	 SCS Total Energy          =    -889.9313489691413679 [Eh]
	-----------------------------------------------------------

  Dipole Moment: [D]
     X:     1.8078      Y:    -6.0551      Z:    -1.8305     Total:     6.5790

*** Psi4 exiting successfully. Buy a developer a beer!
