                               Psi4 1.3.2 release

  ==> Input File <==

--------------------------------------------------------------------------
#psi4
#
memory 32 gb

molecule  {
0 1
  O       -1.2481010    -0.6526680     1.0325150
  O       -1.2449750     2.4828510    -0.6861630
  O       -3.2165300     1.5210990     0.7448870
  O       -2.3570290    -3.0668370     0.0949400
  O        1.3605300     2.2470340    -0.0765420
  N        0.8434040     0.0452230     0.2559430
  N        3.0572260     0.7205030    -0.2937270
  N        4.7164630    -0.8366550    -0.5722980
  C       -1.2894840     1.0784300    -0.5920770
  C       -2.7151710     0.6552070    -0.2573930
  C       -0.5821715     0.4983836     0.5557828
  C       -2.5109308    -0.6531877     0.3242779
  C       -2.5283440    -1.8503930    -0.6392900
  C        1.2197750    -1.2614080     0.3112740
  C        1.7555940     1.0674350    -0.0594030
  C        2.5111010    -1.6091400     0.0469950
  C        3.4119830    -0.5506530    -0.2589250
  H       -0.9376060     0.5914040    -1.5148910
  H       -3.3625820     0.6426650    -1.1464650
  H       -0.4402900     1.2218800     1.4039980
  H       -3.2819570    -0.9087340     1.1307830
  H       -1.7133080    -1.7003050    -1.3694640
  H       -3.4855610    -1.8340040    -1.1841350
  H       -0.2975250     2.7131790    -0.5250000
  H       -2.8475560     2.3997430     0.5086630
  H        0.4343110    -1.9634370     0.5690680
  H       -2.4338740    -3.7984320    -0.5432330
  H        2.8291120    -2.6453980     0.0739220
  H        5.1251800    -1.6708610    -0.1624140
  H        5.3198140    -0.0200540    -0.5682940
units angstrom
no_reorient  #important for SAPT in psi4, default
symmetry c1  #important for SAPT in psi4, default
}

set PROPERTIES_ORIGIN ["COM"]
properties('MP2/aug-cc-pvtz', properties = ['dipole'])
--------------------------------------------------------------------------

    Molecular point group: c1
  Charge       = 0
  Multiplicity = 1
  Basis Set: AUG-CC-PVTZ
    Blend: AUG-CC-PVTZ
  Basis Set: (AUG-CC-PVTZ AUX)
    Blend: AUG-CC-PVTZ-JKFIT

    Orbital Energies [Eh]
    ---------------------

    Doubly Occupied:

       1A    -20.588074     2A    -20.584065     3A    -20.561379
       4A    -20.560745     5A    -20.519892     6A    -15.633533
       7A    -15.598265     8A    -15.551317     9A    -11.385536
      10A    -11.355924    11A    -11.345765    12A    -11.326588
      13A    -11.303854    14A    -11.299666    15A    -11.298279
      16A    -11.294069    17A    -11.246513    18A     -1.436208
      19A     -1.395232    20A     -1.383640    21A     -1.374339
      22A     -1.350689    23A     -1.303332    24A     -1.268164
      25A     -1.179243    26A     -1.085929    27A     -1.077682
      28A     -1.028455    29A     -0.934217    30A     -0.906554
      31A     -0.879071    32A     -0.833735    33A     -0.814293
      34A     -0.763520    35A     -0.752220    36A     -0.737271
      37A     -0.721277    38A     -0.704786    39A     -0.701066
      40A     -0.683713    41A     -0.671417    42A     -0.653647
      43A     -0.650798    44A     -0.641656    45A     -0.621682
      46A     -0.612652    47A     -0.607445    48A     -0.591243
      49A     -0.578228    50A     -0.561650    51A     -0.559705
      52A     -0.549606    53A     -0.540323    54A     -0.527884
      55A     -0.496631    56A     -0.487023    57A     -0.478657
      58A     -0.461380    59A     -0.460990    60A     -0.456700
      61A     -0.441830    62A     -0.429215    63A     -0.394482
      64A     -0.348651

  @DF-RHF Final Energy:  -886.35680149403299

   => Energetics <=

    Nuclear Repulsion Energy =           1325.2881579564611911
    One-Electron Energy =               -3848.1067297590298040
    Two-Electron Energy =                1636.4617703085357334
    Total Energy =                       -886.3568014940331068
  Basis Set: (AUG-CC-PVTZ AUX)
    Blend: AUG-CC-PVTZ-RI
    Molecular point group: c1

    Geometry (in Angstrom), charge = 0, multiplicity = 1:

       Center              X                  Y                   Z               Mass
    ------------   -----------------  -----------------  -----------------  -----------------
         O           -1.246203514088    -0.656644955655     1.036518008556    15.994914619570
         O           -1.243077514088     2.478874044345    -0.682159991444    15.994914619570
         O           -3.214632514088     1.517122044345     0.748890008556    15.994914619570
         O           -2.355131514088    -3.070813955655     0.098943008556    15.994914619570
         O            1.362427485912     2.243057044345    -0.072538991444    15.994914619570
         N            0.845301485912     0.041246044345     0.259946008556    14.003074004430
         N            3.059123485912     0.716526044345    -0.289723991444    14.003074004430
         N            4.718360485912    -0.840631955655    -0.568294991444    14.003074004430
         C           -1.287586514088     1.074453044345    -0.588073991444    12.000000000000
         C           -2.713273514088     0.651230044345    -0.253389991444    12.000000000000
         C           -0.580274014088     0.494406644345     0.559785808556    12.000000000000
         C           -2.509033314088    -0.657164655655     0.328280908556    12.000000000000
         C           -2.526446514088    -1.854369955655    -0.635286991444    12.000000000000
         C            1.221672485912    -1.265384955655     0.315277008556    12.000000000000
         C            1.757491485912     1.063458044345    -0.055399991444    12.000000000000
         C            2.512998485912    -1.613116955655     0.050998008556    12.000000000000
         C            3.413880485912    -0.554629955655    -0.254921991444    12.000000000000
         H           -0.935708514088     0.587427044345    -1.510887991444     1.007825032230
         H           -3.360684514088     0.638688044345    -1.142461991444     1.007825032230
         H           -0.438392514088     1.217903044345     1.408001008556     1.007825032230
         H           -3.280059514088    -0.912710955655     1.134786008556     1.007825032230
         H           -1.711410514088    -1.704281955655    -1.365460991444     1.007825032230
         H           -3.483663514088    -1.837980955655    -1.180131991444     1.007825032230
         H           -0.295627514088     2.709202044345    -0.520996991444     1.007825032230
         H           -2.845658514088     2.395766044345     0.512666008556     1.007825032230
         H            0.436208485912    -1.967413955655     0.573071008556     1.007825032230
         H           -2.431976514088    -3.802408955655    -0.539229991444     1.007825032230
         H            2.831009485912    -2.649374955655     0.077925008556     1.007825032230
         H            5.127077485912    -1.674837955655    -0.158410991444     1.007825032230
         H            5.321711485912    -0.024030955655    -0.564290991444     1.007825032230

  Basis Set: AUG-CC-PVTZ
    Blend: AUG-CC-PVTZ
  Basis Set: (AUG-CC-PVTZ AUX)
    Blend: AUG-CC-PVTZ-JKFIT
	 Reference Energy          =    -886.3568014940329931 [Eh]
	 Singles Energy            =      -0.0000000000000000 [Eh]
	 Same-Spin Energy          =      -0.9029585188704019 [Eh]
	 Opposite-Spin Energy      =      -2.7174209090840709 [Eh]
	 Correlation Energy        =      -3.6203794279544725 [Eh]
	 Total Energy              =    -889.9771809219874967 [Eh]

	 ================> DF-SCS-MP2 Energies <==================
	-----------------------------------------------------------
	 SCS Same-Spin Scale       =       0.3333333333333333 [-]
	 SCS Opposite-Spin Scale   =       1.2000000000000000 [-]
	 SCS Same-Spin Energy      =      -0.3009861729568006 [Eh]
	 SCS Opposite-Spin Energy  =      -3.2609050909008848 [Eh]
	 SCS Correlation Energy    =      -3.5618912638576852 [Eh]
	 SCS Total Energy          =    -889.9186927578906534 [Eh]
	-----------------------------------------------------------

  Dipole Moment: [D]
     X:     1.4855      Y:    -5.8524      Z:    -1.8807     Total:     6.3241

*** Psi4 exiting successfully. Buy a developer a beer!
