                               Psi4 1.3.2 release

  ==> Input File <==

--------------------------------------------------------------------------
#psi4
#
memory 32 gb

molecule  {
0 1
  O       -1.2481010    -0.6526680     1.0325150
  O       -1.2449750     2.4828510    -0.6861630
  O       -3.2165300     1.5210990     0.7448870
  O       -2.3570290    -3.0668370     0.0949400
  O        1.3605300     2.2470340    -0.0765420
  N        0.8434040     0.0452230     0.2559430
  N        3.0572260     0.7205030    -0.2937270
  N        4.7164630    -0.8366550    -0.5722980
  C       -1.2894840     1.0784300    -0.5920770
  C       -2.7121879     0.6764095    -0.2089847
  C       -0.5254080     0.4815200     0.6000940
  C       -2.5292560    -0.7168860     0.3610560
  C       -2.5212718    -1.8842958    -0.5994760
  C        1.2197750    -1.2614080     0.3112740
  C        1.7555940     1.0674350    -0.0594030
  C        2.5111010    -1.6091400     0.0469950
  C        3.4119830    -0.5506530    -0.2589250
  H       -0.9376060     0.5914040    -1.5148910
  H       -3.3625820     0.6426650    -1.1464650
  H       -0.4402900     1.2218800     1.4039980
  H       -3.2819570    -0.9087340     1.1307830
  H       -1.7133080    -1.7003050    -1.3694640
  H       -3.4855610    -1.8340040    -1.1841350
  H       -0.2975250     2.7131790    -0.5250000
  H       -2.8475560     2.3997430     0.5086630
  H        0.4343110    -1.9634370     0.5690680
  H       -2.4338740    -3.7984320    -0.5432330
  H        2.8291120    -2.6453980     0.0739220
  H        5.1251800    -1.6708610    -0.1624140
  H        5.3198140    -0.0200540    -0.5682940
units angstrom
no_reorient  #important for SAPT in psi4, default
symmetry c1  #important for SAPT in psi4, default
}

set PROPERTIES_ORIGIN ["COM"]
properties('MP2/aug-cc-pvtz', properties = ['dipole'])
--------------------------------------------------------------------------

    Molecular point group: c1
  Charge       = 0
  Multiplicity = 1
  Basis Set: AUG-CC-PVTZ
    Blend: AUG-CC-PVTZ
  Basis Set: (AUG-CC-PVTZ AUX)
    Blend: AUG-CC-PVTZ-JKFIT

    Orbital Energies [Eh]
    ---------------------

    Doubly Occupied:

       1A    -20.587015     2A    -20.579397     3A    -20.562378
       4A    -20.556903     5A    -20.521551     6A    -15.636256
       7A    -15.599526     8A    -15.552943     9A    -11.387782
      10A    -11.357459    11A    -11.340220    12A    -11.328136
      13A    -11.303415    14A    -11.295167    15A    -11.294691
      16A    -11.294191    17A    -11.248134    18A     -1.431153
      19A     -1.400106    20A     -1.395359    21A     -1.383552
      22A     -1.354181    23A     -1.305628    24A     -1.273324
      25A     -1.181844    26A     -1.081504    27A     -1.062360
      28A     -1.020775    29A     -0.933214    30A     -0.908524
      31A     -0.876947    32A     -0.832744    33A     -0.806818
      34A     -0.766367    35A     -0.751518    36A     -0.739390
      37A     -0.724010    38A     -0.713327    39A     -0.701550
      40A     -0.685699    41A     -0.674128    42A     -0.653782
      43A     -0.651784    44A     -0.639362    45A     -0.620707
      46A     -0.617830    47A     -0.609873    48A     -0.593891
      49A     -0.580672    50A     -0.571532    51A     -0.559600
      52A     -0.547965    53A     -0.538279    54A     -0.530094
      55A     -0.497462    56A     -0.472279    57A     -0.470260
      58A     -0.460602    59A     -0.455597    60A     -0.450514
      61A     -0.435252    62A     -0.432213    63A     -0.394377
      64A     -0.349296

  @DF-RHF Final Energy:  -886.36873158110916

   => Energetics <=

    Nuclear Repulsion Energy =           1324.6518971404889271
    One-Electron Energy =               -3846.8764424653631977
    Two-Electron Energy =                1635.8558137437651112
    Total Energy =                       -886.3687315811091594
  Basis Set: (AUG-CC-PVTZ AUX)
    Blend: AUG-CC-PVTZ-RI
    Molecular point group: c1

    Geometry (in Angstrom), charge = 0, multiplicity = 1:

       Center              X                  Y                   Z               Mass
    ------------   -----------------  -----------------  -----------------  -----------------
         O           -1.248597417266    -0.652041035201     1.028159883417    15.994914619570
         O           -1.245471417266     2.483477964799    -0.690518116583    15.994914619570
         O           -3.217026417266     1.521725964799     0.740531883417    15.994914619570
         O           -2.357525417266    -3.066210035201     0.090584883417    15.994914619570
         O            1.360033582734     2.247660964799    -0.080897116583    15.994914619570
         N            0.842907582734     0.045849964799     0.251587883417    14.003074004430
         N            3.056729582734     0.721129964799    -0.298082116583    14.003074004430
         N            4.715966582734    -0.836028035201    -0.576653116583    14.003074004430
         C           -1.289980417266     1.079056964799    -0.596432116583    12.000000000000
         C           -2.712684317266     0.677036464799    -0.213339816583    12.000000000000
         C           -0.525904417266     0.482146964799     0.595738883417    12.000000000000
         C           -2.529752417266    -0.716259035201     0.356700883417    12.000000000000
         C           -2.521768217266    -1.883668835201    -0.603831116583    12.000000000000
         C            1.219278582734    -1.260781035201     0.306918883417    12.000000000000
         C            1.755097582734     1.068061964799    -0.063758116583    12.000000000000
         C            2.510604582734    -1.608513035201     0.042639883417    12.000000000000
         C            3.411486582734    -0.550026035201    -0.263280116583    12.000000000000
         H           -0.938102417266     0.592030964799    -1.519246116583     1.007825032230
         H           -3.363078417266     0.643291964799    -1.150820116583     1.007825032230
         H           -0.440786417266     1.222506964799     1.399642883417     1.007825032230
         H           -3.282453417266    -0.908107035201     1.126427883417     1.007825032230
         H           -1.713804417266    -1.699678035201    -1.373819116583     1.007825032230
         H           -3.486057417266    -1.833377035201    -1.188490116583     1.007825032230
         H           -0.298021417266     2.713805964799    -0.529355116583     1.007825032230
         H           -2.848052417266     2.400369964799     0.504307883417     1.007825032230
         H            0.433814582734    -1.962810035201     0.564712883417     1.007825032230
         H           -2.434370417266    -3.797805035201    -0.547588116583     1.007825032230
         H            2.828615582734    -2.644771035201     0.069566883417     1.007825032230
         H            5.124683582734    -1.670234035201    -0.166769116583     1.007825032230
         H            5.319317582734    -0.019427035201    -0.572649116583     1.007825032230

  Basis Set: AUG-CC-PVTZ
    Blend: AUG-CC-PVTZ
  Basis Set: (AUG-CC-PVTZ AUX)
    Blend: AUG-CC-PVTZ-JKFIT
	 Reference Energy          =    -886.3687315811091594 [Eh]
	 Singles Energy            =      -0.0000000000000000 [Eh]
	 Same-Spin Energy          =      -0.9014021121681530 [Eh]
	 Opposite-Spin Energy      =      -2.7137751631229312 [Eh]
	 Correlation Energy        =      -3.6151772752910842 [Eh]
	 Total Energy              =    -889.9839088564002623 [Eh]

	 ================> DF-SCS-MP2 Energies <==================
	-----------------------------------------------------------
	 SCS Same-Spin Scale       =       0.3333333333333333 [-]
	 SCS Opposite-Spin Scale   =       1.2000000000000000 [-]
	 SCS Same-Spin Energy      =      -0.3004673707227177 [Eh]
	 SCS Opposite-Spin Energy  =      -3.2565301957475175 [Eh]
	 SCS Correlation Energy    =      -3.5569975664702351 [Eh]
	 SCS Total Energy          =    -889.9257291475794318 [Eh]
	-----------------------------------------------------------

  Dipole Moment: [D]
     X:     1.6781      Y:    -6.0183      Z:    -1.6099     Total:     6.4520

*** Psi4 exiting successfully. Buy a developer a beer!
