                               Psi4 1.4a3.dev225

  ==> Input File <==

--------------------------------------------------------------------------
#psi4
#
memory 32 gb

molecule  {
0 1
  O       -1.3191770     0.6538360    -1.0992360
  O       -1.5735610    -2.4640850     0.5135810
  O       -3.5606630    -1.0699430    -0.4600060
  O       -1.4399290     3.1254620     0.1265180
  O        1.1065530    -2.3833650     0.0076020
  N        0.7686360    -0.1579440    -0.3706350
  N        2.9363770    -0.9938720     0.1460080
  N        4.7058880     0.4431110     0.3611260
  C       -1.3768610    -1.0680440     0.5552780
  C       -2.7379840    -0.3746360     0.4578480
  C       -0.6377490    -0.5042940    -0.6790150
  C       -2.3707440     0.9655450    -0.1585060
  C       -1.8992030     1.9895750     0.8571380
  C        1.2309690     1.1190800    -0.4442230
  C        1.6104480    -1.2470590    -0.0585760
  C        2.5474650     1.3753690    -0.1998620
  C        3.3802090     0.2523040     0.0808410
  H       -0.8441360    -0.7686950     1.4698480
  H       -3.2168788    -0.2796368     1.4221795
  H       -0.6227070    -1.2428120    -1.4883720
  H       -3.1941750     1.3785730    -0.7472070
  H       -1.0952130     1.5703990     1.4802000
  H       -2.7410530     2.2466610     1.5166010
  H       -0.6710550    -2.8260740     0.3542250
  H       -3.3063470    -2.0105220    -0.3629290
  H        0.4929290     1.8778260    -0.6840360
  H       -1.2098800     3.8154810     0.7720340
  H        2.9334840     2.3875570    -0.2389120
  H        5.1589650     1.2712730    -0.0008400
  H        5.2635310    -0.4031270     0.3606700
units angstrom
no_reorient  #important for SAPT in psi4, default
symmetry c1  #important for SAPT in psi4, default
}

set PROPERTIES_ORIGIN ["COM"]
properties('MP2/aug-cc-pvtz', properties = ['dipole'])
--------------------------------------------------------------------------

    Molecular point group: c1
  Charge       = 0
  Multiplicity = 1
  Basis Set: AUG-CC-PVTZ
    Blend: AUG-CC-PVTZ
  Basis Set: (AUG-CC-PVTZ AUX)
    Blend: AUG-CC-PVTZ-JKFIT

    Orbital Energies [Eh]
    ---------------------

    Doubly Occupied:

       1A    -20.586768     2A    -20.581229     3A    -20.559275
       4A    -20.555987     5A    -20.519646     6A    -15.632879
       7A    -15.599617     8A    -15.551695     9A    -11.385888
      10A    -11.358003    11A    -11.339432    12A    -11.325050
      13A    -11.303612    14A    -11.297737    15A    -11.296771
      16A    -11.291079    17A    -11.246492    18A     -1.429083
      19A     -1.394022    20A     -1.382985    21A     -1.375415
      22A     -1.346344    23A     -1.303588    24A     -1.271251
      25A     -1.181131    26A     -1.079264    27A     -1.068482
      28A     -1.017204    29A     -0.936802    30A     -0.906583
      31A     -0.876906    32A     -0.830072    33A     -0.813859
      34A     -0.766431    35A     -0.750783    36A     -0.735077
      37A     -0.722383    38A     -0.707926    39A     -0.703191
      40A     -0.685020    41A     -0.675659    42A     -0.653418
      43A     -0.649019    44A     -0.633913    45A     -0.620253
      46A     -0.615141    47A     -0.607741    48A     -0.593256
      49A     -0.577608    50A     -0.564878    51A     -0.555777
      52A     -0.548193    53A     -0.536532    54A     -0.531002
      55A     -0.495575    56A     -0.480817    57A     -0.473683
      58A     -0.463450    59A     -0.458027    60A     -0.453019
      61A     -0.442453    62A     -0.430186    63A     -0.392206
      64A     -0.348164

  @DF-RHF Final Energy:  -886.37437910495134

   => Energetics <=

    Nuclear Repulsion Energy =           1334.7046668058076193
    One-Electron Energy =               -3867.1282362521660616
    Two-Electron Energy =                1646.0491903414072112
    Total Energy =                       -886.3743791049514584
  Basis Set: (AUG-CC-PVTZ AUX)
    Blend: AUG-CC-PVTZ-RI
    Molecular point group: c1

    Geometry (in Angstrom), charge = 0, multiplicity = 1:

       Center              X                  Y                   Z               Mass
    ------------   -----------------  -----------------  -----------------  -----------------
         O           -1.331957393057     0.682454754531    -1.083381810496    15.994914619570
         O           -1.586341393057    -2.435466245469     0.529435189504    15.994914619570
         O           -3.573443393057    -1.041324245469    -0.444151810496    15.994914619570
         O           -1.452709393057     3.154080754531     0.142372189504    15.994914619570
         O            1.093772606943    -2.354746245469     0.023456189504    15.994914619570
         N            0.755855606943    -0.129325245469    -0.354780810496    14.003074004430
         N            2.923596606943    -0.965253245469     0.161862189504    14.003074004430
         N            4.693107606943     0.471729754531     0.376980189504    14.003074004430
         C           -1.389641393057    -1.039425245469     0.571132189504    12.000000000000
         C           -2.750764393057    -0.346017245469     0.473702189504    12.000000000000
         C           -0.650529393057    -0.475675245469    -0.663160810496    12.000000000000
         C           -2.383524393057     0.994163754531    -0.142651810496    12.000000000000
         C           -1.911983393057     2.018193754531     0.872992189504    12.000000000000
         C            1.218188606943     1.147698754531    -0.428368810496    12.000000000000
         C            1.597667606943    -1.218440245469    -0.042721810496    12.000000000000
         C            2.534684606943     1.403987754531    -0.184007810496    12.000000000000
         C            3.367428606943     0.280922754531     0.096695189504    12.000000000000
         H           -0.856916393057    -0.740076245469     1.485702189504     1.007825032230
         H           -3.229659193057    -0.251018045469     1.438033689504     1.007825032230
         H           -0.635487393057    -1.214193245469    -1.472517810496     1.007825032230
         H           -3.206955393057     1.407191754531    -0.731352810496     1.007825032230
         H           -1.107993393057     1.599017754531     1.496054189504     1.007825032230
         H           -2.753833393057     2.275279754531     1.532455189504     1.007825032230
         H           -0.683835393057    -2.797455245469     0.370079189504     1.007825032230
         H           -3.319127393057    -1.981903245469    -0.347074810496     1.007825032230
         H            0.480148606943     1.906444754531    -0.668181810496     1.007825032230
         H           -1.222660393057     3.844099754531     0.787888189504     1.007825032230
         H            2.920703606943     2.416175754531    -0.223057810496     1.007825032230
         H            5.146184606943     1.299891754531     0.015014189504     1.007825032230
         H            5.250750606943    -0.374508245469     0.376524189504     1.007825032230

  Basis Set: AUG-CC-PVTZ
    Blend: AUG-CC-PVTZ
  Basis Set: (AUG-CC-PVTZ AUX)
    Blend: AUG-CC-PVTZ-JKFIT
	 Reference Energy          =    -886.3743791049513447 [Eh]
	 Singles Energy            =      -0.0000000000000000 [Eh]
	 Same-Spin Energy          =      -0.9017771867010473 [Eh]
	 Opposite-Spin Energy      =      -2.7157398967315043 [Eh]
	 Correlation Energy        =      -3.6175170834325518 [Eh]
	 Total Energy              =    -889.9918961883838620 [Eh]

	 ================> DF-SCS-MP2 Energies <==================
	-----------------------------------------------------------
	 SCS Same-Spin Scale       =       0.3333333333333333 [-]
	 SCS Opposite-Spin Scale   =       1.2000000000000000 [-]
	 SCS Same-Spin Energy      =      -0.3005923955670158 [Eh]
	 SCS Opposite-Spin Energy  =      -3.2588878760778051 [Eh]
	 SCS Correlation Energy    =      -3.5594802716448206 [Eh]
	 SCS Total Energy          =    -889.9338593765961605 [Eh]
	-----------------------------------------------------------

  Dipole Moment: [D]
     X:     2.7309      Y:     5.8054      Z:     1.9609     Total:     6.7086

*** Psi4 exiting successfully. Buy a developer a beer!
