                               Psi4 1.3.2 release

  ==> Input File <==

--------------------------------------------------------------------------
#psi4
#
memory 32 gb

molecule  {
0 1
  O       -1.2481010    -0.6526680     1.0325150
  O       -1.2449750     2.4828510    -0.6861630
  O       -3.2165300     1.5210990     0.7448870
  O       -2.3570290    -3.0668370     0.0949400
  O        1.3605300     2.2470340    -0.0765420
  N        0.8434040     0.0452230     0.2559430
  N        3.0572260     0.7205030    -0.2937270
  N        4.7164630    -0.8366550    -0.5722980
  C       -1.2894840     1.0784300    -0.5920770
  C       -2.7151710     0.6552070    -0.2573930
  C       -0.5254080     0.4815200     0.6000940
  C       -2.5292560    -0.7168860     0.3610560
  C       -2.5283440    -1.8503930    -0.6392900
  C        1.2197750    -1.2614080     0.3112740
  C        1.7555940     1.0674350    -0.0594030
  C        2.5111010    -1.6091400     0.0469950
  C        3.4119830    -0.5506530    -0.2589250
  H       -0.9376060     0.5914040    -1.5148910
  H       -3.3037203     0.6438053    -1.0656318
  H       -0.4402900     1.2218800     1.4039980
  H       -3.2819570    -0.9087340     1.1307830
  H       -1.7133080    -1.7003050    -1.3694640
  H       -3.4855610    -1.8340040    -1.1841350
  H       -0.2975250     2.7131790    -0.5250000
  H       -2.8475560     2.3997430     0.5086630
  H        0.4343110    -1.9634370     0.5690680
  H       -2.4338740    -3.7984320    -0.5432330
  H        2.8291120    -2.6453980     0.0739220
  H        5.1251800    -1.6708610    -0.1624140
  H        5.3198140    -0.0200540    -0.5682940
units angstrom
no_reorient  #important for SAPT in psi4, default
symmetry c1  #important for SAPT in psi4, default
}

set PROPERTIES_ORIGIN ["COM"]
properties('MP2/aug-cc-pvtz', properties = ['dipole'])
--------------------------------------------------------------------------

    Molecular point group: c1
  Charge       = 0
  Multiplicity = 1
  Basis Set: AUG-CC-PVTZ
    Blend: AUG-CC-PVTZ
  Basis Set: (AUG-CC-PVTZ AUX)
    Blend: AUG-CC-PVTZ-JKFIT

    Orbital Energies [Eh]
    ---------------------

    Doubly Occupied:

       1A    -20.582514     2A    -20.580858     3A    -20.556989
       4A    -20.555862     5A    -20.521757     6A    -15.636592
       7A    -15.599694     8A    -15.553150     9A    -11.388017
      10A    -11.357663    11A    -11.340933    12A    -11.328294
      13A    -11.301527    14A    -11.296142    15A    -11.295834
      16A    -11.280679    17A    -11.248344    18A     -1.428783
      19A     -1.396081    20A     -1.379793    21A     -1.372788
      22A     -1.345581    23A     -1.305830    24A     -1.273532
      25A     -1.182049    26A     -1.081697    27A     -1.070499
      28A     -1.021207    29A     -0.937208    30A     -0.909240
      31A     -0.878398    32A     -0.832327    33A     -0.821000
      34A     -0.766999    35A     -0.754239    36A     -0.735972
      37A     -0.722257    38A     -0.702754    39A     -0.698030
      40A     -0.685426    41A     -0.676112    42A     -0.655645
      43A     -0.651373    44A     -0.640135    45A     -0.620546
      46A     -0.615100    47A     -0.606427    48A     -0.594268
      49A     -0.578230    50A     -0.569359    51A     -0.553717
      52A     -0.545674    53A     -0.537070    54A     -0.531694
      55A     -0.497698    56A     -0.477657    57A     -0.474749
      58A     -0.462921    59A     -0.460762    60A     -0.452946
      61A     -0.441794    62A     -0.432889    63A     -0.395079
      64A     -0.349793

  @DF-RHF Final Energy:  -886.36836632930806

   => Energetics <=

    Nuclear Repulsion Energy =           1324.3857702437255739
    One-Electron Energy =               -3846.4119217078509791
    Two-Electron Energy =                1635.6577851348170043
    Total Energy =                       -886.3683663293081736
  Basis Set: (AUG-CC-PVTZ AUX)
    Blend: AUG-CC-PVTZ-RI
    Molecular point group: c1

    Geometry (in Angstrom), charge = 0, multiplicity = 1:

       Center              X                  Y                   Z               Mass
    ------------   -----------------  -----------------  -----------------  -----------------
         O           -1.248345072720    -0.652672717510     1.032179875539    15.994914619570
         O           -1.245219072720     2.482846282490    -0.686498124461    15.994914619570
         O           -3.216774072720     1.521094282490     0.744551875539    15.994914619570
         O           -2.357273072720    -3.066841717510     0.094604875539    15.994914619570
         O            1.360285927280     2.247029282490    -0.076877124461    15.994914619570
         N            0.843159927280     0.045218282490     0.255607875539    14.003074004430
         N            3.056981927280     0.720498282490    -0.294062124461    14.003074004430
         N            4.716218927280    -0.836659717510    -0.572633124461    14.003074004430
         C           -1.289728072720     1.078425282490    -0.592412124461    12.000000000000
         C           -2.715415072720     0.655202282490    -0.257728124461    12.000000000000
         C           -0.525652072720     0.481515282490     0.599758875539    12.000000000000
         C           -2.529500072720    -0.716890717510     0.360720875539    12.000000000000
         C           -2.528588072720    -1.850397717510    -0.639625124461    12.000000000000
         C            1.219530927280    -1.261412717510     0.310938875539    12.000000000000
         C            1.755349927280     1.067430282490    -0.059738124461    12.000000000000
         C            2.510856927280    -1.609144717510     0.046659875539    12.000000000000
         C            3.411738927280    -0.550657717510    -0.259260124461    12.000000000000
         H           -0.937850072720     0.591399282490    -1.515226124461     1.007825032230
         H           -3.303964372720     0.643800582490    -1.065966924461     1.007825032230
         H           -0.440534072720     1.221875282490     1.403662875539     1.007825032230
         H           -3.282201072720    -0.908738717510     1.130447875539     1.007825032230
         H           -1.713552072720    -1.700309717510    -1.369799124461     1.007825032230
         H           -3.485805072720    -1.834008717510    -1.184470124461     1.007825032230
         H           -0.297769072720     2.713174282490    -0.525335124461     1.007825032230
         H           -2.847800072720     2.399738282490     0.508327875539     1.007825032230
         H            0.434066927280    -1.963441717510     0.568732875539     1.007825032230
         H           -2.434118072720    -3.798436717510    -0.543568124461     1.007825032230
         H            2.828867927280    -2.645402717510     0.073586875539     1.007825032230
         H            5.124935927280    -1.670865717510    -0.162749124461     1.007825032230
         H            5.319569927280    -0.020058717510    -0.568629124461     1.007825032230

  Basis Set: AUG-CC-PVTZ
    Blend: AUG-CC-PVTZ
  Basis Set: (AUG-CC-PVTZ AUX)
    Blend: AUG-CC-PVTZ-JKFIT
	 Reference Energy          =    -886.3683663293080599 [Eh]
	 Singles Energy            =      -0.0000000000000000 [Eh]
	 Same-Spin Energy          =      -0.9010719792167701 [Eh]
	 Opposite-Spin Energy      =      -2.7141964871319990 [Eh]
	 Correlation Energy        =      -3.6152684663487689 [Eh]
	 Total Energy              =    -889.9836347956568261 [Eh]

	 ================> DF-SCS-MP2 Energies <==================
	-----------------------------------------------------------
	 SCS Same-Spin Scale       =       0.3333333333333333 [-]
	 SCS Opposite-Spin Scale   =       1.2000000000000000 [-]
	 SCS Same-Spin Energy      =      -0.3003573264055900 [Eh]
	 SCS Opposite-Spin Energy  =      -3.2570357845583988 [Eh]
	 SCS Correlation Energy    =      -3.5573931109639889 [Eh]
	 SCS Total Energy          =    -889.9257594402720315 [Eh]
	-----------------------------------------------------------

  Dipole Moment: [D]
     X:     1.6757      Y:    -5.9741      Z:    -1.8768     Total:     6.4823

*** Psi4 exiting successfully. Buy a developer a beer!
