                               Psi4 1.3.2 release

  ==> Input File <==

--------------------------------------------------------------------------
#psi4
#
memory 32 gb

molecule  {
0 1
  O       -1.2481010    -0.6526680     1.0325150
  O       -1.2449750     2.4828510    -0.6861630
  O       -3.2165300     1.5210990     0.7448870
  O       -2.3570290    -3.0668370     0.0949400
  O        1.3204999     2.2329623    -0.0673030
  N        0.8434040     0.0452230     0.2559430
  N        3.0452596     0.6747170    -0.2875492
  N        4.7164630    -0.8366550    -0.5722980
  C       -1.2894840     1.0784300    -0.5920770
  C       -2.7151710     0.6552070    -0.2573930
  C       -0.5254080     0.4815200     0.6000940
  C       -2.5292560    -0.7168860     0.3610560
  C       -2.5283440    -1.8503930    -0.6392900
  C        1.2197750    -1.2614080     0.3112740
  C        1.7555940     1.0674350    -0.0594030
  C        2.5111010    -1.6091400     0.0469950
  C        3.4119830    -0.5506530    -0.2589250
  H       -0.9376060     0.5914040    -1.5148910
  H       -3.3625820     0.6426650    -1.1464650
  H       -0.4402900     1.2218800     1.4039980
  H       -3.2819570    -0.9087340     1.1307830
  H       -1.7133080    -1.7003050    -1.3694640
  H       -3.4855610    -1.8340040    -1.1841350
  H       -0.2975250     2.7131790    -0.5250000
  H       -2.8475560     2.3997430     0.5086630
  H        0.4343110    -1.9634370     0.5690680
  H       -2.4338740    -3.7984320    -0.5432330
  H        2.8291120    -2.6453980     0.0739220
  H        5.1251800    -1.6708610    -0.1624140
  H        5.3198140    -0.0200540    -0.5682940
units angstrom
no_reorient  #important for SAPT in psi4, default
symmetry c1  #important for SAPT in psi4, default
}

set PROPERTIES_ORIGIN ["COM"]
properties('MP2/aug-cc-pvtz', properties = ['dipole'])
--------------------------------------------------------------------------

    Molecular point group: c1
  Charge       = 0
  Multiplicity = 1
  Basis Set: AUG-CC-PVTZ
    Blend: AUG-CC-PVTZ
  Basis Set: (AUG-CC-PVTZ AUX)
    Blend: AUG-CC-PVTZ-JKFIT

    Orbital Energies [Eh]
    ---------------------

    Doubly Occupied:

       1A    -20.581484     2A    -20.580335     3A    -20.557144
       4A    -20.556057     5A    -20.527436     6A    -15.634501
       7A    -15.597248     8A    -15.551242     9A    -11.393869
      10A    -11.353040    11A    -11.340093    12A    -11.325224
      13A    -11.300406    14A    -11.296051    15A    -11.295779
      16A    -11.292209    17A    -11.245982    18A     -1.429352
      19A     -1.399886    20A     -1.379389    21A     -1.372080
      22A     -1.345658    23A     -1.313063    24A     -1.273810
      25A     -1.188246    26A     -1.079945    27A     -1.066914
      28A     -1.020874    29A     -0.936175    30A     -0.908318
      31A     -0.882711    32A     -0.831526    33A     -0.811246
      34A     -0.767528    35A     -0.752353    36A     -0.735700
      37A     -0.721860    38A     -0.702665    39A     -0.697673
      40A     -0.686018    41A     -0.672097    42A     -0.658011
      43A     -0.652206    44A     -0.639104    45A     -0.620634
      46A     -0.614620    47A     -0.606385    48A     -0.595083
      49A     -0.575092    50A     -0.569715    51A     -0.553501
      52A     -0.545782    53A     -0.537913    54A     -0.531699
      55A     -0.498095    56A     -0.476816    57A     -0.473831
      58A     -0.466108    59A     -0.460172    60A     -0.451964
      61A     -0.439474    62A     -0.429358    63A     -0.400518
      64A     -0.349067

  @DF-RHF Final Energy:  -886.37223903809445

   => Energetics <=

    Nuclear Repulsion Energy =           1325.6856122606120607
    One-Electron Energy =               -3849.0190328929252246
    Two-Electron Energy =                1636.9611815942189423
    Total Energy =                       -886.3722390380944489
  Basis Set: (AUG-CC-PVTZ AUX)
    Blend: AUG-CC-PVTZ-RI
    Molecular point group: c1

    Geometry (in Angstrom), charge = 0, multiplicity = 1:

       Center              X                  Y                   Z               Mass
    ------------   -----------------  -----------------  -----------------  -----------------
         O           -1.244777740905    -0.649104551017     1.031551210023    15.994914619570
         O           -1.241651740905     2.486414448983    -0.687126789977    15.994914619570
         O           -3.213206740905     1.524662448983     0.743923210023    15.994914619570
         O           -2.353705740905    -3.063273551017     0.093976210023    15.994914619570
         O            1.323823159095     2.236525748983    -0.068266789977    15.994914619570
         N            0.846727259095     0.048786448983     0.254979210023    14.003074004430
         N            3.048582859095     0.678280448983    -0.288512989977    14.003074004430
         N            4.719786259095    -0.833091551017    -0.573261789977    14.003074004430
         C           -1.286160740905     1.081993448983    -0.593040789977    12.000000000000
         C           -2.711847740905     0.658770448983    -0.258356789977    12.000000000000
         C           -0.522084740905     0.485083448983     0.599130210023    12.000000000000
         C           -2.525932740905    -0.713322551017     0.360092210023    12.000000000000
         C           -2.525020740905    -1.846829551017    -0.640253789977    12.000000000000
         C            1.223098259095    -1.257844551017     0.310310210023    12.000000000000
         C            1.758917259095     1.070998448983    -0.060366789977    12.000000000000
         C            2.514424259095    -1.605576551017     0.046031210023    12.000000000000
         C            3.415306259095    -0.547089551017    -0.259888789977    12.000000000000
         H           -0.934282740905     0.594967448983    -1.515854789977     1.007825032230
         H           -3.359258740905     0.646228448983    -1.147428789977     1.007825032230
         H           -0.436966740905     1.225443448983     1.403034210023     1.007825032230
         H           -3.278633740905    -0.905170551017     1.129819210023     1.007825032230
         H           -1.709984740905    -1.696741551017    -1.370427789977     1.007825032230
         H           -3.482237740905    -1.830440551017    -1.185098789977     1.007825032230
         H           -0.294201740905     2.716742448983    -0.525963789977     1.007825032230
         H           -2.844232740905     2.403306448983     0.507699210023     1.007825032230
         H            0.437634259095    -1.959873551017     0.568104210023     1.007825032230
         H           -2.430550740905    -3.794868551017    -0.544196789977     1.007825032230
         H            2.832435259095    -2.641834551017     0.072958210023     1.007825032230
         H            5.128503259095    -1.667297551017    -0.163377789977     1.007825032230
         H            5.323137259095    -0.016490551017    -0.569257789977     1.007825032230

  Basis Set: AUG-CC-PVTZ
    Blend: AUG-CC-PVTZ
  Basis Set: (AUG-CC-PVTZ AUX)
    Blend: AUG-CC-PVTZ-JKFIT
	 Reference Energy          =    -886.3722390380944489 [Eh]
	 Singles Energy            =      -0.0000000000000000 [Eh]
	 Same-Spin Energy          =      -0.9012992644788371 [Eh]
	 Opposite-Spin Energy      =      -2.7143766372517089 [Eh]
	 Correlation Energy        =      -3.6156759017305458 [Eh]
	 Total Energy              =    -889.9879149398250320 [Eh]

	 ================> DF-SCS-MP2 Energies <==================
	-----------------------------------------------------------
	 SCS Same-Spin Scale       =       0.3333333333333333 [-]
	 SCS Opposite-Spin Scale   =       1.2000000000000000 [-]
	 SCS Same-Spin Energy      =      -0.3004330881596123 [Eh]
	 SCS Opposite-Spin Energy  =      -3.2572519647020504 [Eh]
	 SCS Correlation Energy    =      -3.5576850528616628 [Eh]
	 SCS Total Energy          =    -889.9299240909560922 [Eh]
	-----------------------------------------------------------

  Dipole Moment: [D]
     X:     1.7896      Y:    -5.7437      Z:    -1.8386     Total:     6.2908

*** Psi4 exiting successfully. Buy a developer a beer!
