                               Psi4 1.4a3.dev225

  ==> Input File <==

--------------------------------------------------------------------------
#psi4
#
memory 32 gb

molecule  {
0 1
  O       -1.3191770     0.6538360    -1.0992360
  O       -1.5735610    -2.4640850     0.5135810
  O       -3.5606630    -1.0699430    -0.4600060
  O       -1.4399290     3.1254620     0.1265180
  O        1.1065530    -2.3833650     0.0076020
  N        0.7686360    -0.1579440    -0.3706350
  N        2.9363770    -0.9938720     0.1460080
  N        4.7058880     0.4431110     0.3611260
  C       -1.3768610    -1.0680440     0.5552780
  C       -2.7379840    -0.3746360     0.4578480
  C       -0.6377490    -0.5042940    -0.6790150
  C       -2.3707440     0.9655450    -0.1585060
  C       -1.8992030     1.9895750     0.8571380
  C        1.2309690     1.1190800    -0.4442230
  C        1.6104480    -1.2470590    -0.0585760
  C        2.5474650     1.3753690    -0.1998620
  C        3.3802090     0.2523040     0.0808410
  H       -0.8441360    -0.7686950     1.4698480
  H       -3.2257400    -0.2778790     1.4400230
  H       -0.6227070    -1.2428120    -1.4883720
  H       -3.1941750     1.3785730    -0.7472070
  H       -1.0952130     1.5703990     1.4802000
  H       -2.7410530     2.2466610     1.5166010
  H       -0.6710550    -2.8260740     0.3542250
  H       -3.3063470    -2.0105220    -0.3629290
  H        0.4929290     1.8778260    -0.6840360
  H       -1.2098800     3.8154810     0.7720340
  H        2.9512893     2.4342446    -0.2407132
  H        5.1589650     1.2712730    -0.0008400
  H        5.2635310    -0.4031270     0.3606700
units angstrom
no_reorient  #important for SAPT in psi4, default
symmetry c1  #important for SAPT in psi4, default
}

set PROPERTIES_ORIGIN ["COM"]
properties('MP2/aug-cc-pvtz', properties = ['dipole'])
--------------------------------------------------------------------------

    Molecular point group: c1
  Charge       = 0
  Multiplicity = 1
  Basis Set: AUG-CC-PVTZ
    Blend: AUG-CC-PVTZ
  Basis Set: (AUG-CC-PVTZ AUX)
    Blend: AUG-CC-PVTZ-JKFIT

    Orbital Energies [Eh]
    ---------------------

    Doubly Occupied:

       1A    -20.586720     2A    -20.581478     3A    -20.559416
       4A    -20.556472     5A    -20.519837     6A    -15.633182
       7A    -15.599599     8A    -15.552096     9A    -11.386133
      10A    -11.358533    11A    -11.339709    12A    -11.325447
      13A    -11.303571    14A    -11.297971    15A    -11.297045
      16A    -11.293549    17A    -11.252065    18A     -1.429315
      19A     -1.394224    20A     -1.383052    21A     -1.375556
      22A     -1.346591    23A     -1.303773    24A     -1.271451
      25A     -1.181322    26A     -1.078162    27A     -1.068099
      28A     -1.016874    29A     -0.936460    30A     -0.906250
      31A     -0.876333    32A     -0.829642    33A     -0.812432
      34A     -0.766538    35A     -0.748689    36A     -0.734879
      37A     -0.722034    38A     -0.707916    39A     -0.703231
      40A     -0.684803    41A     -0.674166    42A     -0.653339
      43A     -0.644935    44A     -0.632752    45A     -0.618983
      46A     -0.615273    47A     -0.607798    48A     -0.590220
      49A     -0.577097    50A     -0.565051    51A     -0.555859
      52A     -0.548060    53A     -0.536554    54A     -0.531086
      55A     -0.495823    56A     -0.480818    57A     -0.473754
      58A     -0.463420    59A     -0.457939    60A     -0.453021
      61A     -0.442122    62A     -0.430313    63A     -0.392379
      64A     -0.348380

  @DF-RHF Final Energy:  -886.37167143761212

   => Energetics <=

    Nuclear Repulsion Energy =           1334.2870314697761387
    One-Electron Energy =               -3866.2982265320056285
    Two-Electron Energy =                1645.6395236246173681
    Total Energy =                       -886.3716714376121217
  Basis Set: (AUG-CC-PVTZ AUX)
    Blend: AUG-CC-PVTZ-RI
    Molecular point group: c1

    Geometry (in Angstrom), charge = 0, multiplicity = 1:

       Center              X                  Y                   Z               Mass
    ------------   -----------------  -----------------  -----------------  -----------------
         O           -1.331994475018     0.682253901405    -1.083448321374    15.994914619570
         O           -1.586378475018    -2.435667098595     0.529368678626    15.994914619570
         O           -3.573480475018    -1.041525098595    -0.444218321374    15.994914619570
         O           -1.452746475018     3.153879901405     0.142305678626    15.994914619570
         O            1.093735524982    -2.354947098595     0.023389678626    15.994914619570
         N            0.755818524982    -0.129526098595    -0.354847321374    14.003074004430
         N            2.923559524982    -0.965454098595     0.161795678626    14.003074004430
         N            4.693070524982     0.471528901405     0.376913678626    14.003074004430
         C           -1.389678475018    -1.039626098595     0.571065678626    12.000000000000
         C           -2.750801475018    -0.346218098595     0.473635678626    12.000000000000
         C           -0.650566475018    -0.475876098595    -0.663227321374    12.000000000000
         C           -2.383561475018     0.993962901405    -0.142718321374    12.000000000000
         C           -1.912020475018     2.017992901405     0.872925678626    12.000000000000
         C            1.218151524982     1.147497901405    -0.428435321374    12.000000000000
         C            1.597630524982    -1.218641098595    -0.042788321374    12.000000000000
         C            2.534647524982     1.403786901405    -0.184074321374    12.000000000000
         C            3.367391524982     0.280721901405     0.096628678626    12.000000000000
         H           -0.856953475018    -0.740277098595     1.485635678626     1.007825032230
         H           -3.238557475018    -0.249461098595     1.455810678626     1.007825032230
         H           -0.635524475018    -1.214394098595    -1.472584321374     1.007825032230
         H           -3.206992475018     1.406990901405    -0.731419321374     1.007825032230
         H           -1.108030475018     1.598816901405     1.495987678626     1.007825032230
         H           -2.753870475018     2.275078901405     1.532388678626     1.007825032230
         H           -0.683872475018    -2.797656098595     0.370012678626     1.007825032230
         H           -3.319164475018    -1.982104098595    -0.347141321374     1.007825032230
         H            0.480111524982     1.906243901405    -0.668248321374     1.007825032230
         H           -1.222697475018     3.843898901405     0.787821678626     1.007825032230
         H            2.938471824982     2.462662501405    -0.224925521374     1.007825032230
         H            5.146147524982     1.299690901405     0.014947678626     1.007825032230
         H            5.250713524982    -0.374709098595     0.376457678626     1.007825032230

  Basis Set: AUG-CC-PVTZ
    Blend: AUG-CC-PVTZ
  Basis Set: (AUG-CC-PVTZ AUX)
    Blend: AUG-CC-PVTZ-JKFIT
	 Reference Energy          =    -886.3716714376121217 [Eh]
	 Singles Energy            =      -0.0000000000000000 [Eh]
	 Same-Spin Energy          =      -0.9019264796558975 [Eh]
	 Opposite-Spin Energy      =      -2.7163286844996062 [Eh]
	 Correlation Energy        =      -3.6182551641555039 [Eh]
	 Total Energy              =    -889.9899266017675927 [Eh]

	 ================> DF-SCS-MP2 Energies <==================
	-----------------------------------------------------------
	 SCS Same-Spin Scale       =       0.3333333333333333 [-]
	 SCS Opposite-Spin Scale   =       1.2000000000000000 [-]
	 SCS Same-Spin Energy      =      -0.3006421598852991 [Eh]
	 SCS Opposite-Spin Energy  =      -3.2595944213995272 [Eh]
	 SCS Correlation Energy    =      -3.5602365812848262 [Eh]
	 SCS Total Energy          =    -889.9319080188969338 [Eh]
	-----------------------------------------------------------

  Dipole Moment: [D]
     X:     2.7325      Y:     5.7930      Z:     1.9489     Total:     6.6950

*** Psi4 exiting successfully. Buy a developer a beer!
