                               Psi4 1.3.2 release

  ==> Input File <==

--------------------------------------------------------------------------
#psi4
#
memory 32 gb

molecule  {
0 1
  O       -1.2481010    -0.6526680     1.0325150
  O       -1.2449750     2.4828510    -0.6861630
  O       -3.2165300     1.5210990     0.7448870
  O       -2.3570290    -3.0668370     0.0949400
  O        1.3605300     2.2470340    -0.0765420
  N        0.8434040     0.0452230     0.2559430
  N        3.0572260     0.7205030    -0.2937270
  N        4.7164630    -0.8366550    -0.5722980
  C       -1.2894840     1.0784300    -0.5920770
  C       -2.7151710     0.6552070    -0.2573930
  C       -0.5254080     0.4815200     0.6000940
  C       -2.5292560    -0.7168860     0.3610560
  C       -2.5283440    -1.8503930    -0.6392900
  C        1.2197750    -1.2614080     0.3112740
  C        1.7555940     1.0674350    -0.0594030
  C        2.5111010    -1.6091400     0.0469950
  C        3.4119830    -0.5506530    -0.2589250
  H       -0.9376060     0.5914040    -1.5148910
  H       -3.3625820     0.6426650    -1.1464650
  H       -0.4402900     1.2218800     1.4039980
  H       -3.2819570    -0.9087340     1.1307830
  H       -1.7133080    -1.7003050    -1.3694640
  H       -3.4855610    -1.8340040    -1.1841350
  H       -0.2975250     2.7131790    -0.5250000
  H       -2.9227177     2.2207592     0.5567829
  H        0.4343110    -1.9634370     0.5690680
  H       -2.4338740    -3.7984320    -0.5432330
  H        2.8291120    -2.6453980     0.0739220
  H        5.1251800    -1.6708610    -0.1624140
  H        5.3198140    -0.0200540    -0.5682940
units angstrom
no_reorient  #important for SAPT in psi4, default
symmetry c1  #important for SAPT in psi4, default
}

set PROPERTIES_ORIGIN ["COM"]
properties('MP2/aug-cc-pvtz', properties = ['dipole'])
--------------------------------------------------------------------------

    Molecular point group: c1
  Charge       = 0
  Multiplicity = 1
  Basis Set: AUG-CC-PVTZ
    Blend: AUG-CC-PVTZ
  Basis Set: (AUG-CC-PVTZ AUX)
    Blend: AUG-CC-PVTZ-JKFIT

    Orbital Energies [Eh]
    ---------------------

    Doubly Occupied:

       1A    -20.583150     2A    -20.582690     3A    -20.553889
       4A    -20.542886     5A    -20.521649     6A    -15.637096
       7A    -15.599887     8A    -15.553318     9A    -11.388121
      10A    -11.357898    11A    -11.342085    12A    -11.328731
      13A    -11.302275    14A    -11.298692    15A    -11.297504
      16A    -11.296278    17A    -11.248715    18A     -1.441810
      19A     -1.415750    20A     -1.395040    21A     -1.374916
      22A     -1.358026    23A     -1.306043    24A     -1.274050
      25A     -1.182293    26A     -1.082171    27A     -1.076988
      28A     -1.022698    29A     -0.940373    30A     -0.910116
      31A     -0.881700    32A     -0.838711    33A     -0.816790
      34A     -0.767510    35A     -0.752932    36A     -0.736351
      37A     -0.728489    38A     -0.720539    39A     -0.701562
      40A     -0.686013    41A     -0.680153    42A     -0.654965
      43A     -0.653292    44A     -0.639611    45A     -0.620987
      46A     -0.616052    47A     -0.609531    48A     -0.593789
      49A     -0.579300    50A     -0.573912    51A     -0.556017
      52A     -0.549695    53A     -0.542047    54A     -0.532839
      55A     -0.500475    56A     -0.479753    57A     -0.476532
      58A     -0.465865    59A     -0.460704    60A     -0.454055
      61A     -0.442278    62A     -0.433221    63A     -0.395297
      64A     -0.350050

  @DF-RHF Final Energy:  -886.33208785618160

   => Energetics <=

    Nuclear Repulsion Energy =           1325.0287513777179811
    One-Electron Energy =               -3847.3093693132991575
    Two-Electron Energy =                1635.9485300793994611
    Total Energy =                       -886.3320878561817153
  Basis Set: (AUG-CC-PVTZ AUX)
    Blend: AUG-CC-PVTZ-RI
    Molecular point group: c1

    Geometry (in Angstrom), charge = 0, multiplicity = 1:

       Center              X                  Y                   Z               Mass
    ------------   -----------------  -----------------  -----------------  -----------------
         O           -1.247789415858    -0.651925928575     1.032315503867    15.994914619570
         O           -1.244663415858     2.483593071425    -0.686362496133    15.994914619570
         O           -3.216218415858     1.521841071425     0.744687503867    15.994914619570
         O           -2.356717415858    -3.066094928575     0.094740503867    15.994914619570
         O            1.360841584142     2.247776071425    -0.076741496133    15.994914619570
         N            0.843715584142     0.045965071425     0.255743503867    14.003074004430
         N            3.057537584142     0.721245071425    -0.293926496133    14.003074004430
         N            4.716774584142    -0.835912928575    -0.572497496133    14.003074004430
         C           -1.289172415858     1.079172071425    -0.592276496133    12.000000000000
         C           -2.714859415858     0.655949071425    -0.257592496133    12.000000000000
         C           -0.525096415858     0.482262071425     0.599894503867    12.000000000000
         C           -2.528944415858    -0.716143928575     0.360856503867    12.000000000000
         C           -2.528032415858    -1.849650928575    -0.639489496133    12.000000000000
         C            1.220086584142    -1.260665928575     0.311074503867    12.000000000000
         C            1.755905584142     1.068177071425    -0.059602496133    12.000000000000
         C            2.511412584142    -1.608397928575     0.046795503867    12.000000000000
         C            3.412294584142    -0.549910928575    -0.259124496133    12.000000000000
         H           -0.937294415858     0.592146071425    -1.515090496133     1.007825032230
         H           -3.362270415858     0.643407071425    -1.146664496133     1.007825032230
         H           -0.439978415858     1.222622071425     1.403798503867     1.007825032230
         H           -3.281645415858    -0.907991928575     1.130583503867     1.007825032230
         H           -1.712996415858    -1.699562928575    -1.369663496133     1.007825032230
         H           -3.485249415858    -1.833261928575    -1.184334496133     1.007825032230
         H           -0.297213415858     2.713921071425    -0.525199496133     1.007825032230
         H           -2.922406115858     2.221501271425     0.556583403867     1.007825032230
         H            0.434622584142    -1.962694928575     0.568868503867     1.007825032230
         H           -2.433562415858    -3.797689928575    -0.543432496133     1.007825032230
         H            2.829423584142    -2.644655928575     0.073722503867     1.007825032230
         H            5.125491584142    -1.670118928575    -0.162613496133     1.007825032230
         H            5.320125584142    -0.019311928575    -0.568493496133     1.007825032230

  Basis Set: AUG-CC-PVTZ
    Blend: AUG-CC-PVTZ
  Basis Set: (AUG-CC-PVTZ AUX)
    Blend: AUG-CC-PVTZ-JKFIT
	 Reference Energy          =    -886.3320878561816016 [Eh]
	 Singles Energy            =      -0.0000000000000000 [Eh]
	 Same-Spin Energy          =      -0.8983602090868532 [Eh]
	 Opposite-Spin Energy      =      -2.7090987889055507 [Eh]
	 Correlation Energy        =      -3.6074589979924037 [Eh]
	 Total Energy              =    -889.9395468541739547 [Eh]

	 ================> DF-SCS-MP2 Energies <==================
	-----------------------------------------------------------
	 SCS Same-Spin Scale       =       0.3333333333333333 [-]
	 SCS Opposite-Spin Scale   =       1.2000000000000000 [-]
	 SCS Same-Spin Energy      =      -0.2994534030289511 [Eh]
	 SCS Opposite-Spin Energy  =      -3.2509185466866608 [Eh]
	 SCS Correlation Energy    =      -3.5503719497156121 [Eh]
	 SCS Total Energy          =    -889.8824598058972697 [Eh]
	-----------------------------------------------------------

  Dipole Moment: [D]
     X:     1.6042      Y:    -6.1712      Z:    -1.7861     Total:     6.6217

*** Psi4 exiting successfully. Buy a developer a beer!
