                               Psi4 1.3.2 release

  ==> Input File <==

--------------------------------------------------------------------------
#psi4
#
memory 32 gb

molecule  {
0 1
  O       -1.2481010    -0.6526680     1.0325150
  O       -1.2449750     2.4828510    -0.6861630
  O       -3.2165300     1.5210990     0.7448870
  O       -2.3570290    -3.0668370     0.0949400
  O        1.3605300     2.2470340    -0.0765420
  N        0.8434040     0.0452230     0.2559430
  N        3.0572260     0.7205030    -0.2937270
  N        4.7164630    -0.8366550    -0.5722980
  C       -1.2767577     1.0728297    -0.5407178
  C       -2.7151710     0.6552070    -0.2573930
  C       -0.5254080     0.4815200     0.6000940
  C       -2.5292560    -0.7168860     0.3610560
  C       -2.5283440    -1.8503930    -0.6392900
  C        1.2197750    -1.2614080     0.3112740
  C        1.7555940     1.0674350    -0.0594030
  C        2.5111010    -1.6091400     0.0469950
  C        3.4119830    -0.5506530    -0.2589250
  H       -0.9376060     0.5914040    -1.5148910
  H       -3.3917605     0.6313481    -1.1242291
  H       -0.4402900     1.2218800     1.4039980
  H       -3.2819570    -0.9087340     1.1307830
  H       -1.7133080    -1.7003050    -1.3694640
  H       -3.4855610    -1.8340040    -1.1841350
  H       -0.2975250     2.7131790    -0.5250000
  H       -2.8475560     2.3997430     0.5086630
  H        0.4343110    -1.9634370     0.5690680
  H       -2.4338740    -3.7984320    -0.5432330
  H        2.8291120    -2.6453980     0.0739220
  H        5.1251800    -1.6708610    -0.1624140
  H        5.3198140    -0.0200540    -0.5682940
units angstrom
no_reorient  #important for SAPT in psi4, default
symmetry c1  #important for SAPT in psi4, default
}

set PROPERTIES_ORIGIN ["COM"]
properties('MP2/aug-cc-pvtz', properties = ['dipole'])
--------------------------------------------------------------------------

    Molecular point group: c1
  Charge       = 0
  Multiplicity = 1
  Basis Set: AUG-CC-PVTZ
    Blend: AUG-CC-PVTZ
  Basis Set: (AUG-CC-PVTZ AUX)
    Blend: AUG-CC-PVTZ-JKFIT

    Orbital Energies [Eh]
    ---------------------

    Doubly Occupied:

       1A    -20.582460     2A    -20.582183     3A    -20.557353
       4A    -20.556540     5A    -20.522430     6A    -15.637727
       7A    -15.600199     8A    -15.553716     9A    -11.388797
      10A    -11.358304    11A    -11.341743    12A    -11.329163
      13A    -11.301014    14A    -11.297767    15A    -11.296577
      16A    -11.293362    17A    -11.249052    18A     -1.431339
      19A     -1.397059    20A     -1.379218    21A     -1.372614
      22A     -1.344865    23A     -1.306550    24A     -1.274494
      25A     -1.182780    26A     -1.084035    27A     -1.067956
      28A     -1.027056    29A     -0.936231    30A     -0.910072
      31A     -0.878277    32A     -0.830096    33A     -0.814411
      34A     -0.767417    35A     -0.754205    36A     -0.735983
      37A     -0.720487    38A     -0.703367    39A     -0.695740
      40A     -0.686122    41A     -0.671330    42A     -0.654916
      43A     -0.651322    44A     -0.638964    45A     -0.620920
      46A     -0.613998    47A     -0.605954    48A     -0.594963
      49A     -0.577083    50A     -0.569984    51A     -0.554450
      52A     -0.544906    53A     -0.538074    54A     -0.531795
      55A     -0.498130    56A     -0.478480    57A     -0.471980
      58A     -0.462861    59A     -0.460341    60A     -0.449990
      61A     -0.444282    62A     -0.433375    63A     -0.396292
      64A     -0.351103

  @DF-RHF Final Energy:  -886.36952806583281

   => Energetics <=

    Nuclear Repulsion Energy =           1324.5306392834140752
    One-Electron Energy =               -3846.6718387369937773
    Two-Electron Energy =                1635.7716713877468919
    Total Energy =                       -886.3695280658328102
  Basis Set: (AUG-CC-PVTZ AUX)
    Blend: AUG-CC-PVTZ-RI
    Molecular point group: c1

    Geometry (in Angstrom), charge = 0, multiplicity = 1:

       Center              X                  Y                   Z               Mass
    ------------   -----------------  -----------------  -----------------  -----------------
         O           -1.248608298939    -0.652344609617     1.029887453625    15.994914619570
         O           -1.245482298939     2.483174390383    -0.688790546375    15.994914619570
         O           -3.217037298939     1.521422390383     0.742259453625    15.994914619570
         O           -2.357536298939    -3.066513609617     0.092312453625    15.994914619570
         O            1.360022701061     2.247357390383    -0.079169546375    15.994914619570
         N            0.842896701061     0.045546390383     0.253315453625    14.003074004430
         N            3.056718701061     0.720826390383    -0.296354546375    14.003074004430
         N            4.715955701061    -0.836331609617    -0.574925546375    14.003074004430
         C           -1.277264998939     1.073153090383    -0.543345346375    12.000000000000
         C           -2.715678298939     0.655530390383    -0.260020546375    12.000000000000
         C           -0.525915298939     0.481843390383     0.597466453625    12.000000000000
         C           -2.529763298939    -0.716562609617     0.358428453625    12.000000000000
         C           -2.528851298939    -1.850069609617    -0.641917546375    12.000000000000
         C            1.219267701061    -1.261084609617     0.308646453625    12.000000000000
         C            1.755086701061     1.067758390383    -0.062030546375    12.000000000000
         C            2.510593701061    -1.608816609617     0.044367453625    12.000000000000
         C            3.411475701061    -0.550329609617    -0.261552546375    12.000000000000
         H           -0.938113298939     0.591727390383    -1.517518546375     1.007825032230
         H           -3.392267798939     0.631671490383    -1.126856646375     1.007825032230
         H           -0.440797298939     1.222203390383     1.401370453625     1.007825032230
         H           -3.282464298939    -0.908410609617     1.128155453625     1.007825032230
         H           -1.713815298939    -1.699981609617    -1.372091546375     1.007825032230
         H           -3.486068298939    -1.833680609617    -1.186762546375     1.007825032230
         H           -0.298032298939     2.713502390383    -0.527627546375     1.007825032230
         H           -2.848063298939     2.400066390383     0.506035453625     1.007825032230
         H            0.433803701061    -1.963113609617     0.566440453625     1.007825032230
         H           -2.434381298939    -3.798108609617    -0.545860546375     1.007825032230
         H            2.828604701061    -2.645074609617     0.071294453625     1.007825032230
         H            5.124672701061    -1.670537609617    -0.165041546375     1.007825032230
         H            5.319306701061    -0.019730609617    -0.570921546375     1.007825032230

  Basis Set: AUG-CC-PVTZ
    Blend: AUG-CC-PVTZ
  Basis Set: (AUG-CC-PVTZ AUX)
    Blend: AUG-CC-PVTZ-JKFIT
	 Reference Energy          =    -886.3695280658328102 [Eh]
	 Singles Energy            =      -0.0000000000000000 [Eh]
	 Same-Spin Energy          =      -0.9015860025438179 [Eh]
	 Opposite-Spin Energy      =      -2.7155242295781234 [Eh]
	 Correlation Energy        =      -3.6171102321219415 [Eh]
	 Total Energy              =    -889.9866382979547552 [Eh]

	 ================> DF-SCS-MP2 Energies <==================
	-----------------------------------------------------------
	 SCS Same-Spin Scale       =       0.3333333333333333 [-]
	 SCS Opposite-Spin Scale   =       1.2000000000000000 [-]
	 SCS Same-Spin Energy      =      -0.3005286675146059 [Eh]
	 SCS Opposite-Spin Energy  =      -3.2586290754937481 [Eh]
	 SCS Correlation Energy    =      -3.5591577430083543 [Eh]
	 SCS Total Energy          =    -889.9286858088411236 [Eh]
	-----------------------------------------------------------

  Dipole Moment: [D]
     X:     1.7337      Y:    -5.9773      Z:    -1.7752     Total:     6.4718

*** Psi4 exiting successfully. Buy a developer a beer!
