                               Psi4 1.3.2 release

  ==> Input File <==

--------------------------------------------------------------------------
#psi4
#
memory 32 gb

molecule  {
0 1
  O       -1.2481010    -0.6526680     1.0325150
  O       -1.2449750     2.4828510    -0.6861630
  O       -3.2165300     1.5210990     0.7448870
  O       -2.3570290    -3.0668370     0.0949400
  O        1.3605300     2.2470340    -0.0765420
  N        0.8434040     0.0452230     0.2559430
  N        3.0572260     0.7205030    -0.2937270
  N        4.7164630    -0.8366550    -0.5722980
  C       -1.2710508     1.0698383    -0.5149048
  C       -2.7151710     0.6552070    -0.2573930
  C       -0.5254080     0.4815200     0.6000940
  C       -2.5292560    -0.7168860     0.3610560
  C       -2.5283440    -1.8503930    -0.6392900
  C        1.2197750    -1.2614080     0.3112740
  C        1.7555940     1.0674350    -0.0594030
  C        2.5111010    -1.6091400     0.0469950
  C        3.4119830    -0.5506530    -0.2589250
  H       -0.9376060     0.5914040    -1.5148910
  H       -3.4060428     0.6256998    -1.1127133
  H       -0.4402900     1.2218800     1.4039980
  H       -3.2819570    -0.9087340     1.1307830
  H       -1.7133080    -1.7003050    -1.3694640
  H       -3.4855610    -1.8340040    -1.1841350
  H       -0.2975250     2.7131790    -0.5250000
  H       -2.8475560     2.3997430     0.5086630
  H        0.4343110    -1.9634370     0.5690680
  H       -2.4338740    -3.7984320    -0.5432330
  H        2.8291120    -2.6453980     0.0739220
  H        5.1251800    -1.6708610    -0.1624140
  H        5.3198140    -0.0200540    -0.5682940
units angstrom
no_reorient  #important for SAPT in psi4, default
symmetry c1  #important for SAPT in psi4, default
}

set PROPERTIES_ORIGIN ["COM"]
properties('MP2/aug-cc-pvtz', properties = ['dipole'])
--------------------------------------------------------------------------

    Molecular point group: c1
  Charge       = 0
  Multiplicity = 1
  Basis Set: AUG-CC-PVTZ
    Blend: AUG-CC-PVTZ
  Basis Set: (AUG-CC-PVTZ AUX)
    Blend: AUG-CC-PVTZ-JKFIT

    Orbital Energies [Eh]
    ---------------------

    Doubly Occupied:

       1A    -20.582885     2A    -20.582152     3A    -20.557484
       4A    -20.555971     5A    -20.522618     6A    -15.638109
       7A    -15.600346     8A    -15.553876     9A    -11.389032
      10A    -11.358495    11A    -11.341660    12A    -11.329451
      13A    -11.300932    14A    -11.298572    15A    -11.296430
      16A    -11.293750    17A    -11.249271    18A     -1.432392
      19A     -1.397377    20A     -1.378779    21A     -1.372467
      22A     -1.344017    23A     -1.306764    24A     -1.274815
      25A     -1.183026    26A     -1.085292    27A     -1.068164
      28A     -1.030183    29A     -0.936636    30A     -0.910352
      31A     -0.878866    32A     -0.829036    33A     -0.815818
      34A     -0.767637    35A     -0.755059    36A     -0.736071
      37A     -0.720615    38A     -0.703589    39A     -0.694577
      40A     -0.686264    41A     -0.670828    42A     -0.655302
      43A     -0.651211    44A     -0.638854    45A     -0.621007
      46A     -0.614082    47A     -0.605238    48A     -0.595523
      49A     -0.578003    50A     -0.570096    51A     -0.554529
      52A     -0.544432    53A     -0.538310    54A     -0.531661
      55A     -0.498161    56A     -0.478991    57A     -0.471302
      58A     -0.463158    59A     -0.460256    60A     -0.447960
      61A     -0.445547    62A     -0.433314    63A     -0.396725
      64A     -0.351555

  @DF-RHF Final Energy:  -886.36490042664548

   => Energetics <=

    Nuclear Repulsion Energy =           1324.9352683547588185
    One-Electron Energy =               -3847.4505856098007825
    Two-Electron Energy =                1636.1504168283963736
    Total Energy =                       -886.3649004266453630
  Basis Set: (AUG-CC-PVTZ AUX)
    Blend: AUG-CC-PVTZ-RI
    Molecular point group: c1

    Geometry (in Angstrom), charge = 0, multiplicity = 1:

       Center              X                  Y                   Z               Mass
    ------------   -----------------  -----------------  -----------------  -----------------
         O           -1.248830808040    -0.652173520454     1.028565441887    15.994914619570
         O           -1.245704808040     2.483345479546    -0.690112558113    15.994914619570
         O           -3.217259808040     1.521593479546     0.740937441887    15.994914619570
         O           -2.357758808040    -3.066342520454     0.090990441887    15.994914619570
         O            1.359800191960     2.247528479546    -0.080491558113    15.994914619570
         N            0.842674191960     0.045717479546     0.251993441887    14.003074004430
         N            3.056496191960     0.720997479546    -0.297676558113    14.003074004430
         N            4.715733191960    -0.836160520454    -0.576247558113    14.003074004430
         C           -1.271780608040     1.070332779546    -0.518854358113    12.000000000000
         C           -2.715900808040     0.655701479546    -0.261342558113    12.000000000000
         C           -0.526137808040     0.482014479546     0.596144441887    12.000000000000
         C           -2.529985808040    -0.716391520454     0.357106441887    12.000000000000
         C           -2.529073808040    -1.849898520454    -0.643239558113    12.000000000000
         C            1.219045191960    -1.260913520454     0.307324441887    12.000000000000
         C            1.754864191960     1.067929479546    -0.063352558113    12.000000000000
         C            2.510371191960    -1.608645520454     0.043045441887    12.000000000000
         C            3.411253191960    -0.550158520454    -0.262874558113    12.000000000000
         H           -0.938335808040     0.591898479546    -1.518840558113     1.007825032230
         H           -3.406772608040     0.626194279546    -1.116662858113     1.007825032230
         H           -0.441019808040     1.222374479546     1.400048441887     1.007825032230
         H           -3.282686808040    -0.908239520454     1.126833441887     1.007825032230
         H           -1.714037808040    -1.699810520454    -1.373413558113     1.007825032230
         H           -3.486290808040    -1.833509520454    -1.188084558113     1.007825032230
         H           -0.298254808040     2.713673479546    -0.528949558113     1.007825032230
         H           -2.848285808040     2.400237479546     0.504713441887     1.007825032230
         H            0.433581191960    -1.962942520454     0.565118441887     1.007825032230
         H           -2.434603808040    -3.797937520454    -0.547182558113     1.007825032230
         H            2.828382191960    -2.644903520454     0.069972441887     1.007825032230
         H            5.124450191960    -1.670366520454    -0.166363558113     1.007825032230
         H            5.319084191960    -0.019559520454    -0.572243558113     1.007825032230

  Basis Set: AUG-CC-PVTZ
    Blend: AUG-CC-PVTZ
  Basis Set: (AUG-CC-PVTZ AUX)
    Blend: AUG-CC-PVTZ-JKFIT
	 Reference Energy          =    -886.3649004266454767 [Eh]
	 Singles Energy            =      -0.0000000000000000 [Eh]
	 Same-Spin Energy          =      -0.9018698007926087 [Eh]
	 Opposite-Spin Energy      =      -2.7160279825951781 [Eh]
	 Correlation Energy        =      -3.6178977833877868 [Eh]
	 Total Energy              =    -889.9827982100332520 [Eh]

	 ================> DF-SCS-MP2 Energies <==================
	-----------------------------------------------------------
	 SCS Same-Spin Scale       =       0.3333333333333333 [-]
	 SCS Opposite-Spin Scale   =       1.2000000000000000 [-]
	 SCS Same-Spin Energy      =      -0.3006232669308695 [Eh]
	 SCS Opposite-Spin Energy  =      -3.2592335791142135 [Eh]
	 SCS Correlation Energy    =      -3.5598568460450832 [Eh]
	 SCS Total Energy          =    -889.9247572726906128 [Eh]
	-----------------------------------------------------------

  Dipole Moment: [D]
     X:     1.7415      Y:    -5.9896      Z:    -1.7511     Total:     6.4787

*** Psi4 exiting successfully. Buy a developer a beer!
