                               Psi4 1.3.2 release

  ==> Input File <==

--------------------------------------------------------------------------
#psi4
#
memory 32 gb

molecule  {
0 1
  O       -1.2481010    -0.6526680     1.0325150
  O       -1.2449750     2.4828510    -0.6861630
  O       -3.2165300     1.5210990     0.7448870
  O       -2.3570290    -3.0668370     0.0949400
  O        1.3605300     2.2470340    -0.0765420
  N        0.8434040     0.0452230     0.2559430
  N        3.0572260     0.7205030    -0.2937270
  N        4.7164630    -0.8366550    -0.5722980
  C       -1.2836474     1.0318108    -0.6179530
  C       -2.7151710     0.6552070    -0.2573930
  C       -0.5254080     0.4815200     0.6000940
  C       -2.5292560    -0.7168860     0.3610560
  C       -2.5283440    -1.8503930    -0.6392900
  C        1.2197750    -1.2614080     0.3112740
  C        1.7555940     1.0674350    -0.0594030
  C        2.5111010    -1.6091400     0.0469950
  C        3.4119830    -0.5506530    -0.2589250
  H       -0.9376060     0.5914040    -1.5148910
  H       -3.3625820     0.6426650    -1.1464650
  H       -0.4211664     1.1960915     1.4248127
  H       -3.2819570    -0.9087340     1.1307830
  H       -1.7133080    -1.7003050    -1.3694640
  H       -3.4855610    -1.8340040    -1.1841350
  H       -0.2975250     2.7131790    -0.5250000
  H       -2.8475560     2.3997430     0.5086630
  H        0.4343110    -1.9634370     0.5690680
  H       -2.4338740    -3.7984320    -0.5432330
  H        2.8291120    -2.6453980     0.0739220
  H        5.1251800    -1.6708610    -0.1624140
  H        5.3198140    -0.0200540    -0.5682940
units angstrom
no_reorient  #important for SAPT in psi4, default
symmetry c1  #important for SAPT in psi4, default
}

set PROPERTIES_ORIGIN ["COM"]
properties('MP2/aug-cc-pvtz', properties = ['dipole'])
--------------------------------------------------------------------------

    Molecular point group: c1
  Charge       = 0
  Multiplicity = 1
  Basis Set: AUG-CC-PVTZ
    Blend: AUG-CC-PVTZ
  Basis Set: (AUG-CC-PVTZ AUX)
    Blend: AUG-CC-PVTZ-JKFIT

    Orbital Energies [Eh]
    ---------------------

    Doubly Occupied:

       1A    -20.582745     2A    -20.581181     3A    -20.558825
       4A    -20.553110     5A    -20.521219     6A    -15.636237
       7A    -15.599785     8A    -15.553188     9A    -11.387805
      10A    -11.357741    11A    -11.342897    12A    -11.328455
      13A    -11.301914    14A    -11.296939    15A    -11.296132
      16A    -11.294246    17A    -11.248536    18A     -1.429143
      19A     -1.396067    20A     -1.376655    21A     -1.369667
      22A     -1.336245    23A     -1.305715    24A     -1.273823
      25A     -1.182157    26A     -1.082212    27A     -1.070164
      28A     -1.022596    29A     -0.935927    30A     -0.909628
      31A     -0.877496    32A     -0.834944    33A     -0.812066
      34A     -0.767159    35A     -0.751761    36A     -0.733709
      37A     -0.721030    38A     -0.701956    39A     -0.699861
      40A     -0.685371    41A     -0.672114    42A     -0.655540
      43A     -0.650650    44A     -0.638599    45A     -0.619724
      46A     -0.611974    47A     -0.606685    48A     -0.591442
      49A     -0.575258    50A     -0.569508    51A     -0.551391
      52A     -0.546208    53A     -0.533937    54A     -0.529403
      55A     -0.497422    56A     -0.477794    57A     -0.476444
      58A     -0.462346    59A     -0.459631    60A     -0.456828
      61A     -0.442712    62A     -0.433082    63A     -0.395383
      64A     -0.349934

  @DF-RHF Final Energy:  -886.36924198509269

   => Energetics <=

    Nuclear Repulsion Energy =           1323.4886525754920967
    One-Electron Energy =               -3844.6751508309025667
    Two-Electron Energy =                1634.8172562703180120
    Total Energy =                       -886.3692419850926854
  Basis Set: (AUG-CC-PVTZ AUX)
    Blend: AUG-CC-PVTZ-RI
    Molecular point group: c1

    Geometry (in Angstrom), charge = 0, multiplicity = 1:

       Center              X                  Y                   Z               Mass
    ------------   -----------------  -----------------  -----------------  -----------------
         O           -1.248468445548    -0.650259698760     1.033706087985    15.994914619570
         O           -1.245342445548     2.485259301240    -0.684971912015    15.994914619570
         O           -3.216897445548     1.523507301240     0.746078087985    15.994914619570
         O           -2.357396445548    -3.064428698760     0.096131087985    15.994914619570
         O            1.360162554452     2.249442301240    -0.075350912015    15.994914619570
         N            0.843036554452     0.047631301240     0.257134087985    14.003074004430
         N            3.056858554452     0.722911301240    -0.292535912015    14.003074004430
         N            4.716095554452    -0.834246698760    -0.571106912015    14.003074004430
         C           -1.284014845548     1.034219101240    -0.616761912015    12.000000000000
         C           -2.715538445548     0.657615301240    -0.256201912015    12.000000000000
         C           -0.525775445548     0.483928301240     0.601285087985    12.000000000000
         C           -2.529623445548    -0.714477698760     0.362247087985    12.000000000000
         C           -2.528711445548    -1.847984698760    -0.638098912015    12.000000000000
         C            1.219407554452    -1.258999698760     0.312465087985    12.000000000000
         C            1.755226554452     1.069843301240    -0.058211912015    12.000000000000
         C            2.510733554452    -1.606731698760     0.048186087985    12.000000000000
         C            3.411615554452    -0.548244698760    -0.257733912015    12.000000000000
         H           -0.937973445548     0.593812301240    -1.513699912015     1.007825032230
         H           -3.362949445548     0.645073301240    -1.145273912015     1.007825032230
         H           -0.421533845548     1.198499801240     1.426003787985     1.007825032230
         H           -3.282324445548    -0.906325698760     1.131974087985     1.007825032230
         H           -1.713675445548    -1.697896698760    -1.368272912015     1.007825032230
         H           -3.485928445548    -1.831595698760    -1.182943912015     1.007825032230
         H           -0.297892445548     2.715587301240    -0.523808912015     1.007825032230
         H           -2.847923445548     2.402151301240     0.509854087985     1.007825032230
         H            0.433943554452    -1.961028698760     0.570259087985     1.007825032230
         H           -2.434241445548    -3.796023698760    -0.542041912015     1.007825032230
         H            2.828744554452    -2.642989698760     0.075113087985     1.007825032230
         H            5.124812554452    -1.668452698760    -0.161222912015     1.007825032230
         H            5.319446554452    -0.017645698760    -0.567102912015     1.007825032230

  Basis Set: AUG-CC-PVTZ
    Blend: AUG-CC-PVTZ
  Basis Set: (AUG-CC-PVTZ AUX)
    Blend: AUG-CC-PVTZ-JKFIT
	 Reference Energy          =    -886.3692419850926854 [Eh]
	 Singles Energy            =      -0.0000000000000000 [Eh]
	 Same-Spin Energy          =      -0.9013510275609440 [Eh]
	 Opposite-Spin Energy      =      -2.7158334884917341 [Eh]
	 Correlation Energy        =      -3.6171845160526779 [Eh]
	 Total Energy              =    -889.9864265011453881 [Eh]

	 ================> DF-SCS-MP2 Energies <==================
	-----------------------------------------------------------
	 SCS Same-Spin Scale       =       0.3333333333333333 [-]
	 SCS Opposite-Spin Scale   =       1.2000000000000000 [-]
	 SCS Same-Spin Energy      =      -0.3004503425203147 [Eh]
	 SCS Opposite-Spin Energy  =      -3.2590001861900810 [Eh]
	 SCS Correlation Energy    =      -3.5594505287103955 [Eh]
	 SCS Total Energy          =    -889.9286925138030711 [Eh]
	-----------------------------------------------------------

  Dipole Moment: [D]
     X:     1.6881      Y:    -6.0679      Z:    -1.8266     Total:     6.5579

*** Psi4 exiting successfully. Buy a developer a beer!
