                               Psi4 1.3.2 release

  ==> Input File <==

--------------------------------------------------------------------------
#psi4
#
memory 32 gb

molecule  {
0 1
  O       -1.2481010    -0.6526680     1.0325150
  O       -1.2449750     2.4828510    -0.6861630
  O       -3.2165300     1.5210990     0.7448870
  O       -2.3570290    -3.0668370     0.0949400
  O        1.3605300     2.2470340    -0.0765420
  N        0.8434040     0.0452230     0.2559430
  N        3.0572260     0.7205030    -0.2937270
  N        4.7164630    -0.8366550    -0.5722980
  C       -1.2894840     1.0784300    -0.5920770
  C       -2.7151710     0.6552070    -0.2573930
  C       -0.5186663     0.5058896     0.5950478
  C       -2.5292560    -0.7168860     0.3610560
  C       -2.5283440    -1.8503930    -0.6392900
  C        1.2415661    -1.2552176     0.3041352
  C        1.7555940     1.0674350    -0.0594030
  C        2.5111010    -1.6091400     0.0469950
  C        3.4119830    -0.5506530    -0.2589250
  H       -0.9376060     0.5914040    -1.5148910
  H       -3.3625820     0.6426650    -1.1464650
  H       -0.4402900     1.2218800     1.4039980
  H       -3.2819570    -0.9087340     1.1307830
  H       -1.7133080    -1.7003050    -1.3694640
  H       -3.4855610    -1.8340040    -1.1841350
  H       -0.2975250     2.7131790    -0.5250000
  H       -2.8475560     2.3997430     0.5086630
  H        0.4343110    -1.9634370     0.5690680
  H       -2.4338740    -3.7984320    -0.5432330
  H        2.8291120    -2.6453980     0.0739220
  H        5.1251800    -1.6708610    -0.1624140
  H        5.3198140    -0.0200540    -0.5682940
units angstrom
no_reorient  #important for SAPT in psi4, default
symmetry c1  #important for SAPT in psi4, default
}

set PROPERTIES_ORIGIN ["COM"]
properties('MP2/aug-cc-pvtz', properties = ['dipole'])
--------------------------------------------------------------------------

    Molecular point group: c1
  Charge       = 0
  Multiplicity = 1
  Basis Set: AUG-CC-PVTZ
    Blend: AUG-CC-PVTZ
  Basis Set: (AUG-CC-PVTZ AUX)
    Blend: AUG-CC-PVTZ-JKFIT

    Orbital Energies [Eh]
    ---------------------

    Doubly Occupied:

       1A    -20.581130     2A    -20.578820     3A    -20.557617
       4A    -20.557017     5A    -20.522324     6A    -15.636170
       7A    -15.600806     8A    -15.553637     9A    -11.387770
      10A    -11.358737    11A    -11.342006    12A    -11.326654
      13A    -11.299897    14A    -11.296776    15A    -11.294988
      16A    -11.292755    17A    -11.247347    18A     -1.424094
      19A     -1.395384    20A     -1.379348    21A     -1.370364
      22A     -1.346294    23A     -1.306868    24A     -1.273525
      25A     -1.182743    26A     -1.086801    27A     -1.065585
      28A     -1.022848    29A     -0.935798    30A     -0.906153
      31A     -0.877927    32A     -0.833717    33A     -0.810048
      34A     -0.767738    35A     -0.751699    36A     -0.736843
      37A     -0.719407    38A     -0.702249    39A     -0.697329
      40A     -0.683165    41A     -0.671826    42A     -0.654150
      43A     -0.651871    44A     -0.638704    45A     -0.619112
      46A     -0.612020    47A     -0.605671    48A     -0.595172
      49A     -0.573805    50A     -0.568883    51A     -0.553513
      52A     -0.544970    53A     -0.537340    54A     -0.531803
      55A     -0.498988    56A     -0.476650    57A     -0.473852
      58A     -0.461327    59A     -0.459856    60A     -0.452570
      61A     -0.442354    62A     -0.432873    63A     -0.396167
      64A     -0.353467

  @DF-RHF Final Energy:  -886.37205540528441

   => Energetics <=

    Nuclear Repulsion Energy =           1323.6894243498388732
    One-Electron Energy =               -3845.0883120481216793
    Two-Electron Energy =                1635.0268322929987335
    Total Energy =                       -886.3720554052842999
  Basis Set: (AUG-CC-PVTZ AUX)
    Blend: AUG-CC-PVTZ-RI
    Molecular point group: c1

    Geometry (in Angstrom), charge = 0, multiplicity = 1:

       Center              X                  Y                   Z               Mass
    ------------   -----------------  -----------------  -----------------  -----------------
         O           -1.249509565383    -0.654176594731     1.033116524180    15.994914619570
         O           -1.246383565383     2.481342405269    -0.685561475820    15.994914619570
         O           -3.217938565383     1.519590405269     0.745488524180    15.994914619570
         O           -2.358437565383    -3.068345594731     0.095541524180    15.994914619570
         O            1.359121434617     2.245525405269    -0.075940475820    15.994914619570
         N            0.841995434617     0.043714405269     0.256544524180    14.003074004430
         N            3.055817434617     0.718994405269    -0.293125475820    14.003074004430
         N            4.715054434617    -0.838163594731    -0.571696475820    14.003074004430
         C           -1.290892565383     1.076921405269    -0.591475475820    12.000000000000
         C           -2.716579565383     0.653698405269    -0.256791475820    12.000000000000
         C           -0.520074865383     0.504381005269     0.595649324180    12.000000000000
         C           -2.530664565383    -0.718394594731     0.361657524180    12.000000000000
         C           -2.529752565383    -1.851901594731    -0.638688475820    12.000000000000
         C            1.240157534617    -1.256726194731     0.304736724180    12.000000000000
         C            1.754185434617     1.065926405269    -0.058801475820    12.000000000000
         C            2.509692434617    -1.610648594731     0.047596524180    12.000000000000
         C            3.410574434617    -0.552161594731    -0.258323475820    12.000000000000
         H           -0.939014565383     0.589895405269    -1.514289475820     1.007825032230
         H           -3.363990565383     0.641156405269    -1.145863475820     1.007825032230
         H           -0.441698565383     1.220371405269     1.404599524180     1.007825032230
         H           -3.283365565383    -0.910242594731     1.131384524180     1.007825032230
         H           -1.714716565383    -1.701813594731    -1.368862475820     1.007825032230
         H           -3.486969565383    -1.835512594731    -1.183533475820     1.007825032230
         H           -0.298933565383     2.711670405269    -0.524398475820     1.007825032230
         H           -2.848964565383     2.398234405269     0.509264524180     1.007825032230
         H            0.432902434617    -1.964945594731     0.569669524180     1.007825032230
         H           -2.435282565383    -3.799940594731    -0.542631475820     1.007825032230
         H            2.827703434617    -2.646906594731     0.074523524180     1.007825032230
         H            5.123771434617    -1.672369594731    -0.161812475820     1.007825032230
         H            5.318405434617    -0.021562594731    -0.567692475820     1.007825032230

  Basis Set: AUG-CC-PVTZ
    Blend: AUG-CC-PVTZ
  Basis Set: (AUG-CC-PVTZ AUX)
    Blend: AUG-CC-PVTZ-JKFIT
	 Reference Energy          =    -886.3720554052844136 [Eh]
	 Singles Energy            =      -0.0000000000000000 [Eh]
	 Same-Spin Energy          =      -0.9010622994451836 [Eh]
	 Opposite-Spin Energy      =      -2.7149664877725659 [Eh]
	 Correlation Energy        =      -3.6160287872177497 [Eh]
	 Total Energy              =    -889.9880841925021286 [Eh]

	 ================> DF-SCS-MP2 Energies <==================
	-----------------------------------------------------------
	 SCS Same-Spin Scale       =       0.3333333333333333 [-]
	 SCS Opposite-Spin Scale   =       1.2000000000000000 [-]
	 SCS Same-Spin Energy      =      -0.3003540998150612 [Eh]
	 SCS Opposite-Spin Energy  =      -3.2579597853270790 [Eh]
	 SCS Correlation Energy    =      -3.5583138851421401 [Eh]
	 SCS Total Energy          =    -889.9303692904265972 [Eh]
	-----------------------------------------------------------

  Dipole Moment: [D]
     X:     1.8283      Y:    -5.8963      Z:    -1.8384     Total:     6.4411

*** Psi4 exiting successfully. Buy a developer a beer!
