                               Psi4 1.3.2 release

  ==> Input File <==

--------------------------------------------------------------------------
#psi4
#
memory 32 gb

molecule  {
0 1
  O       -1.2650565    -0.6132365     1.0591933
  O       -1.2449750     2.4828510    -0.6861630
  O       -3.2165300     1.5210990     0.7448870
  O       -2.3570290    -3.0668370     0.0949400
  O        1.3605300     2.2470340    -0.0765420
  N        0.8434040     0.0452230     0.2559430
  N        3.0572260     0.7205030    -0.2937270
  N        4.7164630    -0.8366550    -0.5722980
  C       -1.2894840     1.0784300    -0.5920770
  C       -2.7151710     0.6552070    -0.2573930
  C       -0.5254080     0.4815200     0.6000940
  C       -2.5292560    -0.7168860     0.3610560
  C       -2.5779913    -1.8379082    -0.6520902
  C        1.2197750    -1.2614080     0.3112740
  C        1.7555940     1.0674350    -0.0594030
  C        2.5111010    -1.6091400     0.0469950
  C        3.4119830    -0.5506530    -0.2589250
  H       -0.9376060     0.5914040    -1.5148910
  H       -3.3625820     0.6426650    -1.1464650
  H       -0.4402900     1.2218800     1.4039980
  H       -3.2819570    -0.9087340     1.1307830
  H       -1.7133080    -1.7003050    -1.3694640
  H       -3.4855610    -1.8340040    -1.1841350
  H       -0.2975250     2.7131790    -0.5250000
  H       -2.8475560     2.3997430     0.5086630
  H        0.4343110    -1.9634370     0.5690680
  H       -2.4338740    -3.7984320    -0.5432330
  H        2.8291120    -2.6453980     0.0739220
  H        5.1251800    -1.6708610    -0.1624140
  H        5.3198140    -0.0200540    -0.5682940
units angstrom
no_reorient  #important for SAPT in psi4, default
symmetry c1  #important for SAPT in psi4, default
}

set PROPERTIES_ORIGIN ["COM"]
properties('MP2/aug-cc-pvtz', properties = ['dipole'])
--------------------------------------------------------------------------

    Molecular point group: c1
  Charge       = 0
  Multiplicity = 1
  Basis Set: AUG-CC-PVTZ
    Blend: AUG-CC-PVTZ
  Basis Set: (AUG-CC-PVTZ AUX)
    Blend: AUG-CC-PVTZ-JKFIT

    Orbital Energies [Eh]
    ---------------------

    Doubly Occupied:

       1A    -20.582694     2A    -20.581295     3A    -20.556964
       4A    -20.556619     5A    -20.521803     6A    -15.637028
       7A    -15.599965     8A    -15.553515     9A    -11.388356
      10A    -11.358029    11A    -11.339973    12A    -11.329208
      13A    -11.302482    14A    -11.298139    15A    -11.295999
      16A    -11.292192    17A    -11.248917    18A     -1.431791
      19A     -1.396675    20A     -1.378481    21A     -1.367039
      22A     -1.345610    23A     -1.306243    24A     -1.274102
      25A     -1.182354    26A     -1.082075    27A     -1.069882
      28A     -1.021269    29A     -0.937772    30A     -0.910209
      31A     -0.877715    32A     -0.830880    33A     -0.813904
      34A     -0.767947    35A     -0.752893    36A     -0.734615
      37A     -0.719918    38A     -0.702484    39A     -0.698911
      40A     -0.685192    41A     -0.672639    42A     -0.654216
      43A     -0.652921    44A     -0.638017    45A     -0.621962
      46A     -0.614804    47A     -0.605802    48A     -0.593729
      49A     -0.574835    50A     -0.569203    51A     -0.552486
      52A     -0.546449    53A     -0.536939    54A     -0.531908
      55A     -0.498499    56A     -0.479727    57A     -0.474000
      58A     -0.461757    59A     -0.459594    60A     -0.451279
      61A     -0.442018    62A     -0.433144    63A     -0.395185
      64A     -0.350057

  @DF-RHF Final Energy:  -886.36980229928793

   => Energetics <=

    Nuclear Repulsion Energy =           1323.0064141429211304
    One-Electron Energy =               -3843.6678188577598121
    Two-Electron Energy =                1634.2916024155506420
    Total Energy =                       -886.3698022992880396
  Basis Set: (AUG-CC-PVTZ AUX)
    Blend: AUG-CC-PVTZ-RI
    Molecular point group: c1

    Geometry (in Angstrom), charge = 0, multiplicity = 1:

       Center              X                  Y                   Z               Mass
    ------------   -----------------  -----------------  -----------------  -----------------
         O           -1.261490013919    -0.616447380720     1.058069773960    15.994914619570
         O           -1.241408513919     2.479640119280    -0.687286526040    15.994914619570
         O           -3.212963513919     1.517888119280     0.743763473960    15.994914619570
         O           -2.353462513919    -3.070047880720     0.093816473960    15.994914619570
         O            1.364096486081     2.243823119280    -0.077665526040    15.994914619570
         N            0.846970486081     0.042012119280     0.254819473960    14.003074004430
         N            3.060792486081     0.717292119280    -0.294850526040    14.003074004430
         N            4.720029486081    -0.839865880720    -0.573421526040    14.003074004430
         C           -1.285917513919     1.075219119280    -0.593200526040    12.000000000000
         C           -2.711604513919     0.651996119280    -0.258516526040    12.000000000000
         C           -0.521841513919     0.478309119280     0.598970473960    12.000000000000
         C           -2.525689513919    -0.720096880720     0.359932473960    12.000000000000
         C           -2.574424813919    -1.841119080720    -0.653213726040    12.000000000000
         C            1.223341486081    -1.264618880720     0.310150473960    12.000000000000
         C            1.759160486081     1.064224119280    -0.060526526040    12.000000000000
         C            2.514667486081    -1.612350880720     0.045871473960    12.000000000000
         C            3.415549486081    -0.553863880720    -0.260048526040    12.000000000000
         H           -0.934039513919     0.588193119280    -1.516014526040     1.007825032230
         H           -3.359015513919     0.639454119280    -1.147588526040     1.007825032230
         H           -0.436723513919     1.218669119280     1.402874473960     1.007825032230
         H           -3.278390513919    -0.911944880720     1.129659473960     1.007825032230
         H           -1.709741513919    -1.703515880720    -1.370587526040     1.007825032230
         H           -3.481994513919    -1.837214880720    -1.185258526040     1.007825032230
         H           -0.293958513919     2.709968119280    -0.526123526040     1.007825032230
         H           -2.843989513919     2.396532119280     0.507539473960     1.007825032230
         H            0.437877486081    -1.966647880720     0.567944473960     1.007825032230
         H           -2.430307513919    -3.801642880720    -0.544356526040     1.007825032230
         H            2.832678486081    -2.648608880720     0.072798473960     1.007825032230
         H            5.128746486081    -1.674071880720    -0.163537526040     1.007825032230
         H            5.323380486081    -0.023264880720    -0.569417526040     1.007825032230

  Basis Set: AUG-CC-PVTZ
    Blend: AUG-CC-PVTZ
  Basis Set: (AUG-CC-PVTZ AUX)
    Blend: AUG-CC-PVTZ-JKFIT
	 Reference Energy          =    -886.3698022992879260 [Eh]
	 Singles Energy            =      -0.0000000000000000 [Eh]
	 Same-Spin Energy          =      -0.9012301020438890 [Eh]
	 Opposite-Spin Energy      =      -2.7151059003162699 [Eh]
	 Correlation Energy        =      -3.6163360023601587 [Eh]
	 Total Energy              =    -889.9861383016481113 [Eh]

	 ================> DF-SCS-MP2 Energies <==================
	-----------------------------------------------------------
	 SCS Same-Spin Scale       =       0.3333333333333333 [-]
	 SCS Opposite-Spin Scale   =       1.2000000000000000 [-]
	 SCS Same-Spin Energy      =      -0.3004100340146296 [Eh]
	 SCS Opposite-Spin Energy  =      -3.2581270803795239 [Eh]
	 SCS Correlation Energy    =      -3.5585371143941535 [Eh]
	 SCS Total Energy          =    -889.9283394136821244 [Eh]
	-----------------------------------------------------------

  Dipole Moment: [D]
     X:     1.6629      Y:    -5.9795      Z:    -1.8890     Total:     6.4875

*** Psi4 exiting successfully. Buy a developer a beer!
