                               Psi4 1.4a3.dev225

  ==> Input File <==

--------------------------------------------------------------------------
#psi4
#
memory 32 gb

molecule  {
0 1
  O       -1.3191770     0.6538360    -1.0992360
  O       -1.5735610    -2.4640850     0.5135810
  O       -3.5606630    -1.0699430    -0.4600060
  O       -1.4399290     3.1254620     0.1265180
  O        1.1065530    -2.3833650     0.0076020
  N        0.7686360    -0.1579440    -0.3706350
  N        2.9363770    -0.9938720     0.1460080
  N        4.7058880     0.4431110     0.3611260
  C       -1.3768610    -1.0680440     0.5552780
  C       -2.7379840    -0.3746360     0.4578480
  C       -0.6377490    -0.5042940    -0.6790150
  C       -2.3707440     0.9655450    -0.1585060
  C       -1.8992030     1.9895750     0.8571380
  C        1.2309690     1.1190800    -0.4442230
  C        1.6104480    -1.2470590    -0.0585760
  C        2.5474650     1.3753690    -0.1998620
  C        3.3802090     0.2523040     0.0808410
  H       -0.8683523    -0.7823026     1.4282740
  H       -3.2257400    -0.2778790     1.4400230
  H       -0.6227070    -1.2428120    -1.4883720
  H       -3.1941750     1.3785730    -0.7472070
  H       -1.0952130     1.5703990     1.4802000
  H       -2.7410530     2.2466610     1.5166010
  H       -0.6710550    -2.8260740     0.3542250
  H       -3.3063470    -2.0105220    -0.3629290
  H        0.4929290     1.8778260    -0.6840360
  H       -1.2098800     3.8154810     0.7720340
  H        2.9334840     2.3875570    -0.2389120
  H        5.1589650     1.2712730    -0.0008400
  H        5.2635310    -0.4031270     0.3606700
units angstrom
no_reorient  #important for SAPT in psi4, default
symmetry c1  #important for SAPT in psi4, default
}

set PROPERTIES_ORIGIN ["COM"]
properties('MP2/aug-cc-pvtz', properties = ['dipole'])
--------------------------------------------------------------------------

    Molecular point group: c1
  Charge       = 0
  Multiplicity = 1
  Basis Set: AUG-CC-PVTZ
    Blend: AUG-CC-PVTZ
  Basis Set: (AUG-CC-PVTZ AUX)
    Blend: AUG-CC-PVTZ-JKFIT

    Orbital Energies [Eh]
    ---------------------

    Doubly Occupied:

       1A    -20.586898     2A    -20.581181     3A    -20.558326
       4A    -20.556038     5A    -20.519773     6A    -15.633050
       7A    -15.599723     8A    -15.551818     9A    -11.386025
      10A    -11.358128    11A    -11.339017    12A    -11.325175
      13A    -11.303822    14A    -11.297848    15A    -11.293195
      16A    -11.290795    17A    -11.246629    18A     -1.429090
      19A     -1.394142    20A     -1.382976    21A     -1.375205
      22A     -1.346083    23A     -1.303717    24A     -1.271391
      25A     -1.181254    26A     -1.079517    27A     -1.068683
      28A     -1.018542    29A     -0.936572    30A     -0.906805
      31A     -0.877242    32A     -0.832801    33A     -0.812774
      34A     -0.766664    35A     -0.750528    36A     -0.736484
      37A     -0.722994    38A     -0.708634    39A     -0.704433
      40A     -0.685403    41A     -0.675633    42A     -0.653643
      43A     -0.648987    44A     -0.634513    45A     -0.620169
      46A     -0.615384    47A     -0.608058    48A     -0.593202
      49A     -0.577126    50A     -0.564865    51A     -0.555647
      52A     -0.548713    53A     -0.536568    54A     -0.531018
      55A     -0.495661    56A     -0.481028    57A     -0.474529
      58A     -0.463469    59A     -0.457939    60A     -0.453946
      61A     -0.442254    62A     -0.430300    63A     -0.392261
      64A     -0.348267

  @DF-RHF Final Energy:  -886.37369935775041

   => Energetics <=

    Nuclear Repulsion Energy =           1334.8634615153644063
    One-Electron Energy =               -3867.4292096101880816
    Two-Electron Energy =                1646.1920487370734918
    Total Energy =                       -886.3736993577504109
  Basis Set: (AUG-CC-PVTZ AUX)
    Blend: AUG-CC-PVTZ-RI
    Molecular point group: c1

    Geometry (in Angstrom), charge = 0, multiplicity = 1:

       Center              X                  Y                   Z               Mass
    ------------   -----------------  -----------------  -----------------  -----------------
         O           -1.331820254767     0.682503883435    -1.083283424578    15.994914619570
         O           -1.586204254767    -2.435417116565     0.529533575422    15.994914619570
         O           -3.573306254767    -1.041275116565    -0.444053424578    15.994914619570
         O           -1.452572254767     3.154129883435     0.142470575422    15.994914619570
         O            1.093909745233    -2.354697116565     0.023554575422    15.994914619570
         N            0.755992745233    -0.129276116565    -0.354682424578    14.003074004430
         N            2.923733745233    -0.965204116565     0.161960575422    14.003074004430
         N            4.693244745233     0.471778883435     0.377078575422    14.003074004430
         C           -1.389504254767    -1.039376116565     0.571230575422    12.000000000000
         C           -2.750627254767    -0.345968116565     0.473800575422    12.000000000000
         C           -0.650392254767    -0.475626116565    -0.663062424578    12.000000000000
         C           -2.383387254767     0.994212883435    -0.142553424578    12.000000000000
         C           -1.911846254767     2.018242883435     0.873090575422    12.000000000000
         C            1.218325745233     1.147747883435    -0.428270424578    12.000000000000
         C            1.597804745233    -1.218391116565    -0.042623424578    12.000000000000
         C            2.534821745233     1.404036883435    -0.183909424578    12.000000000000
         C            3.367565745233     0.280971883435     0.096793575422    12.000000000000
         H           -0.880995554767    -0.753634716565     1.444226575422     1.007825032230
         H           -3.238383254767    -0.249211116565     1.455975575422     1.007825032230
         H           -0.635350254767    -1.214144116565    -1.472419424578     1.007825032230
         H           -3.206818254767     1.407240883435    -0.731254424578     1.007825032230
         H           -1.107856254767     1.599066883435     1.496152575422     1.007825032230
         H           -2.753696254767     2.275328883435     1.532553575422     1.007825032230
         H           -0.683698254767    -2.797406116565     0.370177575422     1.007825032230
         H           -3.318990254767    -1.981854116565    -0.346976424578     1.007825032230
         H            0.480285745233     1.906493883435    -0.668083424578     1.007825032230
         H           -1.222523254767     3.844148883435     0.787986575422     1.007825032230
         H            2.920840745233     2.416224883435    -0.222959424578     1.007825032230
         H            5.146321745233     1.299940883435     0.015112575422     1.007825032230
         H            5.250887745233    -0.374459116565     0.376622575422     1.007825032230

  Basis Set: AUG-CC-PVTZ
    Blend: AUG-CC-PVTZ
  Basis Set: (AUG-CC-PVTZ AUX)
    Blend: AUG-CC-PVTZ-JKFIT
	 Reference Energy          =    -886.3736993577504109 [Eh]
	 Singles Energy            =      -0.0000000000000000 [Eh]
	 Same-Spin Energy          =      -0.9016693363072343 [Eh]
	 Opposite-Spin Energy      =      -2.7154424584738788 [Eh]
	 Correlation Energy        =      -3.6171117947811133 [Eh]
	 Total Energy              =    -889.9908111525314780 [Eh]

	 ================> DF-SCS-MP2 Energies <==================
	-----------------------------------------------------------
	 SCS Same-Spin Scale       =       0.3333333333333333 [-]
	 SCS Opposite-Spin Scale   =       1.2000000000000000 [-]
	 SCS Same-Spin Energy      =      -0.3005564454357448 [Eh]
	 SCS Opposite-Spin Energy  =      -3.2585309501686543 [Eh]
	 SCS Correlation Energy    =      -3.5590873956043989 [Eh]
	 SCS Total Energy          =    -889.9327867533547760 [Eh]
	-----------------------------------------------------------

  Dipole Moment: [D]
     X:     2.7514      Y:     5.8237      Z:     1.9648     Total:     6.7339

*** Psi4 exiting successfully. Buy a developer a beer!
