                               Psi4 1.3.2 release

  ==> Input File <==

--------------------------------------------------------------------------
#psi4
#
memory 32 gb

molecule  {
0 1
  O       -1.2481010    -0.6526680     1.0325150
  O       -1.1730395     2.4776117    -0.7014513
  O       -3.2165300     1.5210990     0.7448870
  O       -2.3570290    -3.0668370     0.0949400
  O        1.3605300     2.2470340    -0.0765420
  N        0.8434040     0.0452230     0.2559430
  N        3.0572260     0.7205030    -0.2937270
  N        4.7164630    -0.8366550    -0.5722980
  C       -1.2894840     1.0784300    -0.5920770
  C       -2.6905807     0.5792869    -0.2581626
  C       -0.5254080     0.4815200     0.6000940
  C       -2.5292560    -0.7168860     0.3610560
  C       -2.5283440    -1.8503930    -0.6392900
  C        1.2197750    -1.2614080     0.3112740
  C        1.7555940     1.0674350    -0.0594030
  C        2.5111010    -1.6091400     0.0469950
  C        3.4119830    -0.5506530    -0.2589250
  H       -0.9376060     0.5914040    -1.5148910
  H       -3.3625820     0.6426650    -1.1464650
  H       -0.4402900     1.2218800     1.4039980
  H       -3.2819570    -0.9087340     1.1307830
  H       -1.7133080    -1.7003050    -1.3694640
  H       -3.4855610    -1.8340040    -1.1841350
  H       -0.2975250     2.7131790    -0.5250000
  H       -2.8475560     2.3997430     0.5086630
  H        0.4343110    -1.9634370     0.5690680
  H       -2.4338740    -3.7984320    -0.5432330
  H        2.8291120    -2.6453980     0.0739220
  H        5.1251800    -1.6708610    -0.1624140
  H        5.3198140    -0.0200540    -0.5682940
units angstrom
no_reorient  #important for SAPT in psi4, default
symmetry c1  #important for SAPT in psi4, default
}

set PROPERTIES_ORIGIN ["COM"]
properties('MP2/aug-cc-pvtz', properties = ['dipole'])
--------------------------------------------------------------------------

    Molecular point group: c1
  Charge       = 0
  Multiplicity = 1
  Basis Set: AUG-CC-PVTZ
    Blend: AUG-CC-PVTZ
  Basis Set: (AUG-CC-PVTZ AUX)
    Blend: AUG-CC-PVTZ-JKFIT

    Orbital Energies [Eh]
    ---------------------

    Doubly Occupied:

       1A    -20.584445     2A    -20.583311     3A    -20.554565
       4A    -20.552161     5A    -20.518789     6A    -15.636063
       7A    -15.599131     8A    -15.552194     9A    -11.386426
      10A    -11.356927    11A    -11.341727    12A    -11.328043
      13A    -11.304331    14A    -11.300460    15A    -11.298815
      16A    -11.297285    17A    -11.247958    18A     -1.431758
      19A     -1.395964    20A     -1.380505    21A     -1.375695
      22A     -1.337015    23A     -1.304809    24A     -1.273216
      25A     -1.181364    26A     -1.084413    27A     -1.081664
      28A     -1.025375    29A     -0.937276    30A     -0.909720
      31A     -0.881136    32A     -0.839002    33A     -0.811158
      34A     -0.766625    35A     -0.754918    36A     -0.740858
      37A     -0.720509    38A     -0.707693    39A     -0.695964
      40A     -0.685381    41A     -0.671422    42A     -0.655042
      43A     -0.652145    44A     -0.638396    45A     -0.623522
      46A     -0.615459    47A     -0.606401    48A     -0.593112
      49A     -0.573694    50A     -0.570678    51A     -0.556171
      52A     -0.546138    53A     -0.533603    54A     -0.532039
      55A     -0.499443    56A     -0.482789    57A     -0.478479
      58A     -0.462956    59A     -0.458888    60A     -0.452497
      61A     -0.442018    62A     -0.432302    63A     -0.394205
      64A     -0.348822

  @DF-RHF Final Energy:  -886.36438815689235

   => Energetics <=

    Nuclear Repulsion Energy =           1325.0047284884988130
    One-Electron Energy =               -3847.5684914414109699
    Two-Electron Energy =                1636.1993747960195833
    Total Energy =                       -886.3643881568923462
  Basis Set: (AUG-CC-PVTZ AUX)
    Blend: AUG-CC-PVTZ-RI
    Molecular point group: c1

    Geometry (in Angstrom), charge = 0, multiplicity = 1:

       Center              X                  Y                   Z               Mass
    ------------   -----------------  -----------------  -----------------  -----------------
         O           -1.254048265090    -0.648575424603     1.033558962105    15.994914619570
         O           -1.178986765090     2.481704275397    -0.700407337895    15.994914619570
         O           -3.222477265090     1.525191575397     0.745930962105    15.994914619570
         O           -2.362976265090    -3.062744424603     0.095983962105    15.994914619570
         O            1.354582734910     2.251126575397    -0.075498037895    15.994914619570
         N            0.837456734910     0.049315575397     0.256986962105    14.003074004430
         N            3.051278734910     0.724595575397    -0.292683037895    14.003074004430
         N            4.710515734910    -0.832562424603    -0.571254037895    14.003074004430
         C           -1.295431265090     1.082522575397    -0.591033037895    12.000000000000
         C           -2.696527965090     0.583379475397    -0.257118637895    12.000000000000
         C           -0.531355265090     0.485612575397     0.601137962105    12.000000000000
         C           -2.535203265090    -0.712793424603     0.362099962105    12.000000000000
         C           -2.534291265090    -1.846300424603    -0.638246037895    12.000000000000
         C            1.213827734910    -1.257315424603     0.312317962105    12.000000000000
         C            1.749646734910     1.071527575397    -0.058359037895    12.000000000000
         C            2.505153734910    -1.605047424603     0.048038962105    12.000000000000
         C            3.406035734910    -0.546560424603    -0.257881037895    12.000000000000
         H           -0.943553265090     0.595496575397    -1.513847037895     1.007825032230
         H           -3.368529265090     0.646757575397    -1.145421037895     1.007825032230
         H           -0.446237265090     1.225972575397     1.405041962105     1.007825032230
         H           -3.287904265090    -0.904641424603     1.131826962105     1.007825032230
         H           -1.719255265090    -1.696212424603    -1.368420037895     1.007825032230
         H           -3.491508265090    -1.829911424603    -1.183091037895     1.007825032230
         H           -0.303472265090     2.717271575397    -0.523956037895     1.007825032230
         H           -2.853503265090     2.403835575397     0.509706962105     1.007825032230
         H            0.428363734910    -1.959344424603     0.570111962105     1.007825032230
         H           -2.439821265090    -3.794339424603    -0.542189037895     1.007825032230
         H            2.823164734910    -2.641305424603     0.074965962105     1.007825032230
         H            5.119232734910    -1.666768424603    -0.161370037895     1.007825032230
         H            5.313866734910    -0.015961424603    -0.567250037895     1.007825032230

  Basis Set: AUG-CC-PVTZ
    Blend: AUG-CC-PVTZ
  Basis Set: (AUG-CC-PVTZ AUX)
    Blend: AUG-CC-PVTZ-JKFIT
	 Reference Energy          =    -886.3643881568923462 [Eh]
	 Singles Energy            =      -0.0000000000000000 [Eh]
	 Same-Spin Energy          =      -0.9007119842025237 [Eh]
	 Opposite-Spin Energy      =      -2.7142268107865757 [Eh]
	 Correlation Energy        =      -3.6149387949890994 [Eh]
	 Total Energy              =    -889.9793269518814895 [Eh]

	 ================> DF-SCS-MP2 Energies <==================
	-----------------------------------------------------------
	 SCS Same-Spin Scale       =       0.3333333333333333 [-]
	 SCS Opposite-Spin Scale   =       1.2000000000000000 [-]
	 SCS Same-Spin Energy      =      -0.3002373280675079 [Eh]
	 SCS Opposite-Spin Energy  =      -3.2570721729438907 [Eh]
	 SCS Correlation Energy    =      -3.5573095010113986 [Eh]
	 SCS Total Energy          =    -889.9216976579037919 [Eh]
	-----------------------------------------------------------

  Dipole Moment: [D]
     X:     1.5216      Y:    -6.1290      Z:    -1.8658     Total:     6.5850

*** Psi4 exiting successfully. Buy a developer a beer!
