                               Psi4 1.3.2 release

  ==> Input File <==

--------------------------------------------------------------------------
#psi4
#
memory 32 gb

molecule  {
0 1
  O       -1.2481010    -0.6526680     1.0325150
  O       -1.2449750     2.4828510    -0.6861630
  O       -3.2165300     1.5210990     0.7448870
  O       -2.3570290    -3.0668370     0.0949400
  O        1.3605300     2.2470340    -0.0765420
  N        0.8434040     0.0452230     0.2559430
  N        3.0572260     0.7205030    -0.2937270
  N        4.7164630    -0.8366550    -0.5722980
  C       -1.2894840     1.0784300    -0.5920770
  C       -2.7151710     0.6552070    -0.2573930
  C       -0.5106694     0.5304044     0.5928787
  C       -2.5292560    -0.7168860     0.3610560
  C       -2.5283440    -1.8503930    -0.6392900
  C        1.2197750    -1.2614080     0.3112740
  C        1.7199913     1.1003534    -0.0518645
  C        2.5111010    -1.6091400     0.0469950
  C        3.4119830    -0.5506530    -0.2589250
  H       -0.9376060     0.5914040    -1.5148910
  H       -3.3625820     0.6426650    -1.1464650
  H       -0.4402900     1.2218800     1.4039980
  H       -3.2819570    -0.9087340     1.1307830
  H       -1.7133080    -1.7003050    -1.3694640
  H       -3.4855610    -1.8340040    -1.1841350
  H       -0.2975250     2.7131790    -0.5250000
  H       -2.8475560     2.3997430     0.5086630
  H        0.4343110    -1.9634370     0.5690680
  H       -2.4338740    -3.7984320    -0.5432330
  H        2.8291120    -2.6453980     0.0739220
  H        5.1251800    -1.6708610    -0.1624140
  H        5.3198140    -0.0200540    -0.5682940
units angstrom
no_reorient  #important for SAPT in psi4, default
symmetry c1  #important for SAPT in psi4, default
}

set PROPERTIES_ORIGIN ["COM"]
properties('MP2/aug-cc-pvtz', properties = ['dipole'])
--------------------------------------------------------------------------

    Molecular point group: c1
  Charge       = 0
  Multiplicity = 1
  Basis Set: AUG-CC-PVTZ
    Blend: AUG-CC-PVTZ
  Basis Set: (AUG-CC-PVTZ AUX)
    Blend: AUG-CC-PVTZ-JKFIT

    Orbital Energies [Eh]
    ---------------------

    Doubly Occupied:

       1A    -20.580707     2A    -20.576753     3A    -20.560751
       4A    -20.559052     5A    -20.535831     6A    -15.635663
       7A    -15.595491     8A    -15.549170     9A    -11.390155
      10A    -11.352037    11A    -11.342247    12A    -11.326919
      13A    -11.299465    14A    -11.298993    15A    -11.294430
      16A    -11.293763    17A    -11.246302    18A     -1.432645
      19A     -1.407009    20A     -1.380269    21A     -1.369469
      22A     -1.349236    23A     -1.309211    24A     -1.271238
      25A     -1.170088    26A     -1.081783    27A     -1.064790
      28A     -1.022648    29A     -0.935473    30A     -0.908319
      31A     -0.872213    32A     -0.832627    33A     -0.808999
      34A     -0.762465    35A     -0.751792    36A     -0.740382
      37A     -0.718897    38A     -0.702624    39A     -0.697786
      40A     -0.683997    41A     -0.671933    42A     -0.658832
      43A     -0.654926    44A     -0.638542    45A     -0.619148
      46A     -0.614296    47A     -0.605200    48A     -0.598743
      49A     -0.573783    50A     -0.568316    51A     -0.554059
      52A     -0.544813    53A     -0.542891    54A     -0.533291
      55A     -0.503933    56A     -0.477590    57A     -0.475065
      58A     -0.471996    59A     -0.459534    60A     -0.454457
      61A     -0.443717    62A     -0.424833    63A     -0.392034
      64A     -0.349495

  @DF-RHF Final Energy:  -886.36697321719157

   => Energetics <=

    Nuclear Repulsion Energy =           1323.5565054644000611
    One-Electron Energy =               -3844.7607292396060075
    Two-Electron Energy =                1634.8372505580141478
    Total Energy =                       -886.3669732171915712
  Basis Set: (AUG-CC-PVTZ AUX)
    Blend: AUG-CC-PVTZ-RI
    Molecular point group: c1

    Geometry (in Angstrom), charge = 0, multiplicity = 1:

       Center              X                  Y                   Z               Mass
    ------------   -----------------  -----------------  -----------------  -----------------
         O           -1.247071070492    -0.656706213108     1.032499052602    15.994914619570
         O           -1.243945070492     2.478812786892    -0.686178947398    15.994914619570
         O           -3.215500070492     1.517060786892     0.744871052602    15.994914619570
         O           -2.355999070492    -3.070875213108     0.094924052602    15.994914619570
         O            1.361559929508     2.242995786892    -0.076557947398    15.994914619570
         N            0.844433929508     0.041184786892     0.255927052602    14.003074004430
         N            3.058255929508     0.716464786892    -0.293742947398    14.003074004430
         N            4.717492929508    -0.840693213108    -0.572313947398    14.003074004430
         C           -1.288454070492     1.074391786892    -0.592092947398    12.000000000000
         C           -2.714141070492     0.651168786892    -0.257408947398    12.000000000000
         C           -0.509639470492     0.526366186892     0.592862752602    12.000000000000
         C           -2.528226070492    -0.720924213108     0.361040052602    12.000000000000
         C           -2.527314070492    -1.854431213108    -0.639305947398    12.000000000000
         C            1.220804929508    -1.265446213108     0.311258052602    12.000000000000
         C            1.721021229508     1.096315186892    -0.051880447398    12.000000000000
         C            2.512130929508    -1.613178213108     0.046979052602    12.000000000000
         C            3.413012929508    -0.554691213108    -0.258940947398    12.000000000000
         H           -0.936576070492     0.587365786892    -1.514906947398     1.007825032230
         H           -3.361552070492     0.638626786892    -1.146480947398     1.007825032230
         H           -0.439260070492     1.217841786892     1.403982052602     1.007825032230
         H           -3.280927070492    -0.912772213108     1.130767052602     1.007825032230
         H           -1.712278070492    -1.704343213108    -1.369479947398     1.007825032230
         H           -3.484531070492    -1.838042213108    -1.184150947398     1.007825032230
         H           -0.296495070492     2.709140786892    -0.525015947398     1.007825032230
         H           -2.846526070492     2.395704786892     0.508647052602     1.007825032230
         H            0.435340929508    -1.967475213108     0.569052052602     1.007825032230
         H           -2.432844070492    -3.802470213108    -0.543248947398     1.007825032230
         H            2.830141929508    -2.649436213108     0.073906052602     1.007825032230
         H            5.126209929508    -1.674899213108    -0.162429947398     1.007825032230
         H            5.320843929508    -0.024092213108    -0.568309947398     1.007825032230

  Basis Set: AUG-CC-PVTZ
    Blend: AUG-CC-PVTZ
  Basis Set: (AUG-CC-PVTZ AUX)
    Blend: AUG-CC-PVTZ-JKFIT
	 Reference Energy          =    -886.3669732171915712 [Eh]
	 Singles Energy            =      -0.0000000000000000 [Eh]
	 Same-Spin Energy          =      -0.9007342228297721 [Eh]
	 Opposite-Spin Energy      =      -2.7153496279201694 [Eh]
	 Correlation Energy        =      -3.6160838507499413 [Eh]
	 Total Energy              =    -889.9830570679415587 [Eh]

	 ================> DF-SCS-MP2 Energies <==================
	-----------------------------------------------------------
	 SCS Same-Spin Scale       =       0.3333333333333333 [-]
	 SCS Opposite-Spin Scale   =       1.2000000000000000 [-]
	 SCS Same-Spin Energy      =      -0.3002447409432574 [Eh]
	 SCS Opposite-Spin Energy  =      -3.2584195535042033 [Eh]
	 SCS Correlation Energy    =      -3.5586642944474605 [Eh]
	 SCS Total Energy          =    -889.9256375116390245 [Eh]
	-----------------------------------------------------------

  Dipole Moment: [D]
     X:     1.5482      Y:    -5.4282      Z:    -1.8160     Total:     5.9296

*** Psi4 exiting successfully. Buy a developer a beer!
