                               Psi4 1.3.2 release

  ==> Input File <==

--------------------------------------------------------------------------
#psi4
#
memory 32 gb

molecule  {
0 1
  O       -1.2481010    -0.6526680     1.0325150
  O       -1.2449750     2.4828510    -0.6861630
  O       -3.2165300     1.5210990     0.7448870
  O       -2.3570290    -3.0668370     0.0949400
  O        1.3605300     2.2470340    -0.0765420
  N        0.8434040     0.0452230     0.2559430
  N        3.0572260     0.7205030    -0.2937270
  N        4.7164630    -0.8366550    -0.5722980
  C       -1.2894840     1.0784300    -0.5920770
  C       -2.7151710     0.6552070    -0.2573930
  C       -0.5254080     0.4815200     0.6000940
  C       -2.5292560    -0.7168860     0.3610560
  C       -2.5522850    -1.6803972    -0.7418973
  C        1.2197750    -1.2614080     0.3112740
  C        1.7555940     1.0674350    -0.0594030
  C        2.5111010    -1.6091400     0.0469950
  C        3.4119830    -0.5506530    -0.2589250
  H       -0.9376060     0.5914040    -1.5148910
  H       -3.3625820     0.6426650    -1.1464650
  H       -0.4402900     1.2218800     1.4039980
  H       -3.2819570    -0.9087340     1.1307830
  H       -1.7133080    -1.7003050    -1.3694640
  H       -3.4855610    -1.8340040    -1.1841350
  H       -0.2975250     2.7131790    -0.5250000
  H       -2.8475560     2.3997430     0.5086630
  H        0.4343110    -1.9634370     0.5690680
  H       -2.4338740    -3.7984320    -0.5432330
  H        2.8291120    -2.6453980     0.0739220
  H        5.1251800    -1.6708610    -0.1624140
  H        5.3198140    -0.0200540    -0.5682940
units angstrom
no_reorient  #important for SAPT in psi4, default
symmetry c1  #important for SAPT in psi4, default
}

set PROPERTIES_ORIGIN ["COM"]
properties('MP2/aug-cc-pvtz', properties = ['dipole'])
--------------------------------------------------------------------------

    Molecular point group: c1
  Charge       = 0
  Multiplicity = 1
  Basis Set: AUG-CC-PVTZ
    Blend: AUG-CC-PVTZ
  Basis Set: (AUG-CC-PVTZ AUX)
    Blend: AUG-CC-PVTZ-JKFIT

    Orbital Energies [Eh]
    ---------------------

    Doubly Occupied:

       1A    -20.586830     2A    -20.560100     3A    -20.560052
       4A    -20.559723     5A    -20.523423     6A    -15.638468
       7A    -15.600535     8A    -15.554331     9A    -11.389601
      10A    -11.358711    11A    -11.344438    12A    -11.328971
      13A    -11.304933    14A    -11.301895    15A    -11.300286
      16A    -11.295114    17A    -11.249227    18A     -1.432403
      19A     -1.397641    20A     -1.381026    21A     -1.348750
      22A     -1.312549    23A     -1.306612    24A     -1.274966
      25A     -1.183271    26A     -1.087660    27A     -1.082276
      28A     -1.025534    29A     -0.942726    30A     -0.912195
      31A     -0.880279    32A     -0.836001    33A     -0.818500
      34A     -0.769080    35A     -0.753922    36A     -0.737614
      37A     -0.719989    38A     -0.707315    39A     -0.689675
      40A     -0.678972    41A     -0.667932    42A     -0.658228
      43A     -0.654992    44A     -0.636605    45A     -0.623761
      46A     -0.614758    47A     -0.607004    48A     -0.595168
      49A     -0.573005    50A     -0.571220    51A     -0.549428
      52A     -0.542372    53A     -0.538670    54A     -0.514608
      55A     -0.498311    56A     -0.478892    57A     -0.475492
      58A     -0.466022    59A     -0.461838    60A     -0.456586
      61A     -0.445317    62A     -0.435113    63A     -0.396434
      64A     -0.351160

  @DF-RHF Final Energy:  -886.34128969260587

   => Energetics <=

    Nuclear Repulsion Energy =           1323.6546169697789992
    One-Electron Energy =               -3844.8947955323878887
    Two-Electron Energy =                1634.8988888700030202
    Total Energy =                       -886.3412896926058693
  Basis Set: (AUG-CC-PVTZ AUX)
    Blend: AUG-CC-PVTZ-RI
    Molecular point group: c1

    Geometry (in Angstrom), charge = 0, multiplicity = 1:

       Center              X                  Y                   Z               Mass
    ------------   -----------------  -----------------  -----------------  -----------------
         O           -1.246919178269    -0.661059890767     1.037580251998    15.994914619570
         O           -1.243793178269     2.474459109233    -0.681097748002    15.994914619570
         O           -3.215348178269     1.512707109233     0.749952251998    15.994914619570
         O           -2.355847178269    -3.075228890767     0.100005251998    15.994914619570
         O            1.361711821731     2.238642109233    -0.071476748002    15.994914619570
         N            0.844585821731     0.036831109233     0.261008251998    14.003074004430
         N            3.058407821731     0.712111109233    -0.288661748002    14.003074004430
         N            4.717644821731    -0.845046890767    -0.567232748002    14.003074004430
         C           -1.288302178269     1.070038109233    -0.587011748002    12.000000000000
         C           -2.713989178269     0.646815109233    -0.252327748002    12.000000000000
         C           -0.524226178269     0.473128109233     0.605159251998    12.000000000000
         C           -2.528074178269    -0.725277890767     0.366121251998    12.000000000000
         C           -2.551103178269    -1.688789090767    -0.736832048002    12.000000000000
         C            1.220956821731    -1.269799890767     0.316339251998    12.000000000000
         C            1.756775821731     1.059043109233    -0.054337748002    12.000000000000
         C            2.512282821731    -1.617531890767     0.052060251998    12.000000000000
         C            3.413164821731    -0.559044890767    -0.253859748002    12.000000000000
         H           -0.936424178269     0.583012109233    -1.509825748002     1.007825032230
         H           -3.361400178269     0.634273109233    -1.141399748002     1.007825032230
         H           -0.439108178269     1.213488109233     1.409063251998     1.007825032230
         H           -3.280775178269    -0.917125890767     1.135848251998     1.007825032230
         H           -1.712126178269    -1.708696890767    -1.364398748002     1.007825032230
         H           -3.484379178269    -1.842395890767    -1.179069748002     1.007825032230
         H           -0.296343178269     2.704787109233    -0.519934748002     1.007825032230
         H           -2.846374178269     2.391351109233     0.513728251998     1.007825032230
         H            0.435492821731    -1.971828890767     0.574133251998     1.007825032230
         H           -2.432692178269    -3.806823890767    -0.538167748002     1.007825032230
         H            2.830293821731    -2.653789890767     0.078987251998     1.007825032230
         H            5.126361821731    -1.679252890767    -0.157348748002     1.007825032230
         H            5.320995821731    -0.028445890767    -0.563228748002     1.007825032230

  Basis Set: AUG-CC-PVTZ
    Blend: AUG-CC-PVTZ
  Basis Set: (AUG-CC-PVTZ AUX)
    Blend: AUG-CC-PVTZ-JKFIT
	 Reference Energy          =    -886.3412896926058693 [Eh]
	 Singles Energy            =      -0.0000000000000000 [Eh]
	 Same-Spin Energy          =      -0.9029858779366819 [Eh]
	 Opposite-Spin Energy      =      -2.7203545646619331 [Eh]
	 Correlation Energy        =      -3.6233404425986153 [Eh]
	 Total Energy              =    -889.9646301352045157 [Eh]

	 ================> DF-SCS-MP2 Energies <==================
	-----------------------------------------------------------
	 SCS Same-Spin Scale       =       0.3333333333333333 [-]
	 SCS Opposite-Spin Scale   =       1.2000000000000000 [-]
	 SCS Same-Spin Energy      =      -0.3009952926455606 [Eh]
	 SCS Opposite-Spin Energy  =      -3.2644254775943198 [Eh]
	 SCS Correlation Energy    =      -3.5654207702398804 [Eh]
	 SCS Total Energy          =    -889.9067104628456946 [Eh]
	-----------------------------------------------------------

  Dipole Moment: [D]
     X:     1.7320      Y:    -5.3420      Z:    -2.0301     Total:     5.9714

*** Psi4 exiting successfully. Buy a developer a beer!
