                               Psi4 1.3.2 release

  ==> Input File <==

--------------------------------------------------------------------------
#psi4
#
memory 32 gb

molecule  {
0 1
  O       -1.2481010    -0.6526680     1.0325150
  O       -1.2449750     2.4828510    -0.6861630
  O       -3.2165300     1.5210990     0.7448870
  O       -2.3570290    -3.0668370     0.0949400
  O        1.3605300     2.2470340    -0.0765420
  N        0.8434040     0.0452230     0.2559430
  N        3.0572260     0.7205030    -0.2937270
  N        4.7164630    -0.8366550    -0.5722980
  C       -1.2894840     1.0784300    -0.5920770
  C       -2.7151710     0.6552070    -0.2573930
  C       -0.5254080     0.4815200     0.6000940
  C       -2.5292560    -0.7168860     0.3610560
  C       -2.5379775    -1.8563185    -0.6324976
  C        1.2197750    -1.2614080     0.3112740
  C        1.7555940     1.0674350    -0.0594030
  C        2.5111010    -1.6091400     0.0469950
  C        3.4119830    -0.5506530    -0.2589250
  H       -0.9376060     0.5914040    -1.5148910
  H       -3.3625820     0.6426650    -1.1464650
  H       -0.4402900     1.2218800     1.4039980
  H       -3.2842547    -0.9169139     1.1264382
  H       -1.7133080    -1.7003050    -1.3694640
  H       -3.4855610    -1.8340040    -1.1841350
  H       -0.2975250     2.7131790    -0.5250000
  H       -2.8475560     2.3997430     0.5086630
  H        0.4343110    -1.9634370     0.5690680
  H       -2.4338740    -3.7984320    -0.5432330
  H        2.8291120    -2.6453980     0.0739220
  H        5.1251800    -1.6708610    -0.1624140
  H        5.3198140    -0.0200540    -0.5682940
units angstrom
no_reorient  #important for SAPT in psi4, default
symmetry c1  #important for SAPT in psi4, default
}

set PROPERTIES_ORIGIN ["COM"]
properties('MP2/aug-cc-pvtz', properties = ['dipole'])
--------------------------------------------------------------------------

    Molecular point group: c1
  Charge       = 0
  Multiplicity = 1
  Basis Set: AUG-CC-PVTZ
    Blend: AUG-CC-PVTZ
  Basis Set: (AUG-CC-PVTZ AUX)
    Blend: AUG-CC-PVTZ-JKFIT

    Orbital Energies [Eh]
    ---------------------

    Doubly Occupied:

       1A    -20.583021     2A    -20.581787     3A    -20.557706
       4A    -20.557140     5A    -20.521927     6A    -15.636863
       7A    -15.599802     8A    -15.553283     9A    -11.388202
      10A    -11.357799    11A    -11.341551    12A    -11.328469
      13A    -11.301354    14A    -11.296812    15A    -11.296533
      16A    -11.293070    17A    -11.248489    18A     -1.429362
      19A     -1.396475    20A     -1.381047    21A     -1.374583
      22A     -1.346208    23A     -1.306001    24A     -1.273738
      25A     -1.182191    26A     -1.081903    27A     -1.067470
      28A     -1.021372    29A     -0.935284    30A     -0.909281
      31A     -0.877033    32A     -0.832108    33A     -0.811639
      34A     -0.766901    35A     -0.752393    36A     -0.736294
      37A     -0.720455    38A     -0.704589    39A     -0.698622
      40A     -0.685504    41A     -0.672428    42A     -0.654402
      43A     -0.651627    44A     -0.638505    45A     -0.620629
      46A     -0.614935    47A     -0.606607    48A     -0.593892
      49A     -0.576266    50A     -0.569987    51A     -0.554369
      52A     -0.545754    53A     -0.537558    54A     -0.531478
      55A     -0.497971    56A     -0.476771    57A     -0.474650
      58A     -0.461604    59A     -0.459718    60A     -0.452398
      61A     -0.440678    62A     -0.433027    63A     -0.395147
      64A     -0.349942

  @DF-RHF Final Energy:  -886.37336794922453

   => Energetics <=

    Nuclear Repulsion Energy =           1323.6410576266102908
    One-Electron Energy =               -3844.9396381261931310
    Two-Electron Energy =                1634.9252125503583102
    Total Energy =                       -886.3733679492245301
  Basis Set: (AUG-CC-PVTZ AUX)
    Blend: AUG-CC-PVTZ-RI
    Molecular point group: c1

    Geometry (in Angstrom), charge = 0, multiplicity = 1:

       Center              X                  Y                   Z               Mass
    ------------   -----------------  -----------------  -----------------  -----------------
         O           -1.247615946715    -0.652341561912     1.032197711734    15.994914619570
         O           -1.244489946715     2.483177438088    -0.686480288266    15.994914619570
         O           -3.216044946715     1.521425438088     0.744569711734    15.994914619570
         O           -2.356543946715    -3.066510561912     0.094622711734    15.994914619570
         O            1.361015053285     2.247360438088    -0.076859288266    15.994914619570
         N            0.843889053285     0.045549438088     0.255625711734    14.003074004430
         N            3.057711053285     0.720829438088    -0.294044288266    14.003074004430
         N            4.716948053285    -0.836328561912    -0.572615288266    14.003074004430
         C           -1.288998946715     1.078756438088    -0.592394288266    12.000000000000
         C           -2.714685946715     0.655533438088    -0.257710288266    12.000000000000
         C           -0.524922946715     0.481846438088     0.599776711734    12.000000000000
         C           -2.528770946715    -0.716559561912     0.360738711734    12.000000000000
         C           -2.537492446715    -1.855992061912    -0.632814888266    12.000000000000
         C            1.220260053285    -1.261081561912     0.310956711734    12.000000000000
         C            1.756079053285     1.067761438088    -0.059720288266    12.000000000000
         C            2.511586053285    -1.608813561912     0.046677711734    12.000000000000
         C            3.412468053285    -0.550326561912    -0.259242288266    12.000000000000
         H           -0.937120946715     0.591730438088    -1.515208288266     1.007825032230
         H           -3.362096946715     0.642991438088    -1.146782288266     1.007825032230
         H           -0.439804946715     1.222206438088     1.403680711734     1.007825032230
         H           -3.283769646715    -0.916587461912     1.126120911734     1.007825032230
         H           -1.712822946715    -1.699978561912    -1.369781288266     1.007825032230
         H           -3.485075946715    -1.833677561912    -1.184452288266     1.007825032230
         H           -0.297039946715     2.713505438088    -0.525317288266     1.007825032230
         H           -2.847070946715     2.400069438088     0.508345711734     1.007825032230
         H            0.434796053285    -1.963110561912     0.568750711734     1.007825032230
         H           -2.433388946715    -3.798105561912    -0.543550288266     1.007825032230
         H            2.829597053285    -2.645071561912     0.073604711734     1.007825032230
         H            5.125665053285    -1.670534561912    -0.162731288266     1.007825032230
         H            5.320299053285    -0.019727561912    -0.568611288266     1.007825032230

  Basis Set: AUG-CC-PVTZ
    Blend: AUG-CC-PVTZ
  Basis Set: (AUG-CC-PVTZ AUX)
    Blend: AUG-CC-PVTZ-JKFIT
	 Reference Energy          =    -886.3733679492245301 [Eh]
	 Singles Energy            =      -0.0000000000000000 [Eh]
	 Same-Spin Energy          =      -0.9012262868552108 [Eh]
	 Opposite-Spin Energy      =      -2.7148034858641772 [Eh]
	 Correlation Energy        =      -3.6160297727193882 [Eh]
	 Total Energy              =    -889.9893977219438739 [Eh]

	 ================> DF-SCS-MP2 Energies <==================
	-----------------------------------------------------------
	 SCS Same-Spin Scale       =       0.3333333333333333 [-]
	 SCS Opposite-Spin Scale   =       1.2000000000000000 [-]
	 SCS Same-Spin Energy      =      -0.3004087622850702 [Eh]
	 SCS Opposite-Spin Energy  =      -3.2577641830370125 [Eh]
	 SCS Correlation Energy    =      -3.5581729453220827 [Eh]
	 SCS Total Energy          =    -889.9315408945466288 [Eh]
	-----------------------------------------------------------

  Dipole Moment: [D]
     X:     1.6953      Y:    -5.9793      Z:    -1.8107     Total:     6.4734

*** Psi4 exiting successfully. Buy a developer a beer!
