                               Psi4 1.3.2 release

  ==> Input File <==

--------------------------------------------------------------------------
#psi4
#
memory 32 gb

molecule  {
0 1
  O       -1.2481010    -0.6526680     1.0325150
  O       -1.2449750     2.4828510    -0.6861630
  O       -3.2165300     1.5210990     0.7448870
  O       -2.3570290    -3.0668370     0.0949400
  O        1.3605300     2.2470340    -0.0765420
  N        0.8434040     0.0452230     0.2559430
  N        3.0572260     0.7205030    -0.2937270
  N        4.7164630    -0.8366550    -0.5722980
  C       -1.2894840     1.0784300    -0.5920770
  C       -2.7151710     0.6552070    -0.2573930
  C       -0.4259630     0.4038317     0.7552559
  C       -2.5292560    -0.7168860     0.3610560
  C       -2.5283440    -1.8503930    -0.6392900
  C        1.2197750    -1.2614080     0.3112740
  C        1.7555940     1.0674350    -0.0594030
  C        2.5111010    -1.6091400     0.0469950
  C        3.4119830    -0.5506530    -0.2589250
  H       -0.9376060     0.5914040    -1.5148910
  H       -3.3625820     0.6426650    -1.1464650
  H       -0.4402900     1.2218800     1.4039980
  H       -3.2819570    -0.9087340     1.1307830
  H       -1.7133080    -1.7003050    -1.3694640
  H       -3.4855610    -1.8340040    -1.1841350
  H       -0.2975250     2.7131790    -0.5250000
  H       -2.8475560     2.3997430     0.5086630
  H        0.4343110    -1.9634370     0.5690680
  H       -2.4338740    -3.7984320    -0.5432330
  H        2.8291120    -2.6453980     0.0739220
  H        5.1251800    -1.6708610    -0.1624140
  H        5.3198140    -0.0200540    -0.5682940
units angstrom
no_reorient  #important for SAPT in psi4, default
symmetry c1  #important for SAPT in psi4, default
}

set PROPERTIES_ORIGIN ["COM"]
properties('MP2/aug-cc-pvtz', properties = ['dipole'])
--------------------------------------------------------------------------

    Molecular point group: c1
  Charge       = 0
  Multiplicity = 1
  Basis Set: AUG-CC-PVTZ
    Blend: AUG-CC-PVTZ
  Basis Set: (AUG-CC-PVTZ AUX)
    Blend: AUG-CC-PVTZ-JKFIT

    Orbital Energies [Eh]
    ---------------------

    Doubly Occupied:

       1A    -20.581949     2A    -20.578900     3A    -20.553498
       4A    -20.551055     5A    -20.524340     6A    -15.641126
       7A    -15.601982     8A    -15.556459     9A    -11.392261
      10A    -11.360333    11A    -11.339050    12A    -11.329918
      13A    -11.301152    14A    -11.299526    15A    -11.292308
      16A    -11.287482    17A    -11.251232    18A     -1.435204
      19A     -1.399742    20A     -1.376203    21A     -1.372794
      22A     -1.340106    23A     -1.310964    24A     -1.282700
      25A     -1.186482    26A     -1.085174    27A     -1.067107
      28A     -0.998866    29A     -0.939265    30A     -0.915794
      31A     -0.877633    32A     -0.836160    33A     -0.805016
      34A     -0.774472    35A     -0.751846    36A     -0.733908
      37A     -0.720892    38A     -0.702511    39A     -0.695311
      40A     -0.689622    41A     -0.676525    42A     -0.662456
      43A     -0.652180    44A     -0.637037    45A     -0.621331
      46A     -0.618690    47A     -0.607779    48A     -0.593049
      49A     -0.575895    50A     -0.575021    51A     -0.554228
      52A     -0.545376    53A     -0.534626    54A     -0.526238
      55A     -0.498010    56A     -0.475756    57A     -0.467724
      58A     -0.464187    59A     -0.460134    60A     -0.445004
      61A     -0.437917    62A     -0.418467    63A     -0.386307
      64A     -0.343765

  @DF-RHF Final Energy:  -886.34358284209884

   => Energetics <=

    Nuclear Repulsion Energy =           1322.2935255623692683
    One-Electron Energy =               -3842.2381306456527454
    Two-Electron Energy =                1633.6010222411846371
    Total Energy =                       -886.3435828420988400
  Basis Set: (AUG-CC-PVTZ AUX)
    Blend: AUG-CC-PVTZ-RI
    Molecular point group: c1

    Geometry (in Angstrom), charge = 0, multiplicity = 1:

       Center              X                  Y                   Z               Mass
    ------------   -----------------  -----------------  -----------------  -----------------
         O           -1.253010170430    -0.648832880316     1.024855387130    15.994914619570
         O           -1.249884170430     2.486686119684    -0.693822612870    15.994914619570
         O           -3.221439170430     1.524934119684     0.737227387130    15.994914619570
         O           -2.361938170430    -3.063001880316     0.087280387130    15.994914619570
         O            1.355620829570     2.250869119684    -0.084201612870    15.994914619570
         N            0.838494829570     0.049058119684     0.248283387130    14.003074004430
         N            3.052316829570     0.724338119684    -0.301386612870    14.003074004430
         N            4.711553829570    -0.832819880316    -0.579957612870    14.003074004430
         C           -1.294393170430     1.082265119684    -0.599736612870    12.000000000000
         C           -2.720080170430     0.659042119684    -0.265052612870    12.000000000000
         C           -0.430872170430     0.407666819684     0.747596287130    12.000000000000
         C           -2.534165170430    -0.713050880316     0.353396387130    12.000000000000
         C           -2.533253170430    -1.846557880316    -0.646949612870    12.000000000000
         C            1.214865829570    -1.257572880316     0.303614387130    12.000000000000
         C            1.750684829570     1.071270119684    -0.067062612870    12.000000000000
         C            2.506191829570    -1.605304880316     0.039335387130    12.000000000000
         C            3.407073829570    -0.546817880316    -0.266584612870    12.000000000000
         H           -0.942515170430     0.595239119684    -1.522550612870     1.007825032230
         H           -3.367491170430     0.646500119684    -1.154124612870     1.007825032230
         H           -0.445199170430     1.225715119684     1.396338387130     1.007825032230
         H           -3.286866170430    -0.904898880316     1.123123387130     1.007825032230
         H           -1.718217170430    -1.696469880316    -1.377123612870     1.007825032230
         H           -3.490470170430    -1.830168880316    -1.191794612870     1.007825032230
         H           -0.302434170430     2.717014119684    -0.532659612870     1.007825032230
         H           -2.852465170430     2.403578119684     0.501003387130     1.007825032230
         H            0.429401829570    -1.959601880316     0.561408387130     1.007825032230
         H           -2.438783170430    -3.794596880316    -0.550892612870     1.007825032230
         H            2.824202829570    -2.641562880316     0.066262387130     1.007825032230
         H            5.120270829570    -1.667025880316    -0.170073612870     1.007825032230
         H            5.314904829570    -0.016218880316    -0.575953612870     1.007825032230

  Basis Set: AUG-CC-PVTZ
    Blend: AUG-CC-PVTZ
  Basis Set: (AUG-CC-PVTZ AUX)
    Blend: AUG-CC-PVTZ-JKFIT
	 Reference Energy          =    -886.3435828420988400 [Eh]
	 Singles Energy            =      -0.0000000000000000 [Eh]
	 Same-Spin Energy          =      -0.9023754585869010 [Eh]
	 Opposite-Spin Energy      =      -2.7164044245330463 [Eh]
	 Correlation Energy        =      -3.6187798831199474 [Eh]
	 Total Energy              =    -889.9623627252187816 [Eh]

	 ================> DF-SCS-MP2 Energies <==================
	-----------------------------------------------------------
	 SCS Same-Spin Scale       =       0.3333333333333333 [-]
	 SCS Opposite-Spin Scale   =       1.2000000000000000 [-]
	 SCS Same-Spin Energy      =      -0.3007918195289670 [Eh]
	 SCS Opposite-Spin Energy  =      -3.2596853094396554 [Eh]
	 SCS Correlation Energy    =      -3.5604771289686226 [Eh]
	 SCS Total Energy          =    -889.9040599710674542 [Eh]
	-----------------------------------------------------------

  Dipole Moment: [D]
     X:     1.9606      Y:    -6.0780      Z:    -1.6905     Total:     6.6063

*** Psi4 exiting successfully. Buy a developer a beer!
