                               Psi4 1.3.2 release

  ==> Input File <==

--------------------------------------------------------------------------
#psi4
#
memory 32 gb

molecule  {
0 1
  O       -1.2481010    -0.6526680     1.0325150
  O       -1.2449750     2.4828510    -0.6861630
  O       -3.2165300     1.5210990     0.7448870
  O       -2.3570290    -3.0668370     0.0949400
  O        1.3605300     2.2470340    -0.0765420
  N        0.8434040     0.0452230     0.2559430
  N        3.0572260     0.7205030    -0.2937270
  N        4.7164630    -0.8366550    -0.5722980
  C       -1.2894840     1.0784300    -0.5920770
  C       -2.7566417     0.6629739    -0.2254294
  C       -0.5254080     0.4815200     0.6000940
  C       -2.5292560    -0.7168860     0.3610560
  C       -2.5283440    -1.8503930    -0.6392900
  C        1.2197750    -1.2614080     0.3112740
  C        1.7555940     1.0674350    -0.0594030
  C        2.5111010    -1.6091400     0.0469950
  C        3.4119830    -0.5506530    -0.2589250
  H       -0.9376060     0.5914040    -1.5148910
  H       -3.3625820     0.6426650    -1.1464650
  H       -0.4402900     1.2218800     1.4039980
  H       -3.2966984    -0.8741784     1.1240339
  H       -1.7133080    -1.7003050    -1.3694640
  H       -3.4855610    -1.8340040    -1.1841350
  H       -0.2975250     2.7131790    -0.5250000
  H       -2.8475560     2.3997430     0.5086630
  H        0.4343110    -1.9634370     0.5690680
  H       -2.4338740    -3.7984320    -0.5432330
  H        2.8291120    -2.6453980     0.0739220
  H        5.1251800    -1.6708610    -0.1624140
  H        5.3198140    -0.0200540    -0.5682940
units angstrom
no_reorient  #important for SAPT in psi4, default
symmetry c1  #important for SAPT in psi4, default
}

set PROPERTIES_ORIGIN ["COM"]
properties('MP2/aug-cc-pvtz', properties = ['dipole'])
--------------------------------------------------------------------------

    Molecular point group: c1
  Charge       = 0
  Multiplicity = 1
  Basis Set: AUG-CC-PVTZ
    Blend: AUG-CC-PVTZ
  Basis Set: (AUG-CC-PVTZ AUX)
    Blend: AUG-CC-PVTZ-JKFIT

    Orbital Energies [Eh]
    ---------------------

    Doubly Occupied:

       1A    -20.581811     2A    -20.581499     3A    -20.561459
       4A    -20.556486     5A    -20.521539     6A    -15.636465
       7A    -15.599545     8A    -15.552983     9A    -11.387829
      10A    -11.357491    11A    -11.340572    12A    -11.328114
      13A    -11.301400    14A    -11.295887    15A    -11.295740
      16A    -11.293457    17A    -11.248162    18A     -1.429577
      19A     -1.396941    20A     -1.386284    21A     -1.372984
      22A     -1.353098    23A     -1.305650    24A     -1.273382
      25A     -1.181879    26A     -1.081337    27A     -1.063477
      28A     -1.016723    29A     -0.933610    30A     -0.909151
      31A     -0.878075    32A     -0.832233    33A     -0.810938
      34A     -0.766572    35A     -0.751288    36A     -0.734540
      37A     -0.719658    38A     -0.708670    39A     -0.699530
      40A     -0.685368    41A     -0.675952    42A     -0.654069
      43A     -0.651360    44A     -0.638602    45A     -0.620355
      46A     -0.614213    47A     -0.608345    48A     -0.593673
      49A     -0.578535    50A     -0.570072    51A     -0.558266
      52A     -0.548546    53A     -0.537026    54A     -0.531502
      55A     -0.496810    56A     -0.476536    57A     -0.467258
      58A     -0.461935    59A     -0.459551    60A     -0.449621
      61A     -0.437441    62A     -0.432863    63A     -0.394583
      64A     -0.349347

  @DF-RHF Final Energy:  -886.37150046242778

   => Energetics <=

    Nuclear Repulsion Energy =           1323.2621154764183302
    One-Electron Energy =               -3844.1914975064464670
    Two-Electron Energy =                1634.5578815676003614
    Total Energy =                       -886.3715004624277753
  Basis Set: (AUG-CC-PVTZ AUX)
    Blend: AUG-CC-PVTZ-RI
    Molecular point group: c1

    Geometry (in Angstrom), charge = 0, multiplicity = 1:

       Center              X                  Y                   Z               Mass
    ------------   -----------------  -----------------  -----------------  -----------------
         O           -1.245992701236    -0.653194671987     1.030965094976    15.994914619570
         O           -1.242866701236     2.482324328013    -0.687712905024    15.994914619570
         O           -3.214421701236     1.520572328013     0.743337094976    15.994914619570
         O           -2.354920701236    -3.067363671987     0.093390094976    15.994914619570
         O            1.362638298764     2.246507328013    -0.078091905024    15.994914619570
         N            0.845512298764     0.044696328013     0.254393094976    14.003074004430
         N            3.059334298764     0.719976328013    -0.295276905024    14.003074004430
         N            4.718571298764    -0.837181671987    -0.573847905024    14.003074004430
         C           -1.287375701236     1.077903328013    -0.593626905024    12.000000000000
         C           -2.754533401236     0.662447228013    -0.226979305024    12.000000000000
         C           -0.523299701236     0.480993328013     0.598544094976    12.000000000000
         C           -2.527147701236    -0.717412671987     0.359506094976    12.000000000000
         C           -2.526235701236    -1.850919671987    -0.640839905024    12.000000000000
         C            1.221883298764    -1.261934671987     0.309724094976    12.000000000000
         C            1.757702298764     1.066908328013    -0.060952905024    12.000000000000
         C            2.513209298764    -1.609666671987     0.045445094976    12.000000000000
         C            3.414091298764    -0.551179671987    -0.260474905024    12.000000000000
         H           -0.935497701236     0.590877328013    -1.516440905024     1.007825032230
         H           -3.360473701236     0.642138328013    -1.148014905024     1.007825032230
         H           -0.438181701236     1.221353328013     1.402448094976     1.007825032230
         H           -3.294590101236    -0.874705071987     1.122483994976     1.007825032230
         H           -1.711199701236    -1.700831671987    -1.371013905024     1.007825032230
         H           -3.483452701236    -1.834530671987    -1.185684905024     1.007825032230
         H           -0.295416701236     2.712652328013    -0.526549905024     1.007825032230
         H           -2.845447701236     2.399216328013     0.507113094976     1.007825032230
         H            0.436419298764    -1.963963671987     0.567518094976     1.007825032230
         H           -2.431765701236    -3.798958671987    -0.544782905024     1.007825032230
         H            2.831220298764    -2.645924671987     0.072372094976     1.007825032230
         H            5.127288298764    -1.671387671987    -0.163963905024     1.007825032230
         H            5.321922298764    -0.020580671987    -0.569843905024     1.007825032230

  Basis Set: AUG-CC-PVTZ
    Blend: AUG-CC-PVTZ
  Basis Set: (AUG-CC-PVTZ AUX)
    Blend: AUG-CC-PVTZ-JKFIT
	 Reference Energy          =    -886.3715004624277753 [Eh]
	 Singles Energy            =      -0.0000000000000000 [Eh]
	 Same-Spin Energy          =      -0.9012886549439709 [Eh]
	 Opposite-Spin Energy      =      -2.7144931090069924 [Eh]
	 Correlation Energy        =      -3.6157817639509631 [Eh]
	 Total Energy              =    -889.9872822263787384 [Eh]

	 ================> DF-SCS-MP2 Energies <==================
	-----------------------------------------------------------
	 SCS Same-Spin Scale       =       0.3333333333333333 [-]
	 SCS Opposite-Spin Scale   =       1.2000000000000000 [-]
	 SCS Same-Spin Energy      =      -0.3004295516479903 [Eh]
	 SCS Opposite-Spin Energy  =      -3.2573917308083908 [Eh]
	 SCS Correlation Energy    =      -3.5578212824563811 [Eh]
	 SCS Total Energy          =    -889.9293217448841915 [Eh]
	-----------------------------------------------------------

  Dipole Moment: [D]
     X:     1.6153      Y:    -5.8451      Z:    -1.7529     Total:     6.3125

*** Psi4 exiting successfully. Buy a developer a beer!
