                               Psi4 1.3.2 release

  ==> Input File <==

--------------------------------------------------------------------------
#psi4
#
memory 32 gb

molecule  {
0 1
  O       -1.2481010    -0.6526680     1.0325150
  O       -1.2449750     2.4828510    -0.6861630
  O       -3.2165300     1.5210990     0.7448870
  O       -2.3570290    -3.0668370     0.0949400
  O        1.3605300     2.2470340    -0.0765420
  N        0.8434040     0.0452230     0.2559430
  N        3.0572260     0.7205030    -0.2937270
  N        4.7164630    -0.8366550    -0.5722980
  C       -1.2894840     1.0784300    -0.5920770
  C       -2.7151710     0.6552070    -0.2573930
  C       -0.5254080     0.4815200     0.6000940
  C       -2.5292560    -0.7168860     0.3610560
  C       -2.5370370    -1.8914066    -0.7013885
  C        1.2197750    -1.2614080     0.3112740
  C        1.7555940     1.0674350    -0.0594030
  C        2.5111010    -1.6091400     0.0469950
  C        3.4119830    -0.5506530    -0.2589250
  H       -0.9376060     0.5914040    -1.5148910
  H       -3.3625820     0.6426650    -1.1464650
  H       -0.4402900     1.2218800     1.4039980
  H       -3.2819570    -0.9087340     1.1307830
  H       -1.7133080    -1.7003050    -1.3694640
  H       -3.4855610    -1.8340040    -1.1841350
  H       -0.2975250     2.7131790    -0.5250000
  H       -2.8475560     2.3997430     0.5086630
  H        0.4343110    -1.9634370     0.5690680
  H       -2.4413816    -3.7638496    -0.5799372
  H        2.8291120    -2.6453980     0.0739220
  H        5.1251800    -1.6708610    -0.1624140
  H        5.3198140    -0.0200540    -0.5682940
units angstrom
no_reorient  #important for SAPT in psi4, default
symmetry c1  #important for SAPT in psi4, default
}

set PROPERTIES_ORIGIN ["COM"]
properties('MP2/aug-cc-pvtz', properties = ['dipole'])
--------------------------------------------------------------------------

    Molecular point group: c1
  Charge       = 0
  Multiplicity = 1
  Basis Set: AUG-CC-PVTZ
    Blend: AUG-CC-PVTZ
  Basis Set: (AUG-CC-PVTZ AUX)
    Blend: AUG-CC-PVTZ-JKFIT

    Orbital Energies [Eh]
    ---------------------

    Doubly Occupied:

       1A    -20.585656     2A    -20.581807     3A    -20.556897
       4A    -20.556697     5A    -20.521947     6A    -15.636897
       7A    -15.599884     8A    -15.553374     9A    -11.388236
      10A    -11.357892    11A    -11.341295    12A    -11.328583
      13A    -11.299103    14A    -11.298416    15A    -11.296264
      16A    -11.291111    17A    -11.248635    18A     -1.428363
      19A     -1.396141    20A     -1.381276    21A     -1.375105
      22A     -1.345569    23A     -1.306030    24A     -1.273694
      25A     -1.182213    26A     -1.081673    27A     -1.060574
      28A     -1.017145    29A     -0.935065    30A     -0.910104
      31A     -0.878081    32A     -0.831701    33A     -0.811567
      34A     -0.767032    35A     -0.752330    36A     -0.734692
      37A     -0.719836    38A     -0.701058    39A     -0.696736
      40A     -0.685896    41A     -0.672952    42A     -0.657765
      43A     -0.651953    44A     -0.637987    45A     -0.622795
      46A     -0.612976    47A     -0.604354    48A     -0.593919
      49A     -0.578283    50A     -0.571373    51A     -0.556967
      52A     -0.542494    53A     -0.537250    54A     -0.529311
      55A     -0.498033    56A     -0.485294    57A     -0.473413
      58A     -0.460231    59A     -0.456482    60A     -0.452599
      61A     -0.438607    62A     -0.431585    63A     -0.395114
      64A     -0.349999

  @DF-RHF Final Energy:  -886.36659094800996

   => Energetics <=

    Nuclear Repulsion Energy =           1322.3506935719678950
    One-Electron Energy =               -3842.3819486020711338
    Two-Electron Energy =                1633.6646640820931680
    Total Energy =                       -886.3665909480100709
  Basis Set: (AUG-CC-PVTZ AUX)
    Blend: AUG-CC-PVTZ-RI
    Molecular point group: c1

    Geometry (in Angstrom), charge = 0, multiplicity = 1:

       Center              X                  Y                   Z               Mass
    ------------   -----------------  -----------------  -----------------  -----------------
         O           -1.247640774736    -0.650786717005     1.035732695683    15.994914619570
         O           -1.244514774736     2.484732282995    -0.682945304317    15.994914619570
         O           -3.216069774736     1.522980282995     0.748104695683    15.994914619570
         O           -2.356568774736    -3.064955717005     0.098157695683    15.994914619570
         O            1.360990225264     2.248915282995    -0.073324304317    15.994914619570
         N            0.843864225264     0.047104282995     0.259160695683    14.003074004430
         N            3.057686225264     0.722384282995    -0.290509304317    14.003074004430
         N            4.716923225264    -0.834773717005    -0.569080304317    14.003074004430
         C           -1.289023774736     1.080311282995    -0.588859304317    12.000000000000
         C           -2.714710774736     0.657088282995    -0.254175304317    12.000000000000
         C           -0.524947774736     0.483401282995     0.603311695683    12.000000000000
         C           -2.528795774736    -0.715004717005     0.364273695683    12.000000000000
         C           -2.536576774736    -1.889525317005    -0.698170804317    12.000000000000
         C            1.220235225264    -1.259526717005     0.314491695683    12.000000000000
         C            1.756054225264     1.069316282995    -0.056185304317    12.000000000000
         C            2.511561225264    -1.607258717005     0.050212695683    12.000000000000
         C            3.412443225264    -0.548771717005    -0.255707304317    12.000000000000
         H           -0.937145774736     0.593285282995    -1.511673304317     1.007825032230
         H           -3.362121774736     0.644546282995    -1.143247304317     1.007825032230
         H           -0.439829774736     1.223761282995     1.407215695683     1.007825032230
         H           -3.281496774736    -0.906852717005     1.134000695683     1.007825032230
         H           -1.712847774736    -1.698423717005    -1.366246304317     1.007825032230
         H           -3.485100774736    -1.832122717005    -1.180917304317     1.007825032230
         H           -0.297064774736     2.715060282995    -0.521782304317     1.007825032230
         H           -2.847095774736     2.401624282995     0.511880695683     1.007825032230
         H            0.434771225264    -1.961555717005     0.572285695683     1.007825032230
         H           -2.440921374736    -3.761968317005    -0.576719504317     1.007825032230
         H            2.829572225264    -2.643516717005     0.077139695683     1.007825032230
         H            5.125640225264    -1.668979717005    -0.159196304317     1.007825032230
         H            5.320274225264    -0.018172717005    -0.565076304317     1.007825032230

  Basis Set: AUG-CC-PVTZ
    Blend: AUG-CC-PVTZ
  Basis Set: (AUG-CC-PVTZ AUX)
    Blend: AUG-CC-PVTZ-JKFIT
	 Reference Energy          =    -886.3665909480099572 [Eh]
	 Singles Energy            =      -0.0000000000000000 [Eh]
	 Same-Spin Energy          =      -0.9013786659598099 [Eh]
	 Opposite-Spin Energy      =      -2.7157737174904182 [Eh]
	 Correlation Energy        =      -3.6171523834502279 [Eh]
	 Total Energy              =    -889.9837433314602322 [Eh]

	 ================> DF-SCS-MP2 Energies <==================
	-----------------------------------------------------------
	 SCS Same-Spin Scale       =       0.3333333333333333 [-]
	 SCS Opposite-Spin Scale   =       1.2000000000000000 [-]
	 SCS Same-Spin Energy      =      -0.3004595553199366 [Eh]
	 SCS Opposite-Spin Energy  =      -3.2589284609885016 [Eh]
	 SCS Correlation Energy    =      -3.5593880163084384 [Eh]
	 SCS Total Energy          =    -889.9259789643183467 [Eh]
	-----------------------------------------------------------

  Dipole Moment: [D]
     X:     1.7069      Y:    -5.9524      Z:    -1.8707     Total:     6.4687

*** Psi4 exiting successfully. Buy a developer a beer!
