                               Psi4 1.3.2 release

  ==> Input File <==

--------------------------------------------------------------------------
#psi4
#
memory 32 gb

molecule  {
0 1
  O       -1.2424543    -0.6505241     1.0214171
  O       -1.2449750     2.4828510    -0.6861630
  O       -3.2165300     1.5210990     0.7448870
  O       -2.3570290    -3.0668370     0.0949400
  O        1.3605300     2.2470340    -0.0765420
  N        0.8434040     0.0452230     0.2559430
  N        3.0572260     0.7205030    -0.2937270
  N        4.7164630    -0.8366550    -0.5722980
  C       -1.2894840     1.0784300    -0.5920770
  C       -2.7151710     0.6552070    -0.2573930
  C       -0.5254080     0.4815200     0.6000940
  C       -2.5292560    -0.7168860     0.3610560
  C       -2.5283440    -1.8503930    -0.6392900
  C        1.2197750    -1.2614080     0.3112740
  C        1.7555940     1.0674350    -0.0594030
  C        2.5111010    -1.6091400     0.0469950
  C        3.4119830    -0.5506530    -0.2589250
  H       -0.9376060     0.5914040    -1.5148910
  H       -3.3625820     0.6426650    -1.1464650
  H       -0.4402900     1.2218800     1.4039980
  H       -3.2887592    -0.9086609     1.1240903
  H       -1.7133080    -1.7003050    -1.3694640
  H       -3.4855610    -1.8340040    -1.1841350
  H       -0.2975250     2.7131790    -0.5250000
  H       -2.8475560     2.3997430     0.5086630
  H        0.4343110    -1.9634370     0.5690680
  H       -2.4338740    -3.7984320    -0.5432330
  H        2.8291120    -2.6453980     0.0739220
  H        5.1251800    -1.6708610    -0.1624140
  H        5.3198140    -0.0200540    -0.5682940
units angstrom
no_reorient  #important for SAPT in psi4, default
symmetry c1  #important for SAPT in psi4, default
}

set PROPERTIES_ORIGIN ["COM"]
properties('MP2/aug-cc-pvtz', properties = ['dipole'])
--------------------------------------------------------------------------

    Molecular point group: c1
  Charge       = 0
  Multiplicity = 1
  Basis Set: AUG-CC-PVTZ
    Blend: AUG-CC-PVTZ
  Basis Set: (AUG-CC-PVTZ AUX)
    Blend: AUG-CC-PVTZ-JKFIT

    Orbital Energies [Eh]
    ---------------------

    Doubly Occupied:

       1A    -20.582369     2A    -20.581579     3A    -20.557845
       4A    -20.556927     5A    -20.521788     6A    -15.636540
       7A    -15.599716     8A    -15.553153     9A    -11.388015
      10A    -11.357686    11A    -11.341109    12A    -11.328324
      13A    -11.301212    14A    -11.297515    15A    -11.296251
      16A    -11.292904    17A    -11.248386    18A     -1.431349
      19A     -1.396504    20A     -1.380179    21A     -1.373277
      22A     -1.346245    23A     -1.305868    24A     -1.273564
      25A     -1.182068    26A     -1.081815    27A     -1.068171
      28A     -1.021423    29A     -0.935390    30A     -0.909376
      31A     -0.877217    32A     -0.832479    33A     -0.812155
      34A     -0.766841    35A     -0.752624    36A     -0.736556
      37A     -0.720227    38A     -0.703035    39A     -0.698537
      40A     -0.686001    41A     -0.672944    42A     -0.655184
      43A     -0.651382    44A     -0.638493    45A     -0.620724
      46A     -0.614412    47A     -0.606917    48A     -0.593672
      49A     -0.575945    50A     -0.571031    51A     -0.554005
      52A     -0.545543    53A     -0.537414    54A     -0.531752
      55A     -0.497898    56A     -0.477542    57A     -0.474286
      58A     -0.462394    59A     -0.459900    60A     -0.452601
      61A     -0.440467    62A     -0.432877    63A     -0.395012
      64A     -0.349803

  @DF-RHF Final Energy:  -886.37377041240688

   => Energetics <=

    Nuclear Repulsion Energy =           1324.0644807593196219
    One-Electron Energy =               -3845.7876652312288570
    Two-Electron Energy =                1635.3494140595021236
    Total Energy =                       -886.3737704124068841
  Basis Set: (AUG-CC-PVTZ AUX)
    Blend: AUG-CC-PVTZ-RI
    Molecular point group: c1

    Geometry (in Angstrom), charge = 0, multiplicity = 1:

       Center              X                  Y                   Z               Mass
    ------------   -----------------  -----------------  -----------------  -----------------
         O           -1.242797682470    -0.650665460558     1.022175091885    15.994914619570
         O           -1.245318382470     2.482709639442    -0.685405008115    15.994914619570
         O           -3.216873382470     1.520957639442     0.745644991885    15.994914619570
         O           -2.357372382470    -3.066978360558     0.095697991885    15.994914619570
         O            1.360186617530     2.246892639442    -0.075784008115    15.994914619570
         N            0.843060617530     0.045081639442     0.256700991885    14.003074004430
         N            3.056882617530     0.720361639442    -0.292969008115    14.003074004430
         N            4.716119617530    -0.836796360558    -0.571540008115    14.003074004430
         C           -1.289827382470     1.078288639442    -0.591319008115    12.000000000000
         C           -2.715514382470     0.655065639442    -0.256635008115    12.000000000000
         C           -0.525751382470     0.481378639442     0.600851991885    12.000000000000
         C           -2.529599382470    -0.717027360558     0.361813991885    12.000000000000
         C           -2.528687382470    -1.850534360558    -0.638532008115    12.000000000000
         C            1.219431617530    -1.261549360558     0.312031991885    12.000000000000
         C            1.755250617530     1.067293639442    -0.058645008115    12.000000000000
         C            2.510757617530    -1.609281360558     0.047752991885    12.000000000000
         C            3.411639617530    -0.550794360558    -0.258167008115    12.000000000000
         H           -0.937949382470     0.591262639442    -1.514133008115     1.007825032230
         H           -3.362925382470     0.642523639442    -1.145707008115     1.007825032230
         H           -0.440633382470     1.221738639442     1.404755991885     1.007825032230
         H           -3.289102582470    -0.908802260558     1.124848291885     1.007825032230
         H           -1.713651382470    -1.700446360558    -1.368706008115     1.007825032230
         H           -3.485904382470    -1.834145360558    -1.183377008115     1.007825032230
         H           -0.297868382470     2.713037639442    -0.524242008115     1.007825032230
         H           -2.847899382470     2.399601639442     0.509420991885     1.007825032230
         H            0.433967617530    -1.963578360558     0.569825991885     1.007825032230
         H           -2.434217382470    -3.798573360558    -0.542475008115     1.007825032230
         H            2.828768617530    -2.645539360558     0.074679991885     1.007825032230
         H            5.124836617530    -1.671002360558    -0.161656008115     1.007825032230
         H            5.319470617530    -0.020195360558    -0.567536008115     1.007825032230

  Basis Set: AUG-CC-PVTZ
    Blend: AUG-CC-PVTZ
  Basis Set: (AUG-CC-PVTZ AUX)
    Blend: AUG-CC-PVTZ-JKFIT
	 Reference Energy          =    -886.3737704124068841 [Eh]
	 Singles Energy            =      -0.0000000000000000 [Eh]
	 Same-Spin Energy          =      -0.9012085215118052 [Eh]
	 Opposite-Spin Energy      =      -2.7147007412558333 [Eh]
	 Correlation Energy        =      -3.6159092627676386 [Eh]
	 Total Energy              =    -889.9896796751745569 [Eh]

	 ================> DF-SCS-MP2 Energies <==================
	-----------------------------------------------------------
	 SCS Same-Spin Scale       =       0.3333333333333333 [-]
	 SCS Opposite-Spin Scale   =       1.2000000000000000 [-]
	 SCS Same-Spin Energy      =      -0.3004028405039351 [Eh]
	 SCS Opposite-Spin Energy  =      -3.2576408895069999 [Eh]
	 SCS Correlation Energy    =      -3.5580437300109349 [Eh]
	 SCS Total Energy          =    -889.9318141424178066 [Eh]
	-----------------------------------------------------------

  Dipole Moment: [D]
     X:     1.6802      Y:    -5.9641      Z:    -1.8044     Total:     6.4537

*** Psi4 exiting successfully. Buy a developer a beer!
