                               Psi4 1.4a3.dev225

  ==> Input File <==

--------------------------------------------------------------------------
#psi4
#
memory 32 gb

molecule  {
0 1
  O       -1.3191770     0.6538360    -1.0992360
  O       -1.5735610    -2.4640850     0.5135810
  O       -3.5606630    -1.0699430    -0.4600060
  O       -1.4399290     3.1254620     0.1265180
  O        1.1065530    -2.3833650     0.0076020
  N        0.7686360    -0.1579440    -0.3706350
  N        2.9363770    -0.9938720     0.1460080
  N        4.7058880     0.4431110     0.3611260
  C       -1.3768610    -1.0680440     0.5552780
  C       -2.7379840    -0.3746360     0.4578480
  C       -0.5902639    -0.4925999    -0.6686029
  C       -2.3707440     0.9655450    -0.1585060
  C       -1.8992030     1.9895750     0.8571380
  C        1.2309690     1.1190800    -0.4442230
  C        1.6104480    -1.2470590    -0.0585760
  C        2.5474650     1.3753690    -0.1998620
  C        3.3802090     0.2523040     0.0808410
  H       -0.8441360    -0.7686950     1.4698480
  H       -3.2257400    -0.2778790     1.4400230
  H       -0.6227070    -1.2428120    -1.4883720
  H       -3.1941750     1.3785730    -0.7472070
  H       -1.0952130     1.5703990     1.4802000
  H       -2.7410530     2.2466610     1.5166010
  H       -0.6710550    -2.8260740     0.3542250
  H       -3.3063470    -2.0105220    -0.3629290
  H        0.4929290     1.8778260    -0.6840360
  H       -1.2098800     3.8154810     0.7720340
  H        2.9334840     2.3875570    -0.2389120
  H        5.1589650     1.2712730    -0.0008400
  H        5.2635310    -0.4031270     0.3606700
units angstrom
no_reorient  #important for SAPT in psi4, default
symmetry c1  #important for SAPT in psi4, default
}

set PROPERTIES_ORIGIN ["COM"]
properties('MP2/aug-cc-pvtz', properties = ['dipole'])
--------------------------------------------------------------------------

    Molecular point group: c1
  Charge       = 0
  Multiplicity = 1
  Basis Set: AUG-CC-PVTZ
    Blend: AUG-CC-PVTZ
  Basis Set: (AUG-CC-PVTZ AUX)
    Blend: AUG-CC-PVTZ-JKFIT

    Orbital Energies [Eh]
    ---------------------

    Doubly Occupied:

       1A    -20.585949     2A    -20.577561     3A    -20.558479
       4A    -20.554467     5A    -20.522281     6A    -15.636696
       7A    -15.601549     8A    -15.554096     9A    -11.388926
      10A    -11.360358    11A    -11.337512    12A    -11.327682
      13A    -11.302358    14A    -11.296028    15A    -11.295904
      16A    -11.291806    17A    -11.249127    18A     -1.425681
      19A     -1.395585    20A     -1.382021    21A     -1.372845
      22A     -1.344818    23A     -1.307019    24A     -1.278041
      25A     -1.184736    26A     -1.083622    27A     -1.064926
      28A     -1.013375    29A     -0.938464    30A     -0.910201
      31A     -0.878937    32A     -0.829658    33A     -0.809413
      34A     -0.770144    35A     -0.752544    36A     -0.733446
      37A     -0.722522    38A     -0.708051    39A     -0.701905
      40A     -0.686481    41A     -0.675851    42A     -0.652984
      43A     -0.649924    44A     -0.632652    45A     -0.620025
      46A     -0.615760    47A     -0.606312    48A     -0.595739
      49A     -0.575460    50A     -0.563905    51A     -0.555425
      52A     -0.548208    53A     -0.535004    54A     -0.529269
      55A     -0.497096    56A     -0.479717    57A     -0.472087
      58A     -0.462855    59A     -0.458694    60A     -0.449111
      61A     -0.439216    62A     -0.433454    63A     -0.392979
      64A     -0.350010

  @DF-RHF Final Energy:  -886.37156216862866

   => Energetics <=

    Nuclear Repulsion Energy =           1334.8469451938735801
    One-Electron Energy =               -3867.3831058288551503
    Two-Electron Energy =                1646.1645984663527997
    Total Energy =                       -886.3715621686287705
  Basis Set: (AUG-CC-PVTZ AUX)
    Blend: AUG-CC-PVTZ-RI
    Molecular point group: c1

    Geometry (in Angstrom), charge = 0, multiplicity = 1:

       Center              X                  Y                   Z               Mass
    ------------   -----------------  -----------------  -----------------  -----------------
         O           -1.334264773026     0.681870183494    -1.083969785977    15.994914619570
         O           -1.588648773026    -2.436050816506     0.528847214023    15.994914619570
         O           -3.575750773026    -1.041908816506    -0.444739785977    15.994914619570
         O           -1.455016773026     3.153496183494     0.141784214023    15.994914619570
         O            1.091465226974    -2.355330816506     0.022868214023    15.994914619570
         N            0.753548226974    -0.129909816506    -0.355368785977    14.003074004430
         N            2.921289226974    -0.965837816506     0.161274214023    14.003074004430
         N            4.690800226974     0.471145183494     0.376392214023    14.003074004430
         C           -1.391948773026    -1.040009816506     0.570544214023    12.000000000000
         C           -2.753071773026    -0.346601816506     0.473114214023    12.000000000000
         C           -0.605351673026    -0.464565716506    -0.653336685977    12.000000000000
         C           -2.385831773026     0.993579183494    -0.143239785977    12.000000000000
         C           -1.914290773026     2.017609183494     0.872404214023    12.000000000000
         C            1.215881226974     1.147114183494    -0.428956785977    12.000000000000
         C            1.595360226974    -1.219024816506    -0.043309785977    12.000000000000
         C            2.532377226974     1.403403183494    -0.184595785977    12.000000000000
         C            3.365121226974     0.280338183494     0.096107214023    12.000000000000
         H           -0.859223773026    -0.740660816506     1.485114214023     1.007825032230
         H           -3.240827773026    -0.249844816506     1.455289214023     1.007825032230
         H           -0.637794773026    -1.214777816506    -1.473105785977     1.007825032230
         H           -3.209262773026     1.406607183494    -0.731940785977     1.007825032230
         H           -1.110300773026     1.598433183494     1.495466214023     1.007825032230
         H           -2.756140773026     2.274695183494     1.531867214023     1.007825032230
         H           -0.686142773026    -2.798039816506     0.369491214023     1.007825032230
         H           -3.321434773026    -1.982487816506    -0.347662785977     1.007825032230
         H            0.477841226974     1.905860183494    -0.668769785977     1.007825032230
         H           -1.224967773026     3.843515183494     0.787300214023     1.007825032230
         H            2.918396226974     2.415591183494    -0.223645785977     1.007825032230
         H            5.143877226974     1.299307183494     0.014426214023     1.007825032230
         H            5.248443226974    -0.375092816506     0.375936214023     1.007825032230

  Basis Set: AUG-CC-PVTZ
    Blend: AUG-CC-PVTZ
  Basis Set: (AUG-CC-PVTZ AUX)
    Blend: AUG-CC-PVTZ-JKFIT
	 Reference Energy          =    -886.3715621686286568 [Eh]
	 Singles Energy            =      -0.0000000000000000 [Eh]
	 Same-Spin Energy          =      -0.9020318549075756 [Eh]
	 Opposite-Spin Energy      =      -2.7163244624512912 [Eh]
	 Correlation Energy        =      -3.6183563173588666 [Eh]
	 Total Energy              =    -889.9899184859875731 [Eh]

	 ================> DF-SCS-MP2 Energies <==================
	-----------------------------------------------------------
	 SCS Same-Spin Scale       =       0.3333333333333333 [-]
	 SCS Opposite-Spin Scale   =       1.2000000000000000 [-]
	 SCS Same-Spin Energy      =      -0.3006772849691919 [Eh]
	 SCS Opposite-Spin Energy  =      -3.2595893549415496 [Eh]
	 SCS Correlation Energy    =      -3.5602666399107412 [Eh]
	 SCS Total Energy          =    -889.9318288085394215 [Eh]
	-----------------------------------------------------------

  Dipole Moment: [D]
     X:     3.0254      Y:     5.7935      Z:     1.9793     Total:     6.8290

*** Psi4 exiting successfully. Buy a developer a beer!
