                               Psi4 1.3.2 release

  ==> Input File <==

--------------------------------------------------------------------------
#psi4
#
memory 32 gb

molecule  {
0 1
  O       -1.2481010    -0.6526680     1.0325150
  O       -1.2449750     2.4828510    -0.6861630
  O       -3.2165300     1.5210990     0.7448870
  O       -2.3570290    -3.0668370     0.0949400
  O        1.3605300     2.2470340    -0.0765420
  N        0.8434040     0.0452230     0.2559430
  N        3.0572260     0.7205030    -0.2937270
  N        4.7164630    -0.8366550    -0.5722980
  C       -1.2894840     1.0784300    -0.5920770
  C       -2.7151710     0.6552070    -0.2573930
  C       -0.4230926     0.6420929     0.5388739
  C       -2.5292560    -0.7168860     0.3610560
  C       -2.5283440    -1.8503930    -0.6392900
  C        1.2197750    -1.2614080     0.3112740
  C        1.7555940     1.0674350    -0.0594030
  C        2.5111010    -1.6091400     0.0469950
  C        3.4119830    -0.5506530    -0.2589250
  H       -0.9376060     0.5914040    -1.5148910
  H       -3.3625820     0.6426650    -1.1464650
  H       -0.4402900     1.2218800     1.4039980
  H       -3.2819570    -0.9087340     1.1307830
  H       -1.7133080    -1.7003050    -1.3694640
  H       -3.4855610    -1.8340040    -1.1841350
  H       -0.2975250     2.7131790    -0.5250000
  H       -2.8475560     2.3997430     0.5086630
  H        0.4343110    -1.9634370     0.5690680
  H       -2.4338740    -3.7984320    -0.5432330
  H        2.8291120    -2.6453980     0.0739220
  H        5.1251800    -1.6708610    -0.1624140
  H        5.3198140    -0.0200540    -0.5682940
units angstrom
no_reorient  #important for SAPT in psi4, default
symmetry c1  #important for SAPT in psi4, default
}

set PROPERTIES_ORIGIN ["COM"]
properties('MP2/aug-cc-pvtz', properties = ['dipole'])
--------------------------------------------------------------------------

    Molecular point group: c1
  Charge       = 0
  Multiplicity = 1
  Basis Set: AUG-CC-PVTZ
    Blend: AUG-CC-PVTZ
  Basis Set: (AUG-CC-PVTZ AUX)
    Blend: AUG-CC-PVTZ-JKFIT

    Orbital Energies [Eh]
    ---------------------

    Doubly Occupied:

       1A    -20.575867     2A    -20.557071     3A    -20.556735
       4A    -20.555771     5A    -20.531169     6A    -15.645937
       7A    -15.604021     8A    -15.557351     9A    -11.393474
      10A    -11.362947    11A    -11.347403    12A    -11.335620
      13A    -11.299312    14A    -11.293200    15A    -11.291887
      16A    -11.283414    17A    -11.254347    18A     -1.421338
      19A     -1.390364    20A     -1.372877    21A     -1.351538
      22A     -1.341432    23A     -1.309820    24A     -1.279867
      25A     -1.188347    26A     -1.093452    27A     -1.054139
      28A     -1.023117    29A     -0.942980    30A     -0.910815
      31A     -0.880762    32A     -0.838105    33A     -0.801346
      34A     -0.770473    35A     -0.759519    36A     -0.740948
      37A     -0.720356    38A     -0.701864    39A     -0.690040
      40A     -0.687055    41A     -0.671866    42A     -0.655164
      43A     -0.652988    44A     -0.636245    45A     -0.621701
      46A     -0.608056    47A     -0.604892    48A     -0.597502
      49A     -0.568689    50A     -0.559924    51A     -0.552457
      52A     -0.542115    53A     -0.532589    54A     -0.519988
      55A     -0.503308    56A     -0.469833    57A     -0.469410
      58A     -0.467288    59A     -0.455109    60A     -0.449002
      61A     -0.437171    62A     -0.433446    63A     -0.401501
      64A     -0.358266

  @DF-RHF Final Energy:  -886.33787997728780

   => Energetics <=

    Nuclear Repulsion Energy =           1323.0247799773594579
    One-Electron Energy =               -3843.7561349166303444
    Two-Electron Energy =                1634.3934749619834292
    Total Energy =                       -886.3378799772876846
  Basis Set: (AUG-CC-PVTZ AUX)
    Blend: AUG-CC-PVTZ-RI
    Molecular point group: c1

    Geometry (in Angstrom), charge = 0, multiplicity = 1:

       Center              X                  Y                   Z               Mass
    ------------   -----------------  -----------------  -----------------  -----------------
         O           -1.253151868710    -0.660594726081     1.035537158691    15.994914619570
         O           -1.250025868710     2.474924273919    -0.683140841309    15.994914619570
         O           -3.221580868710     1.513172273919     0.747909158691    15.994914619570
         O           -2.362079868710    -3.074763726081     0.097962158691    15.994914619570
         O            1.355479131290     2.239107273919    -0.073519841309    15.994914619570
         N            0.838353131290     0.037296273919     0.258965158691    14.003074004430
         N            3.052175131290     0.712576273919    -0.290704841309    14.003074004430
         N            4.711412131290    -0.844581726081    -0.569275841309    14.003074004430
         C           -1.294534868710     1.070503273919    -0.589054841309    12.000000000000
         C           -2.720221868710     0.647280273919    -0.254370841309    12.000000000000
         C           -0.428143468710     0.634166173919     0.541896058691    12.000000000000
         C           -2.534306868710    -0.724812726081     0.364078158691    12.000000000000
         C           -2.533394868710    -1.858319726081    -0.636267841309    12.000000000000
         C            1.214724131290    -1.269334726081     0.314296158691    12.000000000000
         C            1.750543131290     1.059508273919    -0.056380841309    12.000000000000
         C            2.506050131290    -1.617066726081     0.050017158691    12.000000000000
         C            3.406932131290    -0.558579726081    -0.255902841309    12.000000000000
         H           -0.942656868710     0.583477273919    -1.511868841309     1.007825032230
         H           -3.367632868710     0.634738273919    -1.143442841309     1.007825032230
         H           -0.445340868710     1.213953273919     1.407020158691     1.007825032230
         H           -3.287007868710    -0.916660726081     1.133805158691     1.007825032230
         H           -1.718358868710    -1.708231726081    -1.366441841309     1.007825032230
         H           -3.490611868710    -1.841930726081    -1.181112841309     1.007825032230
         H           -0.302575868710     2.705252273919    -0.521977841309     1.007825032230
         H           -2.852606868710     2.391816273919     0.511685158691     1.007825032230
         H            0.429260131290    -1.971363726081     0.572090158691     1.007825032230
         H           -2.438924868710    -3.806358726081    -0.540210841309     1.007825032230
         H            2.824061131290    -2.653324726081     0.076944158691     1.007825032230
         H            5.120129131290    -1.678787726081    -0.159391841309     1.007825032230
         H            5.314763131290    -0.027980726081    -0.565271841309     1.007825032230

  Basis Set: AUG-CC-PVTZ
    Blend: AUG-CC-PVTZ
  Basis Set: (AUG-CC-PVTZ AUX)
    Blend: AUG-CC-PVTZ-JKFIT
	 Reference Energy          =    -886.3378799772877983 [Eh]
	 Singles Energy            =      -0.0000000000000000 [Eh]
	 Same-Spin Energy          =      -0.9031490736301329 [Eh]
	 Opposite-Spin Energy      =      -2.7206029978363837 [Eh]
	 Correlation Energy        =      -3.6237520714665168 [Eh]
	 Total Energy              =    -889.9616320487542680 [Eh]

	 ================> DF-SCS-MP2 Energies <==================
	-----------------------------------------------------------
	 SCS Same-Spin Scale       =       0.3333333333333333 [-]
	 SCS Opposite-Spin Scale   =       1.2000000000000000 [-]
	 SCS Same-Spin Energy      =      -0.3010496912100443 [Eh]
	 SCS Opposite-Spin Energy  =      -3.2647235974036604 [Eh]
	 SCS Correlation Energy    =      -3.5657732886137046 [Eh]
	 SCS Total Energy          =    -889.9036532659015393 [Eh]
	-----------------------------------------------------------

  Dipole Moment: [D]
     X:     2.5171      Y:    -5.5813      Z:    -1.9550     Total:     6.4272

*** Psi4 exiting successfully. Buy a developer a beer!
