                               Psi4 1.3.2 release

  ==> Input File <==

--------------------------------------------------------------------------
#psi4
#
memory 32 gb

molecule  {
0 1
  O       -1.2481010    -0.6526680     1.0325150
  O       -1.2449750     2.4828510    -0.6861630
  O       -3.2165300     1.5210990     0.7448870
  O       -2.3570290    -3.0668370     0.0949400
  O        1.3605300     2.2470340    -0.0765420
  N        0.8434040     0.0452230     0.2559430
  N        3.0572260     0.7205030    -0.2937270
  N        4.7164630    -0.8366550    -0.5722980
  C       -1.2894840     1.0784300    -0.5920770
  C       -2.7151710     0.6552070    -0.2573930
  C       -0.5254080     0.4815200     0.6000940
  C       -2.5292560    -0.7168860     0.3610560
  C       -2.5298261    -1.8570000    -0.6497842
  C        1.2197750    -1.2614080     0.3112740
  C        1.7555940     1.0674350    -0.0594030
  C        2.5111010    -1.6091400     0.0469950
  C        3.4119830    -0.5506530    -0.2589250
  H       -0.9376060     0.5914040    -1.5148910
  H       -3.3625820     0.6426650    -1.1464650
  H       -0.4402900     1.2218800     1.4039980
  H       -3.2819570    -0.9087340     1.1307830
  H       -1.7133080    -1.7003050    -1.3694640
  H       -3.4855610    -1.8340040    -1.1841350
  H       -0.2975250     2.7131790    -0.5250000
  H       -2.8475560     2.3997430     0.5086630
  H        0.4343110    -1.9634370     0.5690680
  H       -2.4351405    -3.7928050    -0.5494746
  H        2.8291120    -2.6453980     0.0739220
  H        5.1251800    -1.6708610    -0.1624140
  H        5.3198140    -0.0200540    -0.5682940
units angstrom
no_reorient  #important for SAPT in psi4, default
symmetry c1  #important for SAPT in psi4, default
}

set PROPERTIES_ORIGIN ["COM"]
properties('MP2/aug-cc-pvtz', properties = ['dipole'])
--------------------------------------------------------------------------

    Molecular point group: c1
  Charge       = 0
  Multiplicity = 1
  Basis Set: AUG-CC-PVTZ
    Blend: AUG-CC-PVTZ
  Basis Set: (AUG-CC-PVTZ AUX)
    Blend: AUG-CC-PVTZ-JKFIT

    Orbital Energies [Eh]
    ---------------------

    Doubly Occupied:

       1A    -20.582818     2A    -20.581632     3A    -20.557598
       4A    -20.557180     5A    -20.521987     6A    -15.636926
       7A    -15.599864     8A    -15.553357     9A    -11.388263
      10A    -11.357871    11A    -11.341512    12A    -11.328543
      13A    -11.300694    14A    -11.297214    15A    -11.296583
      16A    -11.292636    17A    -11.248579    18A     -1.429175
      19A     -1.396338    20A     -1.380181    21A     -1.373286
      22A     -1.346174    23A     -1.306061    24A     -1.273785
      25A     -1.182248    26A     -1.081900    27A     -1.066400
      28A     -1.020663    29A     -0.935338    30A     -0.909584
      31A     -0.877421    32A     -0.832216    33A     -0.811819
      34A     -0.766986    35A     -0.752388    36A     -0.735936
      37A     -0.720177    38A     -0.702304    39A     -0.698417
      40A     -0.685673    41A     -0.672760    42A     -0.654967
      43A     -0.651694    44A     -0.638371    45A     -0.621031
      46A     -0.614005    47A     -0.606401    48A     -0.593834
      49A     -0.575962    50A     -0.570097    51A     -0.554503
      52A     -0.545189    53A     -0.537503    54A     -0.531681
      55A     -0.498099    56A     -0.478729    57A     -0.474347
      58A     -0.461382    59A     -0.460017    60A     -0.452848
      61A     -0.440477    62A     -0.433005    63A     -0.395197
      64A     -0.350013

  @DF-RHF Final Energy:  -886.37323136063060

   => Energetics <=

    Nuclear Repulsion Energy =           1323.4819168057827028
    One-Electron Energy =               -3844.6306143655542655
    Two-Electron Energy =                1634.7754661991411922
    Total Energy =                       -886.3732313606305979
  Basis Set: (AUG-CC-PVTZ AUX)
    Blend: AUG-CC-PVTZ-RI
    Molecular point group: c1

    Geometry (in Angstrom), charge = 0, multiplicity = 1:

       Center              X                  Y                   Z               Mass
    ------------   -----------------  -----------------  -----------------  -----------------
         O           -1.248022618692    -0.652365162410     1.033058934739    15.994914619570
         O           -1.244896618692     2.483153837590    -0.685619065261    15.994914619570
         O           -3.216451618692     1.521401837590     0.745430934739    15.994914619570
         O           -2.356950618692    -3.066534162410     0.095483934739    15.994914619570
         O            1.360608381308     2.247336837590    -0.075998065261    15.994914619570
         N            0.843482381308     0.045525837590     0.256486934739    14.003074004430
         N            3.057304381308     0.720805837590    -0.293183065261    14.003074004430
         N            4.716541381308    -0.836352162410    -0.571754065261    14.003074004430
         C           -1.289405618692     1.078732837590    -0.591533065261    12.000000000000
         C           -2.715092618692     0.655509837590    -0.256849065261    12.000000000000
         C           -0.525329618692     0.481822837590     0.600637934739    12.000000000000
         C           -2.529177618692    -0.716583162410     0.361599934739    12.000000000000
         C           -2.529747718692    -1.856697162410    -0.649240265261    12.000000000000
         C            1.219853381308    -1.261105162410     0.311817934739    12.000000000000
         C            1.755672381308     1.067737837590    -0.058859065261    12.000000000000
         C            2.511179381308    -1.608837162410     0.047538934739    12.000000000000
         C            3.412061381308    -0.550350162410    -0.258381065261    12.000000000000
         H           -0.937527618692     0.591706837590    -1.514347065261     1.007825032230
         H           -3.362503618692     0.642967837590    -1.145921065261     1.007825032230
         H           -0.440211618692     1.222182837590     1.404541934739     1.007825032230
         H           -3.281878618692    -0.908431162410     1.131326934739     1.007825032230
         H           -1.713229618692    -1.700002162410    -1.368920065261     1.007825032230
         H           -3.485482618692    -1.833701162410    -1.183591065261     1.007825032230
         H           -0.297446618692     2.713481837590    -0.524456065261     1.007825032230
         H           -2.847477618692     2.400045837590     0.509206934739     1.007825032230
         H            0.434389381308    -1.963134162410     0.569611934739     1.007825032230
         H           -2.435062118692    -3.792502162410    -0.548930665261     1.007825032230
         H            2.829190381308    -2.645095162410     0.074465934739     1.007825032230
         H            5.125258381308    -1.670558162410    -0.161870065261     1.007825032230
         H            5.319892381308    -0.019751162410    -0.567750065261     1.007825032230

  Basis Set: AUG-CC-PVTZ
    Blend: AUG-CC-PVTZ
  Basis Set: (AUG-CC-PVTZ AUX)
    Blend: AUG-CC-PVTZ-JKFIT
	 Reference Energy          =    -886.3732313606305979 [Eh]
	 Singles Energy            =      -0.0000000000000000 [Eh]
	 Same-Spin Energy          =      -0.9012248831685932 [Eh]
	 Opposite-Spin Energy      =      -2.7150106353348269 [Eh]
	 Correlation Energy        =      -3.6162355185034203 [Eh]
	 Total Energy              =    -889.9894668791340564 [Eh]

	 ================> DF-SCS-MP2 Energies <==================
	-----------------------------------------------------------
	 SCS Same-Spin Scale       =       0.3333333333333333 [-]
	 SCS Opposite-Spin Scale   =       1.2000000000000000 [-]
	 SCS Same-Spin Energy      =      -0.3004082943895310 [Eh]
	 SCS Opposite-Spin Energy  =      -3.2580127624017923 [Eh]
	 SCS Correlation Energy    =      -3.5584210567913233 [Eh]
	 SCS Total Energy          =    -889.9316524174219012 [Eh]
	-----------------------------------------------------------

  Dipole Moment: [D]
     X:     1.7090      Y:    -5.9513      Z:    -1.8323     Total:     6.4573

*** Psi4 exiting successfully. Buy a developer a beer!
