                               Psi4 1.3.2 release

  ==> Input File <==

--------------------------------------------------------------------------
#psi4
#
memory 32 gb

molecule  {
0 1
  O       -1.2481010    -0.6526680     1.0325150
  O       -1.2449750     2.4828510    -0.6861630
  O       -3.2165300     1.5210990     0.7448870
  O       -2.3570290    -3.0668370     0.0949400
  O        1.3605300     2.2470340    -0.0765420
  N        0.8434040     0.0452230     0.2559430
  N        3.0572260     0.7205030    -0.2937270
  N        4.7186372    -0.8249657    -0.5736872
  C       -1.2894840     1.0784300    -0.5920770
  C       -2.7151710     0.6552070    -0.2573930
  C       -0.5254080     0.4815200     0.6000940
  C       -2.5292560    -0.7168860     0.3610560
  C       -2.5283440    -1.8503930    -0.6392900
  C        1.2197750    -1.2614080     0.3112740
  C        1.7555940     1.0674350    -0.0594030
  C        2.5020240    -1.6008414     0.0487260
  C        3.4119830    -0.5506530    -0.2589250
  H       -0.9376060     0.5914040    -1.5148910
  H       -3.3625820     0.6426650    -1.1464650
  H       -0.4402900     1.2218800     1.4039980
  H       -3.2819570    -0.9087340     1.1307830
  H       -1.7133080    -1.7003050    -1.3694640
  H       -3.4855610    -1.8340040    -1.1841350
  H       -0.2975250     2.7131790    -0.5250000
  H       -2.8475560     2.3997430     0.5086630
  H        0.4343110    -1.9634370     0.5690680
  H       -2.4338740    -3.7984320    -0.5432330
  H        2.8291120    -2.6453980     0.0739220
  H        5.1251800    -1.6708610    -0.1624140
  H        5.3198140    -0.0200540    -0.5682940
units angstrom
no_reorient  #important for SAPT in psi4, default
symmetry c1  #important for SAPT in psi4, default
}

set PROPERTIES_ORIGIN ["COM"]
properties('MP2/aug-cc-pvtz', properties = ['dipole'])
--------------------------------------------------------------------------

    Molecular point group: c1
  Charge       = 0
  Multiplicity = 1
  Basis Set: AUG-CC-PVTZ
    Blend: AUG-CC-PVTZ
  Basis Set: (AUG-CC-PVTZ AUX)
    Blend: AUG-CC-PVTZ-JKFIT

    Orbital Energies [Eh]
    ---------------------

    Doubly Occupied:

       1A    -20.582148     2A    -20.581365     3A    -20.557602
       4A    -20.557000     5A    -20.521635     6A    -15.635931
       7A    -15.600520     8A    -15.553071     9A    -11.387822
      10A    -11.358191    11A    -11.341146    12A    -11.326765
      13A    -11.301060    14A    -11.296746    15A    -11.296358
      16A    -11.292755    17A    -11.248884    18A     -1.429091
      19A     -1.396141    20A     -1.379928    21A     -1.372666
      22A     -1.346093    23A     -1.306430    24A     -1.273941
      25A     -1.182058    26A     -1.083831    27A     -1.067535
      28A     -1.021237    29A     -0.935367    30A     -0.909133
      31A     -0.877208    32A     -0.832174    33A     -0.811811
      34A     -0.768195    35A     -0.751951    36A     -0.735898
      37A     -0.720201    38A     -0.702952    39A     -0.698268
      40A     -0.685257    41A     -0.672857    42A     -0.653971
      43A     -0.650110    44A     -0.637795    45A     -0.622224
      46A     -0.614635    47A     -0.607769    48A     -0.592539
      49A     -0.575766    50A     -0.569706    51A     -0.553940
      52A     -0.545490    53A     -0.537280    54A     -0.531698
      55A     -0.498408    56A     -0.477372    57A     -0.474299
      58A     -0.461929    59A     -0.459683    60A     -0.452619
      61A     -0.440758    62A     -0.432807    63A     -0.394981
      64A     -0.351046

  @DF-RHF Final Energy:  -886.37329285942383

   => Energetics <=

    Nuclear Repulsion Energy =           1323.9986327850558609
    One-Electron Energy =               -3845.6717530395580980
    Two-Electron Energy =                1635.2998273950786370
    Total Energy =                       -886.3732928594238274
  Basis Set: (AUG-CC-PVTZ AUX)
    Blend: AUG-CC-PVTZ-RI
    Molecular point group: c1

    Geometry (in Angstrom), charge = 0, multiplicity = 1:

       Center              X                  Y                   Z               Mass
    ------------   -----------------  -----------------  -----------------  -----------------
         O           -1.247778190699    -0.653751021596     1.032509581696    15.994914619570
         O           -1.244652190699     2.481767978404    -0.686168418304    15.994914619570
         O           -3.216207190699     1.520015978404     0.744881581696    15.994914619570
         O           -2.356706190699    -3.067920021596     0.094934581696    15.994914619570
         O            1.360852809301     2.245950978404    -0.076547418304    15.994914619570
         N            0.843726809301     0.044139978404     0.255937581696    14.003074004430
         N            3.057548809301     0.719419978404    -0.293732418304    14.003074004430
         N            4.718960009301    -0.826048721596    -0.573692618304    14.003074004430
         C           -1.289161190699     1.077346978404    -0.592082418304    12.000000000000
         C           -2.714848190699     0.654123978404    -0.257398418304    12.000000000000
         C           -0.525085190699     0.480436978404     0.600088581696    12.000000000000
         C           -2.528933190699    -0.717969021596     0.361050581696    12.000000000000
         C           -2.528021190699    -1.851476021596    -0.639295418304    12.000000000000
         C            1.220097809301    -1.262491021596     0.311268581696    12.000000000000
         C            1.755916809301     1.066351978404    -0.059408418304    12.000000000000
         C            2.502346809301    -1.601924421596     0.048720581696    12.000000000000
         C            3.412305809301    -0.551736021596    -0.258930418304    12.000000000000
         H           -0.937283190699     0.590320978404    -1.514896418304     1.007825032230
         H           -3.362259190699     0.641581978404    -1.146470418304     1.007825032230
         H           -0.439967190699     1.220796978404     1.403992581696     1.007825032230
         H           -3.281634190699    -0.909817021596     1.130777581696     1.007825032230
         H           -1.712985190699    -1.701388021596    -1.369469418304     1.007825032230
         H           -3.485238190699    -1.835087021596    -1.184140418304     1.007825032230
         H           -0.297202190699     2.712095978404    -0.525005418304     1.007825032230
         H           -2.847233190699     2.398659978404     0.508657581696     1.007825032230
         H            0.434633809301    -1.964520021596     0.569062581696     1.007825032230
         H           -2.433551190699    -3.799515021596    -0.543238418304     1.007825032230
         H            2.829434809301    -2.646481021596     0.073916581696     1.007825032230
         H            5.125502809301    -1.671944021596    -0.162419418304     1.007825032230
         H            5.320136809301    -0.021137021596    -0.568299418304     1.007825032230

  Basis Set: AUG-CC-PVTZ
    Blend: AUG-CC-PVTZ
  Basis Set: (AUG-CC-PVTZ AUX)
    Blend: AUG-CC-PVTZ-JKFIT
	 Reference Energy          =    -886.3732928594238274 [Eh]
	 Singles Energy            =      -0.0000000000000000 [Eh]
	 Same-Spin Energy          =      -0.9011813394969858 [Eh]
	 Opposite-Spin Energy      =      -2.7148244081067281 [Eh]
	 Correlation Energy        =      -3.6160057476037140 [Eh]
	 Total Energy              =    -889.9892986070275356 [Eh]

	 ================> DF-SCS-MP2 Energies <==================
	-----------------------------------------------------------
	 SCS Same-Spin Scale       =       0.3333333333333333 [-]
	 SCS Opposite-Spin Scale   =       1.2000000000000000 [-]
	 SCS Same-Spin Energy      =      -0.3003937798323286 [Eh]
	 SCS Opposite-Spin Energy  =      -3.2577892897280738 [Eh]
	 SCS Correlation Energy    =      -3.5581830695604024 [Eh]
	 SCS Total Energy          =    -889.9314759289842414 [Eh]
	-----------------------------------------------------------

  Dipole Moment: [D]
     X:     1.7365      Y:    -5.9695      Z:    -1.8274     Total:     6.4800

*** Psi4 exiting successfully. Buy a developer a beer!
