                               Psi4 1.4a3.dev225

  ==> Input File <==

--------------------------------------------------------------------------
#psi4
#
memory 32 gb

molecule  {
0 1
  O       -1.3191770     0.6538360    -1.0992360
  O       -1.5735610    -2.4640850     0.5135810
  O       -3.5606630    -1.0699430    -0.4600060
  O       -1.4399290     3.1254620     0.1265180
  O        1.1065530    -2.3833650     0.0076020
  N        0.7686360    -0.1579440    -0.3706350
  N        2.9363770    -0.9938720     0.1460080
  N        4.7058880     0.4431110     0.3611260
  C       -1.3768610    -1.0680440     0.5552780
  C       -2.7379840    -0.3746360     0.4578480
  C       -0.6377490    -0.5042940    -0.6790150
  C       -2.3707440     0.9655450    -0.1585060
  C       -1.8992030     1.9895750     0.8571380
  C        1.2309690     1.1190800    -0.4442230
  C        1.6104480    -1.2470590    -0.0585760
  C        2.5474650     1.3753690    -0.1998620
  C        3.3735069     0.2334861     0.0818251
  H       -0.8441360    -0.7686950     1.4698480
  H       -3.2257400    -0.2778790     1.4400230
  H       -0.6227070    -1.2428120    -1.4883720
  H       -3.1941750     1.3785730    -0.7472070
  H       -1.0952130     1.5703990     1.4802000
  H       -2.7410530     2.2466610     1.5166010
  H       -0.6710550    -2.8260740     0.3542250
  H       -3.3063470    -2.0105220    -0.3629290
  H        0.4929290     1.8778260    -0.6840360
  H       -1.2098800     3.8154810     0.7720340
  H        2.9334840     2.3875570    -0.2389120
  H        5.1589650     1.2712730    -0.0008400
  H        5.2635310    -0.4031270     0.3606700
units angstrom
no_reorient  #important for SAPT in psi4, default
symmetry c1  #important for SAPT in psi4, default
}

set PROPERTIES_ORIGIN ["COM"]
properties('MP2/aug-cc-pvtz', properties = ['dipole'])
--------------------------------------------------------------------------

    Molecular point group: c1
  Charge       = 0
  Multiplicity = 1
  Basis Set: AUG-CC-PVTZ
    Blend: AUG-CC-PVTZ
  Basis Set: (AUG-CC-PVTZ AUX)
    Blend: AUG-CC-PVTZ-JKFIT

    Orbital Energies [Eh]
    ---------------------

    Doubly Occupied:

       1A    -20.586554     2A    -20.581450     3A    -20.559800
       4A    -20.556586     5A    -20.521961     6A    -15.632742
       7A    -15.597460     8A    -15.552937     9A    -11.388258
      10A    -11.357358    11A    -11.339782    12A    -11.323371
      13A    -11.303487    14A    -11.297964    15A    -11.297201
      16A    -11.293637    17A    -11.246834    18A     -1.429485
      19A     -1.395772    20A     -1.383173    21A     -1.375671
      22A     -1.346873    23A     -1.305138    24A     -1.270710
      25A     -1.184159    26A     -1.078047    27A     -1.068131
      28A     -1.016858    29A     -0.936329    30A     -0.905678
      31A     -0.878827    32A     -0.830186    33A     -0.812298
      34A     -0.765656    35A     -0.750302    36A     -0.735347
      37A     -0.721088    38A     -0.707777    39A     -0.702913
      40A     -0.685527    41A     -0.674501    42A     -0.654056
      43A     -0.649331    44A     -0.634370    45A     -0.620715
      46A     -0.614979    47A     -0.606353    48A     -0.594298
      49A     -0.577166    50A     -0.564958    51A     -0.555933
      52A     -0.548430    53A     -0.536717    54A     -0.530409
      55A     -0.496219    56A     -0.480772    57A     -0.473832
      58A     -0.463816    59A     -0.459911    60A     -0.453175
      61A     -0.442052    62A     -0.431556    63A     -0.395114
      64A     -0.347770

  @DF-RHF Final Energy:  -886.37436221195912

   => Energetics <=

    Nuclear Repulsion Energy =           1334.7754388132821077
    One-Electron Energy =               -3867.2400916632868757
    Two-Electron Energy =                1646.0902906380456443
    Total Energy =                       -886.3743622119591237
  Basis Set: (AUG-CC-PVTZ AUX)
    Blend: AUG-CC-PVTZ-RI
    Molecular point group: c1

    Geometry (in Angstrom), charge = 0, multiplicity = 1:

       Center              X                  Y                   Z               Mass
    ------------   -----------------  -----------------  -----------------  -----------------
         O           -1.331589803334     0.683376418827    -1.083504369527    15.994914619570
         O           -1.585973803334    -2.434544581173     0.529312630473    15.994914619570
         O           -3.573075803334    -1.040402581173    -0.444274369527    15.994914619570
         O           -1.452341803334     3.155002418827     0.142249630473    15.994914619570
         O            1.094140196666    -2.353824581173     0.023333630473    15.994914619570
         N            0.756223196666    -0.128403581173    -0.354903369527    14.003074004430
         N            2.923964196666    -0.964331581173     0.161739630473    14.003074004430
         N            4.693475196666     0.472651418827     0.376857630473    14.003074004430
         C           -1.389273803334    -1.038503581173     0.571009630473    12.000000000000
         C           -2.750396803334    -0.345095581173     0.473579630473    12.000000000000
         C           -0.650161803334    -0.474753581173    -0.663283369527    12.000000000000
         C           -2.383156803334     0.995085418827    -0.142774369527    12.000000000000
         C           -1.911615803334     2.019115418827     0.872869630473    12.000000000000
         C            1.218556196666     1.148620418827    -0.428491369527    12.000000000000
         C            1.598035196666    -1.217518581173    -0.042844369527    12.000000000000
         C            2.535052196666     1.404909418827    -0.184130369527    12.000000000000
         C            3.361094096666     0.263026518827     0.097556730473    12.000000000000
         H           -0.856548803334    -0.739154581173     1.485579630473     1.007825032230
         H           -3.238152803334    -0.248338581173     1.455754630473     1.007825032230
         H           -0.635119803334    -1.213271581173    -1.472640369527     1.007825032230
         H           -3.206587803334     1.408113418827    -0.731475369527     1.007825032230
         H           -1.107625803334     1.599939418827     1.495931630473     1.007825032230
         H           -2.753465803334     2.276201418827     1.532332630473     1.007825032230
         H           -0.683467803334    -2.796533581173     0.369956630473     1.007825032230
         H           -3.318759803334    -1.980981581173    -0.347197369527     1.007825032230
         H            0.480516196666     1.907366418827    -0.668304369527     1.007825032230
         H           -1.222292803334     3.845021418827     0.787765630473     1.007825032230
         H            2.921071196666     2.417097418827    -0.223180369527     1.007825032230
         H            5.146552196666     1.300813418827     0.014891630473     1.007825032230
         H            5.251118196666    -0.373586581173     0.376401630473     1.007825032230

  Basis Set: AUG-CC-PVTZ
    Blend: AUG-CC-PVTZ
  Basis Set: (AUG-CC-PVTZ AUX)
    Blend: AUG-CC-PVTZ-JKFIT
	 Reference Energy          =    -886.3743622119591237 [Eh]
	 Singles Energy            =      -0.0000000000000000 [Eh]
	 Same-Spin Energy          =      -0.9015263922382245 [Eh]
	 Opposite-Spin Energy      =      -2.7156137545030146 [Eh]
	 Correlation Energy        =      -3.6171401467412392 [Eh]
	 Total Energy              =    -889.9915023587003589 [Eh]

	 ================> DF-SCS-MP2 Energies <==================
	-----------------------------------------------------------
	 SCS Same-Spin Scale       =       0.3333333333333333 [-]
	 SCS Opposite-Spin Scale   =       1.2000000000000000 [-]
	 SCS Same-Spin Energy      =      -0.3005087974127415 [Eh]
	 SCS Opposite-Spin Energy  =      -3.2587365054036175 [Eh]
	 SCS Correlation Energy    =      -3.5592453028163589 [Eh]
	 SCS Total Energy          =    -889.9336075147755309 [Eh]
	-----------------------------------------------------------

  Dipole Moment: [D]
     X:     2.6632      Y:     5.7057      Z:     1.9433     Total:     6.5897

*** Psi4 exiting successfully. Buy a developer a beer!
