                               Psi4 1.3.2 release

  ==> Input File <==

--------------------------------------------------------------------------
#psi4
#
memory 32 gb

molecule  {
0 1
  O       -1.2481010    -0.6526680     1.0325150
  O       -1.2449750     2.4828510    -0.6861630
  O       -3.2165300     1.5210990     0.7448870
  O       -2.3570290    -3.0668370     0.0949400
  O        1.3605300     2.2470340    -0.0765420
  N        0.8434040     0.0452230     0.2559430
  N        3.0572260     0.7205030    -0.2937270
  N        4.7164630    -0.8366550    -0.5722980
  C       -1.2894840     1.0784300    -0.5920770
  C       -2.7511773     0.5993925    -0.2244421
  C       -0.5254080     0.4815200     0.6000940
  C       -2.5292560    -0.7168860     0.3610560
  C       -2.5283440    -1.8503930    -0.6392900
  C        1.2197750    -1.2614080     0.3112740
  C        1.7555940     1.0674350    -0.0594030
  C        2.5111010    -1.6091400     0.0469950
  C        3.4119830    -0.5506530    -0.2589250
  H       -0.9376060     0.5914040    -1.5148910
  H       -3.3625820     0.6426650    -1.1464650
  H       -0.4402900     1.2218800     1.4039980
  H       -3.2819570    -0.9087340     1.1307830
  H       -1.7133080    -1.7003050    -1.3694640
  H       -3.4855610    -1.8340040    -1.1841350
  H       -0.2975250     2.7131790    -0.5250000
  H       -2.8716738     2.4193713     0.5495923
  H        0.4343110    -1.9634370     0.5690680
  H       -2.4338740    -3.7984320    -0.5432330
  H        2.8291120    -2.6453980     0.0739220
  H        5.1251800    -1.6708610    -0.1624140
  H        5.3198140    -0.0200540    -0.5682940
units angstrom
no_reorient  #important for SAPT in psi4, default
symmetry c1  #important for SAPT in psi4, default
}

set PROPERTIES_ORIGIN ["COM"]
properties('MP2/aug-cc-pvtz', properties = ['dipole'])
--------------------------------------------------------------------------

    Molecular point group: c1
  Charge       = 0
  Multiplicity = 1
  Basis Set: AUG-CC-PVTZ
    Blend: AUG-CC-PVTZ
  Basis Set: (AUG-CC-PVTZ AUX)
    Blend: AUG-CC-PVTZ-JKFIT

    Orbital Energies [Eh]
    ---------------------

    Doubly Occupied:

       1A    -20.583076     2A    -20.582215     3A    -20.555783
       4A    -20.555608     5A    -20.521237     6A    -15.636279
       7A    -15.599442     8A    -15.552849     9A    -11.387601
      10A    -11.357362    11A    -11.340299    12A    -11.328068
      13A    -11.302902    14A    -11.297360    15A    -11.296113
      16A    -11.294791    17A    -11.248097    18A     -1.429466
      19A     -1.396106    20A     -1.377649    21A     -1.371916
      22A     -1.344238    23A     -1.305527    24A     -1.273367
      25A     -1.181801    26A     -1.081966    27A     -1.074073
      28A     -1.016569    29A     -0.934839    30A     -0.909517
      31A     -0.879759    32A     -0.833397    33A     -0.811007
      34A     -0.766590    35A     -0.751364    36A     -0.732852
      37A     -0.720384    38A     -0.705935    39A     -0.699617
      40A     -0.685306    41A     -0.674805    42A     -0.654198
      43A     -0.650236    44A     -0.638284    45A     -0.620063
      46A     -0.614358    47A     -0.607559    48A     -0.593181
      49A     -0.573390    50A     -0.568475    51A     -0.558852
      52A     -0.546191    53A     -0.534664    54A     -0.531231
      55A     -0.496819    56A     -0.477784    57A     -0.475297
      58A     -0.462366    59A     -0.459187    60A     -0.447774
      61A     -0.436110    62A     -0.432785    63A     -0.394325
      64A     -0.349082

  @DF-RHF Final Energy:  -886.36777648065527

   => Energetics <=

    Nuclear Repulsion Energy =           1323.3532857899906503
    One-Electron Energy =               -3844.4034388439490613
    Two-Electron Energy =                1634.6823765733033724
    Total Energy =                       -886.3677764806552659
  Basis Set: (AUG-CC-PVTZ AUX)
    Blend: AUG-CC-PVTZ-RI
    Molecular point group: c1

    Geometry (in Angstrom), charge = 0, multiplicity = 1:

       Center              X                  Y                   Z               Mass
    ------------   -----------------  -----------------  -----------------  -----------------
         O           -1.246223578950    -0.649994066270     1.030718683405    15.994914619570
         O           -1.243097578950     2.485524933730    -0.687959316595    15.994914619570
         O           -3.214652578950     1.523772933730     0.743090683405    15.994914619570
         O           -2.355151578950    -3.064163066270     0.093143683405    15.994914619570
         O            1.362407421050     2.249707933730    -0.078338316595    15.994914619570
         N            0.845281421050     0.047896933730     0.254146683405    14.003074004430
         N            3.059103421050     0.723176933730    -0.295523316595    14.003074004430
         N            4.718340421050    -0.833981066270    -0.574094316595    14.003074004430
         C           -1.287606578950     1.081103933730    -0.593873316595    12.000000000000
         C           -2.749299878950     0.602066433730    -0.226238416595    12.000000000000
         C           -0.523530578950     0.484193933730     0.598297683405    12.000000000000
         C           -2.527378578950    -0.714212066270     0.359259683405    12.000000000000
         C           -2.526466578950    -1.847719066270    -0.641086316595    12.000000000000
         C            1.221652421050    -1.258734066270     0.309477683405    12.000000000000
         C            1.757471421050     1.070108933730    -0.061199316595    12.000000000000
         C            2.512978421050    -1.606466066270     0.045198683405    12.000000000000
         C            3.413860421050    -0.547979066270    -0.260721316595    12.000000000000
         H           -0.935728578950     0.594077933730    -1.516687316595     1.007825032230
         H           -3.360704578950     0.645338933730    -1.148261316595     1.007825032230
         H           -0.438412578950     1.224553933730     1.402201683405     1.007825032230
         H           -3.280079578950    -0.906060066270     1.128986683405     1.007825032230
         H           -1.711430578950    -1.697631066270    -1.371260316595     1.007825032230
         H           -3.483683578950    -1.831330066270    -1.185931316595     1.007825032230
         H           -0.295647578950     2.715852933730    -0.526796316595     1.007825032230
         H           -2.869796378950     2.422045233730     0.547795983405     1.007825032230
         H            0.436188421050    -1.960763066270     0.567271683405     1.007825032230
         H           -2.431996578950    -3.795758066270    -0.545029316595     1.007825032230
         H            2.830989421050    -2.642724066270     0.072125683405     1.007825032230
         H            5.127057421050    -1.668187066270    -0.164210316595     1.007825032230
         H            5.321691421050    -0.017380066270    -0.570090316595     1.007825032230

  Basis Set: AUG-CC-PVTZ
    Blend: AUG-CC-PVTZ
  Basis Set: (AUG-CC-PVTZ AUX)
    Blend: AUG-CC-PVTZ-JKFIT
	 Reference Energy          =    -886.3677764806552659 [Eh]
	 Singles Energy            =      -0.0000000000000000 [Eh]
	 Same-Spin Energy          =      -0.9014980143836570 [Eh]
	 Opposite-Spin Energy      =      -2.7151006893390814 [Eh]
	 Correlation Energy        =      -3.6165987037227385 [Eh]
	 Total Energy              =    -889.9843751843779955 [Eh]

	 ================> DF-SCS-MP2 Energies <==================
	-----------------------------------------------------------
	 SCS Same-Spin Scale       =       0.3333333333333333 [-]
	 SCS Opposite-Spin Scale   =       1.2000000000000000 [-]
	 SCS Same-Spin Energy      =      -0.3004993381278857 [Eh]
	 SCS Opposite-Spin Energy  =      -3.2581208272068976 [Eh]
	 SCS Correlation Energy    =      -3.5586201653347831 [Eh]
	 SCS Total Energy          =    -889.9263966459900530 [Eh]
	-----------------------------------------------------------

  Dipole Moment: [D]
     X:     1.6059      Y:    -5.9541      Z:    -1.7739     Total:     6.4169

*** Psi4 exiting successfully. Buy a developer a beer!
