                               Psi4 1.3.2 release

  ==> Input File <==

--------------------------------------------------------------------------
#psi4
#
memory 32 gb

molecule  {
0 1
  O       -1.2481010    -0.6526680     1.0325150
  O       -1.2449750     2.4828510    -0.6861630
  O       -3.2165300     1.5210990     0.7448870
  O       -2.3570290    -3.0668370     0.0949400
  O        1.3605300     2.2470340    -0.0765420
  N        0.8434040     0.0452230     0.2559430
  N        3.0572260     0.7205030    -0.2937270
  N        4.7164630    -0.8366550    -0.5722980
  C       -1.2894840     1.0784300    -0.5920770
  C       -2.7151710     0.6552070    -0.2573930
  C       -0.5254080     0.4815200     0.6000940
  C       -2.5292560    -0.7168860     0.3610560
  C       -2.5283440    -1.8503930    -0.6392900
  C        1.2197750    -1.2614080     0.3112740
  C        1.7555940     1.0674350    -0.0594030
  C        2.5111010    -1.6091400     0.0469950
  C        3.3168862    -0.5298034    -0.2360801
  H       -0.9376060     0.5914040    -1.5148910
  H       -3.3625820     0.6426650    -1.1464650
  H       -0.4402900     1.2218800     1.4039980
  H       -3.2819570    -0.9087340     1.1307830
  H       -1.7133080    -1.7003050    -1.3694640
  H       -3.4855610    -1.8340040    -1.1841350
  H       -0.2975250     2.7131790    -0.5250000
  H       -2.8475560     2.3997430     0.5086630
  H        0.4343110    -1.9634370     0.5690680
  H       -2.4338740    -3.7984320    -0.5432330
  H        2.8291120    -2.6453980     0.0739220
  H        5.1251800    -1.6708610    -0.1624140
  H        5.3198140    -0.0200540    -0.5682940
units angstrom
no_reorient  #important for SAPT in psi4, default
symmetry c1  #important for SAPT in psi4, default
}

set PROPERTIES_ORIGIN ["COM"]
properties('MP2/aug-cc-pvtz', properties = ['dipole'])
--------------------------------------------------------------------------

    Molecular point group: c1
  Charge       = 0
  Multiplicity = 1
  Basis Set: AUG-CC-PVTZ
    Blend: AUG-CC-PVTZ
  Basis Set: (AUG-CC-PVTZ AUX)
    Blend: AUG-CC-PVTZ-JKFIT

    Orbital Energies [Eh]
    ---------------------

    Doubly Occupied:

       1A    -20.585231     2A    -20.584422     3A    -20.560571
       4A    -20.560399     5A    -20.527907     6A    -15.644811
       7A    -15.581070     8A    -15.560902     9A    -11.393616
      10A    -11.352708    11A    -11.346232    12A    -11.334207
      13A    -11.303621    14A    -11.300289    15A    -11.299753
      16A    -11.295858    17A    -11.249100    18A     -1.434022
      19A     -1.403592    20A     -1.383138    21A     -1.375422
      22A     -1.349447    23A     -1.312274    24A     -1.267398
      25A     -1.168437    26A     -1.093837    27A     -1.070714
      28A     -1.026089    29A     -0.938665    30A     -0.918125
      31A     -0.878441    32A     -0.834538    33A     -0.814891
      34A     -0.765517    35A     -0.758595    36A     -0.739813
      37A     -0.712382    38A     -0.702389    39A     -0.696221
      40A     -0.677727    41A     -0.669827    42A     -0.659793
      43A     -0.653121    44A     -0.645687    45A     -0.624915
      46A     -0.617892    47A     -0.606886    48A     -0.589990
      49A     -0.578464    50A     -0.571140    51A     -0.556434
      52A     -0.546755    53A     -0.539867    54A     -0.524917
      55A     -0.502590    56A     -0.480640    57A     -0.477986
      58A     -0.471133    59A     -0.465152    60A     -0.456017
      61A     -0.443945    62A     -0.439575    63A     -0.398872
      64A     -0.356156

  @DF-RHF Final Energy:  -886.36040231039897

   => Energetics <=

    Nuclear Repulsion Energy =           1325.2933983101324884
    One-Electron Energy =               -3847.9473565292814783
    Two-Electron Energy =                1636.2935559087500224
    Total Energy =                       -886.3604023103989675
  Basis Set: (AUG-CC-PVTZ AUX)
    Blend: AUG-CC-PVTZ-RI
    Molecular point group: c1

    Geometry (in Angstrom), charge = 0, multiplicity = 1:

       Center              X                  Y                   Z               Mass
    ------------   -----------------  -----------------  -----------------  -----------------
         O           -1.243406547825    -0.653697237508     1.031387261166    15.994914619570
         O           -1.240280547825     2.481821762492    -0.687290738834    15.994914619570
         O           -3.211835547825     1.520069762492     0.743759261166    15.994914619570
         O           -2.352334547825    -3.067866237508     0.093812261166    15.994914619570
         O            1.365224452175     2.246004762492    -0.077669738834    15.994914619570
         N            0.848098452175     0.044193762492     0.254815261166    14.003074004430
         N            3.061920452175     0.719473762492    -0.294854738834    14.003074004430
         N            4.721157452175    -0.837684237508    -0.573425738834    14.003074004430
         C           -1.284789547825     1.077400762492    -0.593204738834    12.000000000000
         C           -2.710476547825     0.654177762492    -0.258520738834    12.000000000000
         C           -0.520713547825     0.480490762492     0.598966261166    12.000000000000
         C           -2.524561547825    -0.717915237508     0.359928261166    12.000000000000
         C           -2.523649547825    -1.851422237508    -0.640417738834    12.000000000000
         C            1.224469452175    -1.262437237508     0.310146261166    12.000000000000
         C            1.760288452175     1.066405762492    -0.060530738834    12.000000000000
         C            2.515795452175    -1.610169237508     0.045867261166    12.000000000000
         C            3.321580652175    -0.530832637508    -0.237207838834    12.000000000000
         H           -0.932911547825     0.590374762492    -1.516018738834     1.007825032230
         H           -3.357887547825     0.641635762492    -1.147592738834     1.007825032230
         H           -0.435595547825     1.220850762492     1.402870261166     1.007825032230
         H           -3.277262547825    -0.909763237508     1.129655261166     1.007825032230
         H           -1.708613547825    -1.701334237508    -1.370591738834     1.007825032230
         H           -3.480866547825    -1.835033237508    -1.185262738834     1.007825032230
         H           -0.292830547825     2.712149762492    -0.526127738834     1.007825032230
         H           -2.842861547825     2.398713762492     0.507535261166     1.007825032230
         H            0.439005452175    -1.964466237508     0.567940261166     1.007825032230
         H           -2.429179547825    -3.799461237508    -0.544360738834     1.007825032230
         H            2.833806452175    -2.646427237508     0.072794261166     1.007825032230
         H            5.129874452175    -1.671890237508    -0.163541738834     1.007825032230
         H            5.324508452175    -0.021083237508    -0.569421738834     1.007825032230

  Basis Set: AUG-CC-PVTZ
    Blend: AUG-CC-PVTZ
  Basis Set: (AUG-CC-PVTZ AUX)
    Blend: AUG-CC-PVTZ-JKFIT
	 Reference Energy          =    -886.3604023103989675 [Eh]
	 Singles Energy            =      -0.0000000000000000 [Eh]
	 Same-Spin Energy          =      -0.9015209639181210 [Eh]
	 Opposite-Spin Energy      =      -2.7157605218051186 [Eh]
	 Correlation Energy        =      -3.6172814857232396 [Eh]
	 Total Energy              =    -889.9776837961221645 [Eh]

	 ================> DF-SCS-MP2 Energies <==================
	-----------------------------------------------------------
	 SCS Same-Spin Scale       =       0.3333333333333333 [-]
	 SCS Opposite-Spin Scale   =       1.2000000000000000 [-]
	 SCS Same-Spin Energy      =      -0.3005069879727070 [Eh]
	 SCS Opposite-Spin Energy  =      -3.2589126261661421 [Eh]
	 SCS Correlation Energy    =      -3.5594196141388492 [Eh]
	 SCS Total Energy          =    -889.9198219245378141 [Eh]
	-----------------------------------------------------------

  Dipole Moment: [D]
     X:     0.7111      Y:    -5.6897      Z:    -1.6342     Total:     5.9623

*** Psi4 exiting successfully. Buy a developer a beer!
