                               Psi4 1.3.2 release

  ==> Input File <==

--------------------------------------------------------------------------
#psi4
#
memory 32 gb

molecule  {
0 1
  O       -1.2481010    -0.6526680     1.0325150
  O       -1.2449750     2.4828510    -0.6861630
  O       -3.2165300     1.5210990     0.7448870
  O       -2.3570290    -3.0668370     0.0949400
  O        1.3605300     2.2470340    -0.0765420
  N        0.8434040     0.0452230     0.2559430
  N        3.0572260     0.7205030    -0.2937270
  N        4.7164630    -0.8366550    -0.5722980
  C       -1.2894840     1.0784300    -0.5920770
  C       -2.7151710     0.6552070    -0.2573930
  C       -0.5254080     0.4815200     0.6000940
  C       -2.5292560    -0.7168860     0.3610560
  C       -2.5283440    -1.8503930    -0.6392900
  C        1.2197750    -1.2614080     0.3112740
  C        1.7555940     1.0674350    -0.0594030
  C        2.5111010    -1.6091400     0.0469950
  C        3.4119830    -0.5506530    -0.2589250
  H       -0.9376060     0.5914040    -1.5148910
  H       -3.3625820     0.6426650    -1.1464650
  H       -0.4558197     1.0868016     1.2573261
  H       -3.2819570    -0.9087340     1.1307830
  H       -1.7133080    -1.7003050    -1.3694640
  H       -3.4855610    -1.8340040    -1.1841350
  H       -0.2975250     2.7131790    -0.5250000
  H       -2.8475560     2.3997430     0.5086630
  H        0.4343110    -1.9634370     0.5690680
  H       -2.4338740    -3.7984320    -0.5432330
  H        2.8291120    -2.6453980     0.0739220
  H        5.1251800    -1.6708610    -0.1624140
  H        5.3198140    -0.0200540    -0.5682940
units angstrom
no_reorient  #important for SAPT in psi4, default
symmetry c1  #important for SAPT in psi4, default
}

set PROPERTIES_ORIGIN ["COM"]
properties('MP2/aug-cc-pvtz', properties = ['dipole'])
--------------------------------------------------------------------------

    Molecular point group: c1
  Charge       = 0
  Multiplicity = 1
  Basis Set: AUG-CC-PVTZ
    Blend: AUG-CC-PVTZ
  Basis Set: (AUG-CC-PVTZ AUX)
    Blend: AUG-CC-PVTZ-JKFIT

    Orbital Energies [Eh]
    ---------------------

    Doubly Occupied:

       1A    -20.581968     2A    -20.580164     3A    -20.558407
       4A    -20.557823     5A    -20.522400     6A    -15.635880
       7A    -15.599888     8A    -15.553389     9A    -11.388640
      10A    -11.357924    11A    -11.328375    12A    -11.319535
      13A    -11.300803    14A    -11.296480    15A    -11.295681
      16A    -11.292836    17A    -11.248347    18A     -1.430145
      19A     -1.396526    20A     -1.380372    21A     -1.372689
      22A     -1.346922    23A     -1.306136    24A     -1.273952
      25A     -1.182673    26A     -1.085605    27A     -1.067468
      28A     -1.027965    29A     -0.943448    30A     -0.909296
      31A     -0.877547    32A     -0.849635    33A     -0.811658
      34A     -0.769034    35A     -0.754024    36A     -0.747218
      37A     -0.720219    38A     -0.702998    39A     -0.698625
      40A     -0.687283    41A     -0.674968    42A     -0.662698
      43A     -0.651589    44A     -0.639320    45A     -0.621808
      46A     -0.614299    47A     -0.607830    48A     -0.594452
      49A     -0.576408    50A     -0.574984    51A     -0.555224
      52A     -0.546272    53A     -0.537733    54A     -0.535583
      55A     -0.498746    56A     -0.477545    57A     -0.474310
      58A     -0.463184    59A     -0.460378    60A     -0.452798
      61A     -0.443209    62A     -0.433855    63A     -0.396487
      64A     -0.350376

  @DF-RHF Final Energy:  -886.34172807961397

   => Energetics <=

    Nuclear Repulsion Energy =           1325.1531224333562022
    One-Electron Energy =               -3847.7816365236139973
    Two-Electron Energy =                1636.2867860106439366
    Total Energy =                       -886.3417280796138584
  Basis Set: (AUG-CC-PVTZ AUX)
    Blend: AUG-CC-PVTZ-RI
    Molecular point group: c1

    Geometry (in Angstrom), charge = 0, multiplicity = 1:

       Center              X                  Y                   Z               Mass
    ------------   -----------------  -----------------  -----------------  -----------------
         O           -1.248036648282    -0.652107959002     1.033123104631    15.994914619570
         O           -1.244910648282     2.483411040998    -0.685554895369    15.994914619570
         O           -3.216465648282     1.521659040998     0.745495104631    15.994914619570
         O           -2.356964648282    -3.066276959002     0.095548104631    15.994914619570
         O            1.360594351718     2.247594040998    -0.075933895369    15.994914619570
         N            0.843468351718     0.045783040998     0.256551104631    14.003074004430
         N            3.057290351718     0.721063040998    -0.293118895369    14.003074004430
         N            4.716527351718    -0.836094959002    -0.571689895369    14.003074004430
         C           -1.289419648282     1.078990040998    -0.591468895369    12.000000000000
         C           -2.715106648282     0.655767040998    -0.256784895369    12.000000000000
         C           -0.525343648282     0.482080040998     0.600702104631    12.000000000000
         C           -2.529191648282    -0.716325959002     0.361664104631    12.000000000000
         C           -2.528279648282    -1.849832959002    -0.638681895369    12.000000000000
         C            1.219839351718    -1.260847959002     0.311882104631    12.000000000000
         C            1.755658351718     1.067995040998    -0.058794895369    12.000000000000
         C            2.511165351718    -1.608579959002     0.047603104631    12.000000000000
         C            3.412047351718    -0.550092959002    -0.258316895369    12.000000000000
         H           -0.937541648282     0.591964040998    -1.514282895369     1.007825032230
         H           -3.362517648282     0.643225040998    -1.145856895369     1.007825032230
         H           -0.455755348282     1.087361640998     1.257934204631     1.007825032230
         H           -3.281892648282    -0.908173959002     1.131391104631     1.007825032230
         H           -1.713243648282    -1.699744959002    -1.368855895369     1.007825032230
         H           -3.485496648282    -1.833443959002    -1.183526895369     1.007825032230
         H           -0.297460648282     2.713739040998    -0.524391895369     1.007825032230
         H           -2.847491648282     2.400303040998     0.509271104631     1.007825032230
         H            0.434375351718    -1.962876959002     0.569676104631     1.007825032230
         H           -2.433809648282    -3.797871959002    -0.542624895369     1.007825032230
         H            2.829176351718    -2.644837959002     0.074530104631     1.007825032230
         H            5.125244351718    -1.670300959002    -0.161805895369     1.007825032230
         H            5.319878351718    -0.019493959002    -0.567685895369     1.007825032230

  Basis Set: AUG-CC-PVTZ
    Blend: AUG-CC-PVTZ
  Basis Set: (AUG-CC-PVTZ AUX)
    Blend: AUG-CC-PVTZ-JKFIT
	 Reference Energy          =    -886.3417280796139721 [Eh]
	 Singles Energy            =      -0.0000000000000000 [Eh]
	 Same-Spin Energy          =      -0.9005241556756365 [Eh]
	 Opposite-Spin Energy      =      -2.7134122625715453 [Eh]
	 Correlation Energy        =      -3.6139364182471816 [Eh]
	 Total Energy              =    -889.9556644978611075 [Eh]

	 ================> DF-SCS-MP2 Energies <==================
	-----------------------------------------------------------
	 SCS Same-Spin Scale       =       0.3333333333333333 [-]
	 SCS Opposite-Spin Scale   =       1.2000000000000000 [-]
	 SCS Same-Spin Energy      =      -0.3001747185585455 [Eh]
	 SCS Opposite-Spin Energy  =      -3.2560947150858541 [Eh]
	 SCS Correlation Energy    =      -3.5562694336443998 [Eh]
	 SCS Total Energy          =    -889.8979975132583604 [Eh]
	-----------------------------------------------------------

  Dipole Moment: [D]
     X:     1.7267      Y:    -5.9307      Z:    -1.8318     Total:     6.4428

*** Psi4 exiting successfully. Buy a developer a beer!
