                               Psi4 1.3.2 release

  ==> Input File <==

--------------------------------------------------------------------------
#psi4
#
memory 32 gb

molecule  {
0 1
  O       -1.2481010    -0.6526680     1.0325150
  O       -1.2449750     2.4828510    -0.6861630
  O       -3.2165300     1.5210990     0.7448870
  O       -2.3570290    -3.0668370     0.0949400
  O        1.3605300     2.2470340    -0.0765420
  N        0.8434040     0.0452230     0.2559430
  N        3.0572260     0.7205030    -0.2937270
  N        4.7164630    -0.8366550    -0.5722980
  C       -1.2894840     1.0784300    -0.5920770
  C       -2.7148714     0.6629549    -0.2465837
  C       -0.5254080     0.4815200     0.6000940
  C       -2.5292560    -0.7168860     0.3610560
  C       -2.5283440    -1.8503930    -0.6392900
  C        1.2197750    -1.2614080     0.3112740
  C        1.7555940     1.0674350    -0.0594030
  C        2.5111010    -1.6091400     0.0469950
  C        3.4119830    -0.5506530    -0.2589250
  H       -0.9291710     0.5959226    -1.5140094
  H       -3.3625820     0.6426650    -1.1464650
  H       -0.4402900     1.2218800     1.4039980
  H       -3.2819570    -0.9087340     1.1307830
  H       -1.7133080    -1.7003050    -1.3694640
  H       -3.4855610    -1.8340040    -1.1841350
  H       -0.2975250     2.7131790    -0.5250000
  H       -2.8475560     2.3997430     0.5086630
  H        0.4343110    -1.9634370     0.5690680
  H       -2.4338740    -3.7984320    -0.5432330
  H        2.8291120    -2.6453980     0.0739220
  H        5.1251800    -1.6708610    -0.1624140
  H        5.3198140    -0.0200540    -0.5682940
units angstrom
no_reorient  #important for SAPT in psi4, default
symmetry c1  #important for SAPT in psi4, default
}

set PROPERTIES_ORIGIN ["COM"]
properties('MP2/aug-cc-pvtz', properties = ['dipole'])
--------------------------------------------------------------------------

    Molecular point group: c1
  Charge       = 0
  Multiplicity = 1
  Basis Set: AUG-CC-PVTZ
    Blend: AUG-CC-PVTZ
  Basis Set: (AUG-CC-PVTZ AUX)
    Blend: AUG-CC-PVTZ-JKFIT

    Orbital Energies [Eh]
    ---------------------

    Doubly Occupied:

       1A    -20.582172     2A    -20.581285     3A    -20.559188
       4A    -20.557068     5A    -20.521966     6A    -15.636854
       7A    -15.599822     8A    -15.553313     9A    -11.388225
      10A    -11.357821    11A    -11.341255    12A    -11.328462
      13A    -11.301086    14A    -11.296583    15A    -11.296282
      16A    -11.293336    17A    -11.248505    18A     -1.429591
      19A     -1.396527    20A     -1.381961    21A     -1.372988
      22A     -1.348944    23A     -1.306023    24A     -1.273750
      25A     -1.182212    26A     -1.081906    27A     -1.066533
      28A     -1.021241    29A     -0.935228    30A     -0.909421
      31A     -0.877262    32A     -0.832318    33A     -0.811090
      34A     -0.766940    35A     -0.752197    36A     -0.736454
      37A     -0.720042    38A     -0.703900    39A     -0.699398
      40A     -0.685628    41A     -0.673407    42A     -0.654335
      43A     -0.651725    44A     -0.638260    45A     -0.620719
      46A     -0.614205    47A     -0.607023    48A     -0.593692
      49A     -0.576191    50A     -0.569926    51A     -0.554728
      52A     -0.546902    53A     -0.537861    54A     -0.531755
      55A     -0.498076    56A     -0.477156    57A     -0.473772
      58A     -0.462035    59A     -0.459641    60A     -0.452851
      61A     -0.439819    62A     -0.433066    63A     -0.395094
      64A     -0.349918

  @DF-RHF Final Energy:  -886.37344043334815

   => Energetics <=

    Nuclear Repulsion Energy =           1323.8295354919148394
    One-Electron Energy =               -3845.3120834336909866
    Two-Electron Energy =                1635.1091075084277691
    Total Energy =                       -886.3734404333481507
  Basis Set: (AUG-CC-PVTZ AUX)
    Blend: AUG-CC-PVTZ-RI
    Molecular point group: c1

    Geometry (in Angstrom), charge = 0, multiplicity = 1:

       Center              X                  Y                   Z               Mass
    ------------   -----------------  -----------------  -----------------  -----------------
         O           -1.248150795041    -0.653069201575     1.031977747597    15.994914619570
         O           -1.245024795041     2.482449798425    -0.686700252403    15.994914619570
         O           -3.216579795041     1.520697798425     0.744349747597    15.994914619570
         O           -2.357078795041    -3.067238201575     0.094402747597    15.994914619570
         O            1.360480204959     2.246632798425    -0.077079252403    15.994914619570
         N            0.843354204959     0.044821798425     0.255405747597    14.003074004430
         N            3.057176204959     0.720101798425    -0.294264252403    14.003074004430
         N            4.716413204959    -0.837056201575    -0.572835252403    14.003074004430
         C           -1.289533795041     1.078028798425    -0.592614252403    12.000000000000
         C           -2.714921195041     0.662553698425    -0.247120952403    12.000000000000
         C           -0.525457795041     0.481118798425     0.599556747597    12.000000000000
         C           -2.529305795041    -0.717287201575     0.360518747597    12.000000000000
         C           -2.528393795041    -1.850794201575    -0.639827252403    12.000000000000
         C            1.219725204959    -1.261809201575     0.310736747597    12.000000000000
         C            1.755544204959     1.067033798425    -0.059940252403    12.000000000000
         C            2.511051204959    -1.609541201575     0.046457747597    12.000000000000
         C            3.411933204959    -0.551054201575    -0.259462252403    12.000000000000
         H           -0.929220795041     0.595521398425    -1.514546652403     1.007825032230
         H           -3.362631795041     0.642263798425    -1.147002252403     1.007825032230
         H           -0.440339795041     1.221478798425     1.403460747597     1.007825032230
         H           -3.282006795041    -0.909135201575     1.130245747597     1.007825032230
         H           -1.713357795041    -1.700706201575    -1.370001252403     1.007825032230
         H           -3.485610795041    -1.834405201575    -1.184672252403     1.007825032230
         H           -0.297574795041     2.712777798425    -0.525537252403     1.007825032230
         H           -2.847605795041     2.399341798425     0.508125747597     1.007825032230
         H            0.434261204959    -1.963838201575     0.568530747597     1.007825032230
         H           -2.433923795041    -3.798833201575    -0.543770252403     1.007825032230
         H            2.829062204959    -2.645799201575     0.073384747597     1.007825032230
         H            5.125130204959    -1.671262201575    -0.162951252403     1.007825032230
         H            5.319764204959    -0.020455201575    -0.568831252403     1.007825032230

  Basis Set: AUG-CC-PVTZ
    Blend: AUG-CC-PVTZ
  Basis Set: (AUG-CC-PVTZ AUX)
    Blend: AUG-CC-PVTZ-JKFIT
	 Reference Energy          =    -886.3734404333481507 [Eh]
	 Singles Energy            =      -0.0000000000000000 [Eh]
	 Same-Spin Energy          =      -0.9012506672536205 [Eh]
	 Opposite-Spin Energy      =      -2.7147787374490715 [Eh]
	 Correlation Energy        =      -3.6160294047026920 [Eh]
	 Total Energy              =    -889.9894698380508089 [Eh]

	 ================> DF-SCS-MP2 Energies <==================
	-----------------------------------------------------------
	 SCS Same-Spin Scale       =       0.3333333333333333 [-]
	 SCS Opposite-Spin Scale   =       1.2000000000000000 [-]
	 SCS Same-Spin Energy      =      -0.3004168890845401 [Eh]
	 SCS Opposite-Spin Energy  =      -3.2577344849388856 [Eh]
	 SCS Correlation Energy    =      -3.5581513740234256 [Eh]
	 SCS Total Energy          =    -889.9315918073715466 [Eh]
	-----------------------------------------------------------

  Dipole Moment: [D]
     X:     1.7014      Y:    -5.9228      Z:    -1.7924     Total:     6.4177

*** Psi4 exiting successfully. Buy a developer a beer!
