                               Psi4 1.3.2 release

  ==> Input File <==

--------------------------------------------------------------------------
#psi4
#
memory 32 gb

molecule  {
0 1
  O       -1.2481010    -0.6526680     1.0325150
  O       -1.2449750     2.4828510    -0.6861630
  O       -3.2165300     1.5210990     0.7448870
  O       -2.3570290    -3.0668370     0.0949400
  O        1.3605300     2.2470340    -0.0765420
  N        0.8434040     0.0452230     0.2559430
  N        3.0572260     0.7205030    -0.2937270
  N        4.7164630    -0.8366550    -0.5722980
  C       -1.2894840     1.0784300    -0.5920770
  C       -2.7151710     0.6552070    -0.2573930
  C       -0.5254080     0.4815200     0.6000940
  C       -2.5292560    -0.7168860     0.3610560
  C       -2.5283440    -1.8503930    -0.6392900
  C        1.2197750    -1.2614080     0.3112740
  C        1.7555940     1.0674350    -0.0594030
  C        2.5111010    -1.6091400     0.0469950
  C        3.4119830    -0.5506530    -0.2589250
  H       -0.9376060     0.5914040    -1.5148910
  H       -3.3625820     0.6426650    -1.1464650
  H       -0.4402900     1.2218800     1.4039980
  H       -3.3507882    -0.9262777     1.2011711
  H       -1.7133080    -1.7003050    -1.3694640
  H       -3.4855610    -1.8340040    -1.1841350
  H       -0.2975250     2.7131790    -0.5250000
  H       -2.8475560     2.3997430     0.5086630
  H        0.4343110    -1.9634370     0.5690680
  H       -2.4338740    -3.7984320    -0.5432330
  H        2.8291120    -2.6453980     0.0739220
  H        5.1251800    -1.6708610    -0.1624140
  H        5.3198140    -0.0200540    -0.5682940
units angstrom
no_reorient  #important for SAPT in psi4, default
symmetry c1  #important for SAPT in psi4, default
}

set PROPERTIES_ORIGIN ["COM"]
properties('MP2/aug-cc-pvtz', properties = ['dipole'])
--------------------------------------------------------------------------

    Molecular point group: c1
  Charge       = 0
  Multiplicity = 1
  Basis Set: AUG-CC-PVTZ
    Blend: AUG-CC-PVTZ
  Basis Set: (AUG-CC-PVTZ AUX)
    Blend: AUG-CC-PVTZ-JKFIT

    Orbital Energies [Eh]
    ---------------------

    Doubly Occupied:

       1A    -20.582858     2A    -20.582091     3A    -20.557647
       4A    -20.557577     5A    -20.522264     6A    -15.637299
       7A    -15.600052     8A    -15.553595     9A    -11.388557
      10A    -11.358100    11A    -11.342128    12A    -11.328806
      13A    -11.307622    14A    -11.301878    15A    -11.297181
      16A    -11.293655    17A    -11.248820    18A     -1.429862
      19A     -1.396650    20A     -1.380213    21A     -1.372857
      22A     -1.346356    23A     -1.306327    24A     -1.274069
      25A     -1.182471    26A     -1.082099    27A     -1.066338
      28A     -1.020338    29A     -0.935814    30A     -0.909441
      31A     -0.876650    32A     -0.831290    33A     -0.807474
      34A     -0.766441    35A     -0.752482    36A     -0.734805
      37A     -0.720315    38A     -0.702422    39A     -0.695698
      40A     -0.685646    41A     -0.672847    42A     -0.654650
      43A     -0.651660    44A     -0.638727    45A     -0.620857
      46A     -0.614744    47A     -0.605817    48A     -0.593818
      49A     -0.575952    50A     -0.561816    51A     -0.553803
      52A     -0.545112    53A     -0.537187    54A     -0.531431
      55A     -0.497377    56A     -0.477247    57A     -0.473572
      58A     -0.461290    59A     -0.459455    60A     -0.452705
      61A     -0.440556    62A     -0.432823    63A     -0.395420
      64A     -0.350275

  @DF-RHF Final Energy:  -886.36633778841804

   => Energetics <=

    Nuclear Repulsion Energy =           1323.0786114241318501
    One-Electron Energy =               -3843.8192457593240761
    Two-Electron Energy =                1634.3742965467740760
    Total Energy =                       -886.3663377884181500
  Basis Set: (AUG-CC-PVTZ AUX)
    Blend: AUG-CC-PVTZ-RI
    Molecular point group: c1

    Geometry (in Angstrom), charge = 0, multiplicity = 1:

       Center              X                  Y                   Z               Mass
    ------------   -----------------  -----------------  -----------------  -----------------
         O           -1.247815661915    -0.652595254225     1.032223180600    15.994914619570
         O           -1.244689661915     2.482923745775    -0.686454819400    15.994914619570
         O           -3.216244661915     1.521171745775     0.744595180600    15.994914619570
         O           -2.356743661915    -3.066764254225     0.094648180600    15.994914619570
         O            1.360815338085     2.247106745775    -0.076833819400    15.994914619570
         N            0.843689338085     0.045295745775     0.255651180600    14.003074004430
         N            3.057511338085     0.720575745775    -0.294018819400    14.003074004430
         N            4.716748338085    -0.836582254225    -0.572589819400    14.003074004430
         C           -1.289198661915     1.078502745775    -0.592368819400    12.000000000000
         C           -2.714885661915     0.655279745775    -0.257684819400    12.000000000000
         C           -0.525122661915     0.481592745775     0.599802180600    12.000000000000
         C           -2.528970661915    -0.716813254225     0.360764180600    12.000000000000
         C           -2.528058661915    -1.850320254225    -0.639581819400    12.000000000000
         C            1.220060338085    -1.261335254225     0.310982180600    12.000000000000
         C            1.755879338085     1.067507745775    -0.059694819400    12.000000000000
         C            2.511386338085    -1.609067254225     0.046703180600    12.000000000000
         C            3.412268338085    -0.550580254225    -0.259216819400    12.000000000000
         H           -0.937320661915     0.591476745775    -1.515182819400     1.007825032230
         H           -3.362296661915     0.642737745775    -1.146756819400     1.007825032230
         H           -0.440004661915     1.221952745775     1.403706180600     1.007825032230
         H           -3.350502861915    -0.926204954225     1.200879280600     1.007825032230
         H           -1.713022661915    -1.700232254225    -1.369755819400     1.007825032230
         H           -3.485275661915    -1.833931254225    -1.184426819400     1.007825032230
         H           -0.297239661915     2.713251745775    -0.525291819400     1.007825032230
         H           -2.847270661915     2.399815745775     0.508371180600     1.007825032230
         H            0.434596338085    -1.963364254225     0.568776180600     1.007825032230
         H           -2.433588661915    -3.798359254225    -0.543524819400     1.007825032230
         H            2.829397338085    -2.645325254225     0.073630180600     1.007825032230
         H            5.125465338085    -1.670788254225    -0.162705819400     1.007825032230
         H            5.320099338085    -0.019981254225    -0.568585819400     1.007825032230

  Basis Set: AUG-CC-PVTZ
    Blend: AUG-CC-PVTZ
  Basis Set: (AUG-CC-PVTZ AUX)
    Blend: AUG-CC-PVTZ-JKFIT
	 Reference Energy          =    -886.3663377884180363 [Eh]
	 Singles Energy            =      -0.0000000000000000 [Eh]
	 Same-Spin Energy          =      -0.9015425360663423 [Eh]
	 Opposite-Spin Energy      =      -2.7160232993630888 [Eh]
	 Correlation Energy        =      -3.6175658354294313 [Eh]
	 Total Energy              =    -889.9839036238474819 [Eh]

	 ================> DF-SCS-MP2 Energies <==================
	-----------------------------------------------------------
	 SCS Same-Spin Scale       =       0.3333333333333333 [-]
	 SCS Opposite-Spin Scale   =       1.2000000000000000 [-]
	 SCS Same-Spin Energy      =      -0.3005141786887807 [Eh]
	 SCS Opposite-Spin Energy  =      -3.2592279592357065 [Eh]
	 SCS Correlation Energy    =      -3.5597421379244873 [Eh]
	 SCS Total Energy          =    -889.9260799263424815 [Eh]
	-----------------------------------------------------------

  Dipole Moment: [D]
     X:     1.7561      Y:    -5.9368      Z:    -1.8304     Total:     6.4560

*** Psi4 exiting successfully. Buy a developer a beer!
