                               Psi4 1.3.2 release

  ==> Input File <==

--------------------------------------------------------------------------
#psi4
#
memory 32 gb

molecule  {
0 1
  O       -1.2481010    -0.6526680     1.0325150
  O       -1.2449750     2.4828510    -0.6861630
  O       -3.2165300     1.5210990     0.7448870
  O       -2.3570290    -3.0668370     0.0949400
  O        1.3605300     2.2470340    -0.0765420
  N        0.8434040     0.0452230     0.2559430
  N        3.0572260     0.7205030    -0.2937270
  N        4.7164630    -0.8366550    -0.5722980
  C       -1.2894840     1.0784300    -0.5920770
  C       -2.7151710     0.6552070    -0.2573930
  C       -0.5254080     0.4815200     0.6000940
  C       -2.5292560    -0.7168860     0.3610560
  C       -2.5283440    -1.8503930    -0.6392900
  C        1.2197750    -1.2614080     0.3112740
  C        1.7555940     1.0674350    -0.0594030
  C        2.7005577    -1.6601574     0.0082214
  C        3.4119830    -0.5506530    -0.2589250
  H       -0.9376060     0.5914040    -1.5148910
  H       -3.3625820     0.6426650    -1.1464650
  H       -0.4402900     1.2218800     1.4039980
  H       -3.2819570    -0.9087340     1.1307830
  H       -1.7133080    -1.7003050    -1.3694640
  H       -3.4855610    -1.8340040    -1.1841350
  H       -0.2975250     2.7131790    -0.5250000
  H       -2.8475560     2.3997430     0.5086630
  H        0.4343110    -1.9634370     0.5690680
  H       -2.4338740    -3.7984320    -0.5432330
  H        2.8291120    -2.6453980     0.0739220
  H        5.1251800    -1.6708610    -0.1624140
  H        5.3198140    -0.0200540    -0.5682940
units angstrom
no_reorient  #important for SAPT in psi4, default
symmetry c1  #important for SAPT in psi4, default
}

set PROPERTIES_ORIGIN ["COM"]
properties('MP2/aug-cc-pvtz', properties = ['dipole'])
--------------------------------------------------------------------------

    Molecular point group: c1
  Charge       = 0
  Multiplicity = 1
  Basis Set: AUG-CC-PVTZ
    Blend: AUG-CC-PVTZ
  Basis Set: (AUG-CC-PVTZ AUX)
    Blend: AUG-CC-PVTZ-JKFIT

    Orbital Energies [Eh]
    ---------------------

    Doubly Occupied:

       1A    -20.588309     2A    -20.586147     3A    -20.561925
       4A    -20.561531     5A    -20.523895     6A    -15.658153
       7A    -15.580070     8A    -15.547605     9A    -11.389956
      10A    -11.362672    11A    -11.349760    12A    -11.340352
      13A    -11.305409    14A    -11.302864    15A    -11.301844
      16A    -11.297809    17A    -11.248480    18A     -1.435973
      19A     -1.399662    20A     -1.384538    21A     -1.377187
      22A     -1.350488    23A     -1.305306    24A     -1.275433
      25A     -1.175247    26A     -1.072810    27A     -1.065013
      28A     -1.026625    29A     -0.943662    30A     -0.923616
      31A     -0.873137    32A     -0.834458    33A     -0.815940
      34A     -0.761339    35A     -0.760251    36A     -0.742309
      37A     -0.716812    38A     -0.706418    39A     -0.703979
      40A     -0.690528    41A     -0.678805    42A     -0.667155
      43A     -0.657020    44A     -0.644591    45A     -0.623419
      46A     -0.616154    47A     -0.607896    48A     -0.585458
      49A     -0.575297    50A     -0.564872    51A     -0.551724
      52A     -0.543377    53A     -0.541367    54A     -0.533485
      55A     -0.497217    56A     -0.481551    57A     -0.478141
      58A     -0.467814    59A     -0.462585    60A     -0.457507
      61A     -0.441195    62A     -0.435277    63A     -0.391781
      64A     -0.336698

  @DF-RHF Final Energy:  -886.32240435434881

   => Energetics <=

    Nuclear Repulsion Energy =           1320.9219991500303877
    One-Electron Energy =               -3839.1130115755013321
    Two-Electron Energy =                1631.8686080711222530
    Total Energy =                       -886.3224043543486914
  Basis Set: (AUG-CC-PVTZ AUX)
    Blend: AUG-CC-PVTZ-RI
    Molecular point group: c1

    Geometry (in Angstrom), charge = 0, multiplicity = 1:

       Center              X                  Y                   Z               Mass
    ------------   -----------------  -----------------  -----------------  -----------------
         O           -1.257453628838    -0.650149498432     1.034429079528    15.994914619570
         O           -1.254327628838     2.485369501568    -0.684248920472    15.994914619570
         O           -3.225882628838     1.523617501568     0.746801079528    15.994914619570
         O           -2.366381628838    -3.064318498432     0.096854079528    15.994914619570
         O            1.351177371162     2.249552501568    -0.074627920472    15.994914619570
         N            0.834051371162     0.047741501568     0.257857079528    14.003074004430
         N            3.047873371162     0.723021501568    -0.291812920472    14.003074004430
         N            4.707110371162    -0.834136498432    -0.570383920472    14.003074004430
         C           -1.298836628838     1.080948501568    -0.590162920472    12.000000000000
         C           -2.724523628838     0.657725501568    -0.255478920472    12.000000000000
         C           -0.534760628838     0.484038501568     0.602008079528    12.000000000000
         C           -2.538608628838    -0.714367498432     0.362970079528    12.000000000000
         C           -2.537696628838    -1.847874498432    -0.637375920472    12.000000000000
         C            1.210422371162    -1.258889498432     0.313188079528    12.000000000000
         C            1.746241371162     1.069953501568    -0.057488920472    12.000000000000
         C            2.691205071162    -1.657638898432     0.010135479528    12.000000000000
         C            3.402630371162    -0.548134498432    -0.257010920472    12.000000000000
         H           -0.946958628838     0.593922501568    -1.512976920472     1.007825032230
         H           -3.371934628838     0.645183501568    -1.144550920472     1.007825032230
         H           -0.449642628838     1.224398501568     1.405912079528     1.007825032230
         H           -3.291309628838    -0.906215498432     1.132697079528     1.007825032230
         H           -1.722660628838    -1.697786498432    -1.367549920472     1.007825032230
         H           -3.494913628838    -1.831485498432    -1.182220920472     1.007825032230
         H           -0.306877628838     2.715697501568    -0.523085920472     1.007825032230
         H           -2.856908628838     2.402261501568     0.510577079528     1.007825032230
         H            0.424958371162    -1.960918498432     0.570982079528     1.007825032230
         H           -2.443226628838    -3.795913498432    -0.541318920472     1.007825032230
         H            2.819759371162    -2.642879498432     0.075836079528     1.007825032230
         H            5.115827371162    -1.668342498432    -0.160499920472     1.007825032230
         H            5.310461371162    -0.017535498432    -0.566379920472     1.007825032230

  Basis Set: AUG-CC-PVTZ
    Blend: AUG-CC-PVTZ
  Basis Set: (AUG-CC-PVTZ AUX)
    Blend: AUG-CC-PVTZ-JKFIT
	 Reference Energy          =    -886.3224043543488051 [Eh]
	 Singles Energy            =      -0.0000000000000000 [Eh]
	 Same-Spin Energy          =      -0.9034284251213075 [Eh]
	 Opposite-Spin Energy      =      -2.7185741060460282 [Eh]
	 Correlation Energy        =      -3.6220025311673356 [Eh]
	 Total Energy              =    -889.9444068855161731 [Eh]

	 ================> DF-SCS-MP2 Energies <==================
	-----------------------------------------------------------
	 SCS Same-Spin Scale       =       0.3333333333333333 [-]
	 SCS Opposite-Spin Scale   =       1.2000000000000000 [-]
	 SCS Same-Spin Energy      =      -0.3011428083737692 [Eh]
	 SCS Opposite-Spin Energy  =      -3.2622889272552338 [Eh]
	 SCS Correlation Energy    =      -3.5634317356290031 [Eh]
	 SCS Total Energy          =    -889.8858360899778290 [Eh]
	-----------------------------------------------------------

  Dipole Moment: [D]
     X:     0.9023      Y:    -5.8905      Z:    -1.6913     Total:     6.1946

*** Psi4 exiting successfully. Buy a developer a beer!
