                               Psi4 1.3.2 release

  ==> Input File <==

--------------------------------------------------------------------------
#psi4
#
memory 32 gb

molecule  {
0 1
  O       -1.2481010    -0.6526680     1.0325150
  O       -1.2449750     2.4828510    -0.6861630
  O       -3.2165300     1.5210990     0.7448870
  O       -2.3570290    -3.0668370     0.0949400
  O        1.3605300     2.2470340    -0.0765420
  N        0.7907556     0.0964095     0.2609833
  N        3.0716616     0.7896957    -0.3050496
  N        4.7164630    -0.8366550    -0.5722980
  C       -1.2894840     1.0784300    -0.5920770
  C       -2.7151710     0.6552070    -0.2573930
  C       -0.5254080     0.4815200     0.6000940
  C       -2.5292560    -0.7168860     0.3610560
  C       -2.5283440    -1.8503930    -0.6392900
  C        1.2197750    -1.2614080     0.3112740
  C        1.7555940     1.0674350    -0.0594030
  C        2.5111010    -1.6091400     0.0469950
  C        3.4119830    -0.5506530    -0.2589250
  H       -0.9376060     0.5914040    -1.5148910
  H       -3.3625820     0.6426650    -1.1464650
  H       -0.4402900     1.2218800     1.4039980
  H       -3.2819570    -0.9087340     1.1307830
  H       -1.7133080    -1.7003050    -1.3694640
  H       -3.4855610    -1.8340040    -1.1841350
  H       -0.2975250     2.7131790    -0.5250000
  H       -2.8475560     2.3997430     0.5086630
  H        0.4343110    -1.9634370     0.5690680
  H       -2.4338740    -3.7984320    -0.5432330
  H        2.8291120    -2.6453980     0.0739220
  H        5.1251800    -1.6708610    -0.1624140
  H        5.3198140    -0.0200540    -0.5682940
units angstrom
no_reorient  #important for SAPT in psi4, default
symmetry c1  #important for SAPT in psi4, default
}

set PROPERTIES_ORIGIN ["COM"]
properties('MP2/aug-cc-pvtz', properties = ['dipole'])
--------------------------------------------------------------------------

    Molecular point group: c1
  Charge       = 0
  Multiplicity = 1
  Basis Set: AUG-CC-PVTZ
    Blend: AUG-CC-PVTZ
  Basis Set: (AUG-CC-PVTZ AUX)
    Blend: AUG-CC-PVTZ-JKFIT

    Orbital Energies [Eh]
    ---------------------

    Doubly Occupied:

       1A    -20.581734     2A    -20.579620     3A    -20.555043
       4A    -20.553155     5A    -20.510762     6A    -15.636112
       7A    -15.609399     8A    -15.562818     9A    -11.381663
      10A    -11.371305    11A    -11.339523    12A    -11.333845
      13A    -11.300173    14A    -11.295180    15A    -11.291876
      16A    -11.289869    17A    -11.259679    18A     -1.428653
      19A     -1.391506    20A     -1.377530    21A     -1.371445
      22A     -1.342860    23A     -1.295700    24A     -1.270317
      25A     -1.178309    26A     -1.088610    27A     -1.065615
      28A     -1.018811    29A     -0.936896    30A     -0.907941
      31A     -0.868424    32A     -0.832712    33A     -0.810442
      34A     -0.769309    35A     -0.748403    36A     -0.734256
      37A     -0.721855    38A     -0.703138    39A     -0.696561
      40A     -0.686171    41A     -0.672835    42A     -0.652996
      43A     -0.648505    44A     -0.636424    45A     -0.621724
      46A     -0.613926    47A     -0.604709    48A     -0.585526
      49A     -0.573828    50A     -0.568252    51A     -0.552536
      52A     -0.545165    53A     -0.534981    54A     -0.530435
      55A     -0.490797    56A     -0.475850    57A     -0.470962
      58A     -0.460631    59A     -0.456039    60A     -0.449853
      61A     -0.443149    62A     -0.434137    63A     -0.389634
      64A     -0.354484

  @DF-RHF Final Energy:  -886.35762379635548

   => Energetics <=

    Nuclear Repulsion Energy =           1322.5123842747434537
    One-Electron Energy =               -3842.8108228903834060
    Two-Electron Energy =                1633.9408148192844692
    Total Energy =                       -886.3576237963554831
  Basis Set: (AUG-CC-PVTZ AUX)
    Blend: AUG-CC-PVTZ-RI
    Molecular point group: c1

    Geometry (in Angstrom), charge = 0, multiplicity = 1:

       Center              X                  Y                   Z               Mass
    ------------   -----------------  -----------------  -----------------  -----------------
         O           -1.245899764749    -0.659602499340     1.032876902799    15.994914619570
         O           -1.242773764749     2.475916500660    -0.685801097201    15.994914619570
         O           -3.214328764749     1.514164500660     0.745248902799    15.994914619570
         O           -2.354827764749    -3.073771499340     0.095301902799    15.994914619570
         O            1.362731235251     2.240099500660    -0.076180097201    15.994914619570
         N            0.792956835251     0.089475000660     0.261345202799    14.003074004430
         N            3.073862835251     0.782761200660    -0.304687697201    14.003074004430
         N            4.718664235251    -0.843589499340    -0.571936097201    14.003074004430
         C           -1.287282764749     1.071495500660    -0.591715097201    12.000000000000
         C           -2.712969764749     0.648272500660    -0.257031097201    12.000000000000
         C           -0.523206764749     0.474585500660     0.600455902799    12.000000000000
         C           -2.527054764749    -0.723820499340     0.361417902799    12.000000000000
         C           -2.526142764749    -1.857327499340    -0.638928097201    12.000000000000
         C            1.221976235251    -1.268342499340     0.311635902799    12.000000000000
         C            1.757795235251     1.060500500660    -0.059041097201    12.000000000000
         C            2.513302235251    -1.616074499340     0.047356902799    12.000000000000
         C            3.414184235251    -0.557587499340    -0.258563097201    12.000000000000
         H           -0.935404764749     0.584469500660    -1.514529097201     1.007825032230
         H           -3.360380764749     0.635730500660    -1.146103097201     1.007825032230
         H           -0.438088764749     1.214945500660     1.404359902799     1.007825032230
         H           -3.279755764749    -0.915668499340     1.131144902799     1.007825032230
         H           -1.711106764749    -1.707239499340    -1.369102097201     1.007825032230
         H           -3.483359764749    -1.840938499340    -1.183773097201     1.007825032230
         H           -0.295323764749     2.706244500660    -0.524638097201     1.007825032230
         H           -2.845354764749     2.392808500660     0.509024902799     1.007825032230
         H            0.436512235251    -1.970371499340     0.569429902799     1.007825032230
         H           -2.431672764749    -3.805366499340    -0.542871097201     1.007825032230
         H            2.831313235251    -2.652332499340     0.074283902799     1.007825032230
         H            5.127381235251    -1.677795499340    -0.162052097201     1.007825032230
         H            5.322015235251    -0.026988499340    -0.567932097201     1.007825032230

  Basis Set: AUG-CC-PVTZ
    Blend: AUG-CC-PVTZ
  Basis Set: (AUG-CC-PVTZ AUX)
    Blend: AUG-CC-PVTZ-JKFIT
	 Reference Energy          =    -886.3576237963554831 [Eh]
	 Singles Energy            =      -0.0000000000000000 [Eh]
	 Same-Spin Energy          =      -0.9016741888085117 [Eh]
	 Opposite-Spin Energy      =      -2.7171659870309446 [Eh]
	 Correlation Energy        =      -3.6188401758394564 [Eh]
	 Total Energy              =    -889.9764639721948924 [Eh]

	 ================> DF-SCS-MP2 Energies <==================
	-----------------------------------------------------------
	 SCS Same-Spin Scale       =       0.3333333333333333 [-]
	 SCS Opposite-Spin Scale   =       1.2000000000000000 [-]
	 SCS Same-Spin Energy      =      -0.3005580629361705 [Eh]
	 SCS Opposite-Spin Energy  =      -3.2605991844371336 [Eh]
	 SCS Correlation Energy    =      -3.5611572473733042 [Eh]
	 SCS Total Energy          =    -889.9187810437288135 [Eh]
	-----------------------------------------------------------

  Dipole Moment: [D]
     X:     2.2004      Y:    -6.3856      Z:    -1.8620     Total:     7.0060

*** Psi4 exiting successfully. Buy a developer a beer!
