                               Psi4 1.3.2 release

  ==> Input File <==

--------------------------------------------------------------------------
#psi4
#
memory 32 gb

molecule  {
0 1
  O       -1.2481010    -0.6526680     1.0325150
  O       -1.2449750     2.4828510    -0.6861630
  O       -3.2165300     1.5210990     0.7448870
  O       -2.3570290    -3.0668370     0.0949400
  O        1.3605300     2.2470340    -0.0765420
  N        0.8434040     0.0452230     0.2559430
  N        3.0572260     0.7205030    -0.2937270
  N        4.7164630    -0.8366550    -0.5722980
  C       -1.2907980     1.0899734    -0.5853798
  C       -2.7151710     0.6552070    -0.2573930
  C       -0.5254080     0.4815200     0.6000940
  C       -2.5292560    -0.7168860     0.3610560
  C       -2.5283440    -1.8503930    -0.6392900
  C        1.2197750    -1.2614080     0.3112740
  C        1.7555940     1.0674350    -0.0594030
  C        2.5111010    -1.6091400     0.0469950
  C        3.4119830    -0.5506530    -0.2589250
  H       -0.9376060     0.5914040    -1.5148910
  H       -3.3625820     0.6426650    -1.1464650
  H       -0.4450880     1.2281874     1.3986403
  H       -3.2819570    -0.9087340     1.1307830
  H       -1.7133080    -1.7003050    -1.3694640
  H       -3.4855610    -1.8340040    -1.1841350
  H       -0.2975250     2.7131790    -0.5250000
  H       -2.8475560     2.3997430     0.5086630
  H        0.4343110    -1.9634370     0.5690680
  H       -2.4338740    -3.7984320    -0.5432330
  H        2.8291120    -2.6453980     0.0739220
  H        5.1251800    -1.6708610    -0.1624140
  H        5.3198140    -0.0200540    -0.5682940
units angstrom
no_reorient  #important for SAPT in psi4, default
symmetry c1  #important for SAPT in psi4, default
}

set PROPERTIES_ORIGIN ["COM"]
properties('MP2/aug-cc-pvtz', properties = ['dipole'])
--------------------------------------------------------------------------

    Molecular point group: c1
  Charge       = 0
  Multiplicity = 1
  Basis Set: AUG-CC-PVTZ
    Blend: AUG-CC-PVTZ
  Basis Set: (AUG-CC-PVTZ AUX)
    Blend: AUG-CC-PVTZ-JKFIT

    Orbital Energies [Eh]
    ---------------------

    Doubly Occupied:

       1A    -20.582124     2A    -20.581742     3A    -20.558326
       4A    -20.557560     5A    -20.522198     6A    -15.637111
       7A    -15.599878     8A    -15.553395     9A    -11.388389
      10A    -11.357898    11A    -11.341297    12A    -11.328557
      13A    -11.301002    14A    -11.296954    15A    -11.296914
      16A    -11.292707    17A    -11.248576    18A     -1.429545
      19A     -1.396483    20A     -1.382196    21A     -1.373188
      22A     -1.348251    23A     -1.306152    24A     -1.273806
      25A     -1.182284    26A     -1.081930    27A     -1.067146
      28A     -1.021088    29A     -0.935332    30A     -0.909455
      31A     -0.877292    32A     -0.831958    33A     -0.811768
      34A     -0.766933    35A     -0.752695    36A     -0.736825
      37A     -0.720097    38A     -0.703277    39A     -0.698334
      40A     -0.685704    41A     -0.672908    42A     -0.654514
      43A     -0.651716    44A     -0.638407    45A     -0.620983
      46A     -0.615118    47A     -0.606647    48A     -0.594489
      49A     -0.575974    50A     -0.569784    51A     -0.554916
      52A     -0.545675    53A     -0.538545    54A     -0.531950
      55A     -0.498264    56A     -0.477500    57A     -0.473833
      58A     -0.462294    59A     -0.460170    60A     -0.451233
      61A     -0.440117    62A     -0.433088    63A     -0.395146
      64A     -0.350026

  @DF-RHF Final Energy:  -886.37336068498621

   => Energetics <=

    Nuclear Repulsion Energy =           1323.7696735495910616
    One-Electron Energy =               -3845.1867478477433906
    Two-Electron Energy =                1635.0437136131661191
    Total Energy =                       -886.3733606849862099
  Basis Set: (AUG-CC-PVTZ AUX)
    Blend: AUG-CC-PVTZ-RI
    Molecular point group: c1

    Geometry (in Angstrom), charge = 0, multiplicity = 1:

       Center              X                  Y                   Z               Mass
    ------------   -----------------  -----------------  -----------------  -----------------
         O           -1.248016275517    -0.653263984042     1.032206610766    15.994914619570
         O           -1.244890275517     2.482255015958    -0.686471389234    15.994914619570
         O           -3.216445275517     1.520503015958     0.744578610766    15.994914619570
         O           -2.356944275517    -3.067432984042     0.094631610766    15.994914619570
         O            1.360614724483     2.246438015958    -0.076850389234    15.994914619570
         N            0.843488724483     0.044627015958     0.255634610766    14.003074004430
         N            3.057310724483     0.719907015958    -0.294035389234    14.003074004430
         N            4.716547724483    -0.837250984042    -0.572606389234    14.003074004430
         C           -1.290713275517     1.089377415958    -0.585688189234    12.000000000000
         C           -2.715086275517     0.654611015958    -0.257701389234    12.000000000000
         C           -0.525323275517     0.480924015958     0.599785610766    12.000000000000
         C           -2.529171275517    -0.717481984042     0.360747610766    12.000000000000
         C           -2.528259275517    -1.850988984042    -0.639598389234    12.000000000000
         C            1.219859724483    -1.262003984042     0.310965610766    12.000000000000
         C            1.755678724483     1.066839015958    -0.059711389234    12.000000000000
         C            2.511185724483    -1.609735984042     0.046686610766    12.000000000000
         C            3.412067724483    -0.551248984042    -0.259233389234    12.000000000000
         H           -0.937521275517     0.590808015958    -1.515199389234     1.007825032230
         H           -3.362497275517     0.642069015958    -1.146773389234     1.007825032230
         H           -0.445003275517     1.227591415958     1.398331910766     1.007825032230
         H           -3.281872275517    -0.909329984042     1.130474610766     1.007825032230
         H           -1.713223275517    -1.700900984042    -1.369772389234     1.007825032230
         H           -3.485476275517    -1.834599984042    -1.184443389234     1.007825032230
         H           -0.297440275517     2.712583015958    -0.525308389234     1.007825032230
         H           -2.847471275517     2.399147015958     0.508354610766     1.007825032230
         H            0.434395724483    -1.964032984042     0.568759610766     1.007825032230
         H           -2.433789275517    -3.799027984042    -0.543541389234     1.007825032230
         H            2.829196724483    -2.645993984042     0.073613610766     1.007825032230
         H            5.125264724483    -1.671456984042    -0.162722389234     1.007825032230
         H            5.319898724483    -0.020649984042    -0.568602389234     1.007825032230

  Basis Set: AUG-CC-PVTZ
    Blend: AUG-CC-PVTZ
  Basis Set: (AUG-CC-PVTZ AUX)
    Blend: AUG-CC-PVTZ-JKFIT
	 Reference Energy          =    -886.3733606849862099 [Eh]
	 Singles Energy            =      -0.0000000000000000 [Eh]
	 Same-Spin Energy          =      -0.9012539585923168 [Eh]
	 Opposite-Spin Energy      =      -2.7147995389371031 [Eh]
	 Correlation Energy        =      -3.6160534975294198 [Eh]
	 Total Energy              =    -889.9894141825155884 [Eh]

	 ================> DF-SCS-MP2 Energies <==================
	-----------------------------------------------------------
	 SCS Same-Spin Scale       =       0.3333333333333333 [-]
	 SCS Opposite-Spin Scale   =       1.2000000000000000 [-]
	 SCS Same-Spin Energy      =      -0.3004179861974389 [Eh]
	 SCS Opposite-Spin Energy  =      -3.2577594467245237 [Eh]
	 SCS Correlation Energy    =      -3.5581774329219624 [Eh]
	 SCS Total Energy          =    -889.9315381179081896 [Eh]
	-----------------------------------------------------------

  Dipole Moment: [D]
     X:     1.7145      Y:    -5.9187      Z:    -1.8197     Total:     6.4251

*** Psi4 exiting successfully. Buy a developer a beer!
