                               Psi4 1.4a3.dev225

  ==> Input File <==

--------------------------------------------------------------------------
#psi4
#
memory 32 gb

molecule  {
0 1
  O       -1.3191770     0.6538360    -1.0992360
  O       -1.5735610    -2.4640850     0.5135810
  O       -3.5606630    -1.0699430    -0.4600060
  O       -1.4399290     3.1254620     0.1265180
  O        1.1065530    -2.3833650     0.0076020
  N        0.7686360    -0.1579440    -0.3706350
  N        2.9363770    -0.9938720     0.1460080
  N        4.7058880     0.4431110     0.3611260
  C       -1.3768610    -1.0680440     0.5552780
  C       -2.7379840    -0.3746360     0.4578480
  C       -0.6377490    -0.5042940    -0.6790150
  C       -2.3707440     0.9655450    -0.1585060
  C       -1.9153006     1.9497620     0.8827464
  C        1.2309690     1.1190800    -0.4442230
  C        1.6104480    -1.2470590    -0.0585760
  C        2.5474650     1.3753690    -0.1998620
  C        3.3802090     0.2523040     0.0808410
  H       -0.8441360    -0.7686950     1.4698480
  H       -3.2257400    -0.2778790     1.4400230
  H       -0.6227070    -1.2428120    -1.4883720
  H       -3.1941750     1.3785730    -0.7472070
  H       -1.0952130     1.5703990     1.4802000
  H       -2.7410530     2.2466610     1.5166010
  H       -0.6710550    -2.8260740     0.3542250
  H       -3.3063470    -2.0105220    -0.3629290
  H        0.4929290     1.8778260    -0.6840360
  H       -1.2098800     3.8154810     0.7720340
  H        2.9334840     2.3875570    -0.2389120
  H        5.1589650     1.2712730    -0.0008400
  H        5.2635310    -0.4031270     0.3606700
units angstrom
no_reorient  #important for SAPT in psi4, default
symmetry c1  #important for SAPT in psi4, default
}

set PROPERTIES_ORIGIN ["COM"]
properties('MP2/aug-cc-pvtz', properties = ['dipole'])
--------------------------------------------------------------------------

    Molecular point group: c1
  Charge       = 0
  Multiplicity = 1
  Basis Set: AUG-CC-PVTZ
    Blend: AUG-CC-PVTZ
  Basis Set: (AUG-CC-PVTZ AUX)
    Blend: AUG-CC-PVTZ-JKFIT

    Orbital Energies [Eh]
    ---------------------

    Doubly Occupied:

       1A    -20.582730     2A    -20.581547     3A    -20.559973
       4A    -20.556749     5A    -20.519953     6A    -15.633214
       7A    -15.599697     8A    -15.551851     9A    -11.386159
      10A    -11.358106    11A    -11.340223    12A    -11.324894
      13A    -11.303314    14A    -11.298917    15A    -11.297768
      16A    -11.293809    17A    -11.246479    18A     -1.429606
      19A     -1.393482    20A     -1.379000    21A     -1.362684
      22A     -1.347008    23A     -1.303788    24A     -1.271508
      25A     -1.181306    26A     -1.079528    27A     -1.072535
      28A     -1.018314    29A     -0.938423    30A     -0.907063
      31A     -0.877272    32A     -0.830695    33A     -0.814057
      34A     -0.766793    35A     -0.750197    36A     -0.734727
      37A     -0.720621    38A     -0.705052    39A     -0.699034
      40A     -0.684724    41A     -0.675840    42A     -0.653833
      43A     -0.649191    44A     -0.633447    45A     -0.620276
      46A     -0.613975    47A     -0.607098    48A     -0.593051
      49A     -0.573138    50A     -0.564665    51A     -0.553501
      52A     -0.547959    53A     -0.537069    54A     -0.531992
      55A     -0.496241    56A     -0.483996    57A     -0.474793
      58A     -0.465743    59A     -0.458269    60A     -0.454131
      61A     -0.443188    62A     -0.430626    63A     -0.392433
      64A     -0.348336

  @DF-RHF Final Energy:  -886.37119416819337

   => Energetics <=

    Nuclear Repulsion Energy =           1334.4566129994057064
    One-Electron Energy =               -3866.6444396019678607
    Two-Electron Energy =                1645.8166324343690121
    Total Energy =                       -886.3711941681933695
  Basis Set: (AUG-CC-PVTZ AUX)
    Blend: AUG-CC-PVTZ-RI
    Molecular point group: c1

    Geometry (in Angstrom), charge = 0, multiplicity = 1:

       Center              X                  Y                   Z               Mass
    ------------   -----------------  -----------------  -----------------  -----------------
         O           -1.331125991258     0.684412849132    -1.084719956533    15.994914619570
         O           -1.585509991258    -2.433508150868     0.528097043467    15.994914619570
         O           -3.572611991258    -1.039366150868    -0.445489956533    15.994914619570
         O           -1.451877991258     3.156038849132     0.141034043467    15.994914619570
         O            1.094604008742    -2.352788150868     0.022118043467    15.994914619570
         N            0.756687008742    -0.127367150868    -0.356118956533    14.003074004430
         N            2.924428008742    -0.963295150868     0.160524043467    14.003074004430
         N            4.693939008742     0.473687849132     0.375642043467    14.003074004430
         C           -1.388809991258    -1.037467150868     0.569794043467    12.000000000000
         C           -2.749932991258    -0.344059150868     0.472364043467    12.000000000000
         C           -0.649697991258    -0.473717150868    -0.664498956533    12.000000000000
         C           -2.382692991258     0.996121849132    -0.143989956533    12.000000000000
         C           -1.927249591258     1.980338849132     0.897262443467    12.000000000000
         C            1.219020008742     1.149656849132    -0.429706956533    12.000000000000
         C            1.598499008742    -1.216482150868    -0.044059956533    12.000000000000
         C            2.535516008742     1.405945849132    -0.185345956533    12.000000000000
         C            3.368260008742     0.282880849132     0.095357043467    12.000000000000
         H           -0.856084991258    -0.738118150868     1.484364043467     1.007825032230
         H           -3.237688991258    -0.247302150868     1.454539043467     1.007825032230
         H           -0.634655991258    -1.212235150868    -1.473855956533     1.007825032230
         H           -3.206123991258     1.409149849132    -0.732690956533     1.007825032230
         H           -1.107161991258     1.600975849132     1.494716043467     1.007825032230
         H           -2.753001991258     2.277237849132     1.531117043467     1.007825032230
         H           -0.683003991258    -2.795497150868     0.368741043467     1.007825032230
         H           -3.318295991258    -1.979945150868    -0.348412956533     1.007825032230
         H            0.480980008742     1.908402849132    -0.669519956533     1.007825032230
         H           -1.221828991258     3.846057849132     0.786550043467     1.007825032230
         H            2.921535008742     2.418133849132    -0.224395956533     1.007825032230
         H            5.147016008742     1.301849849132     0.013676043467     1.007825032230
         H            5.251582008742    -0.372550150868     0.375186043467     1.007825032230

  Basis Set: AUG-CC-PVTZ
    Blend: AUG-CC-PVTZ
  Basis Set: (AUG-CC-PVTZ AUX)
    Blend: AUG-CC-PVTZ-JKFIT
	 Reference Energy          =    -886.3711941681933695 [Eh]
	 Singles Energy            =      -0.0000000000000000 [Eh]
	 Same-Spin Energy          =      -0.9020365139299863 [Eh]
	 Opposite-Spin Energy      =      -2.7168880520760155 [Eh]
	 Correlation Energy        =      -3.6189245660060019 [Eh]
	 Total Energy              =    -889.9901187341994273 [Eh]

	 ================> DF-SCS-MP2 Energies <==================
	-----------------------------------------------------------
	 SCS Same-Spin Scale       =       0.3333333333333333 [-]
	 SCS Opposite-Spin Scale   =       1.2000000000000000 [-]
	 SCS Same-Spin Energy      =      -0.3006788379766621 [Eh]
	 SCS Opposite-Spin Energy  =      -3.2602656624912183 [Eh]
	 SCS Correlation Energy    =      -3.5609445004678806 [Eh]
	 SCS Total Energy          =    -889.9321386686611959 [Eh]
	-----------------------------------------------------------

  Dipole Moment: [D]
     X:     2.6928      Y:     5.6536      Z:     2.0094     Total:     6.5766

*** Psi4 exiting successfully. Buy a developer a beer!
