                               Psi4 1.3.2 release

  ==> Input File <==

--------------------------------------------------------------------------
#psi4
#
memory 32 gb

molecule  {
0 1
  O       -1.2481010    -0.6526680     1.0325150
  O       -1.2449750     2.4828510    -0.6861630
  O       -3.2165300     1.5210990     0.7448870
  O       -2.3570290    -3.0668370     0.0949400
  O        1.3605300     2.2470340    -0.0765420
  N        0.8434040     0.0452230     0.2559430
  N        3.0572260     0.7205030    -0.2937270
  N        4.7164630    -0.8366550    -0.5722980
  C       -1.2894840     1.0784300    -0.5920770
  C       -2.7151710     0.6552070    -0.2573930
  C       -0.5254080     0.4815200     0.6000940
  C       -2.5292560    -0.7168860     0.3610560
  C       -2.5283440    -1.8503930    -0.6392900
  C        1.2197750    -1.2614080     0.3112740
  C        1.7555940     1.0674350    -0.0594030
  C        2.5111010    -1.6091400     0.0469950
  C        3.4119830    -0.5506530    -0.2589250
  H       -0.9376060     0.5914040    -1.5148910
  H       -3.3625820     0.6426650    -1.1464650
  H       -0.4402900     1.2218800     1.4039980
  H       -3.2819570    -0.9087340     1.1307830
  H       -1.7133080    -1.7003050    -1.3694640
  H       -3.4855610    -1.8340040    -1.1841350
  H       -0.2975250     2.7131790    -0.5250000
  H       -2.8475560     2.3997430     0.5086630
  H        0.4343110    -1.9634370     0.5690680
  H       -2.4338740    -3.7984320    -0.5432330
  H        2.8291120    -2.6453980     0.0739220
  H        5.1693145    -1.6428285    -0.1528174
  H        5.3571696    -0.0495009    -0.5445659
units angstrom
no_reorient  #important for SAPT in psi4, default
symmetry c1  #important for SAPT in psi4, default
}

set PROPERTIES_ORIGIN ["COM"]
properties('MP2/aug-cc-pvtz', properties = ['dipole'])
--------------------------------------------------------------------------

    Molecular point group: c1
  Charge       = 0
  Multiplicity = 1
  Basis Set: AUG-CC-PVTZ
    Blend: AUG-CC-PVTZ
  Basis Set: (AUG-CC-PVTZ AUX)
    Blend: AUG-CC-PVTZ-JKFIT

    Orbital Energies [Eh]
    ---------------------

    Doubly Occupied:

       1A    -20.582235     2A    -20.581650     3A    -20.557806
       4A    -20.557268     5A    -20.522077     6A    -15.637155
       7A    -15.599456     8A    -15.553718     9A    -11.388342
      10A    -11.359187    11A    -11.341625    12A    -11.328546
      13A    -11.301183    14A    -11.296945    15A    -11.296690
      16A    -11.292986    17A    -11.248689    18A     -1.429416
      19A     -1.396461    20A     -1.380135    21A     -1.372818
      22A     -1.346325    23A     -1.305841    24A     -1.273455
      25A     -1.182579    26A     -1.082082    27A     -1.067757
      28A     -1.021609    29A     -0.936152    30A     -0.909441
      31A     -0.878618    32A     -0.832988    33A     -0.811722
      34A     -0.764733    35A     -0.752388    36A     -0.736341
      37A     -0.723604    38A     -0.703447    39A     -0.698542
      40A     -0.680526    41A     -0.672834    42A     -0.654041
      43A     -0.651571    44A     -0.638267    45A     -0.619956
      46A     -0.614228    47A     -0.606815    48A     -0.593982
      49A     -0.575766    50A     -0.569736    51A     -0.554067
      52A     -0.545690    53A     -0.537571    54A     -0.531853
      55A     -0.498122    56A     -0.477511    57A     -0.474466
      58A     -0.462241    59A     -0.460065    60A     -0.452861
      61A     -0.440727    62A     -0.433295    63A     -0.395898
      64A     -0.349951

  @DF-RHF Final Energy:  -886.37234079789869

   => Energetics <=

    Nuclear Repulsion Energy =           1323.5341598649999924
    One-Electron Energy =               -3844.7248964867276300
    Two-Electron Energy =                1634.8183958238287232
    Total Energy =                       -886.3723407978986870
  Basis Set: (AUG-CC-PVTZ AUX)
    Blend: AUG-CC-PVTZ-RI
    Molecular point group: c1

    Geometry (in Angstrom), charge = 0, multiplicity = 1:

       Center              X                  Y                   Z               Mass
    ------------   -----------------  -----------------  -----------------  -----------------
         O           -1.248438889365    -0.652662125803     1.032376844308    15.994914619570
         O           -1.245312889365     2.482856874197    -0.686301155692    15.994914619570
         O           -3.216867889365     1.521104874197     0.744748844308    15.994914619570
         O           -2.357366889365    -3.066831125803     0.094801844308    15.994914619570
         O            1.360192110635     2.247039874197    -0.076680155692    15.994914619570
         N            0.843066110635     0.045228874197     0.255804844308    14.003074004430
         N            3.056888110635     0.720508874197    -0.293865155692    14.003074004430
         N            4.716125110635    -0.836649125803    -0.572436155692    14.003074004430
         C           -1.289821889365     1.078435874197    -0.592215155692    12.000000000000
         C           -2.715508889365     0.655212874197    -0.257531155692    12.000000000000
         C           -0.525745889365     0.481525874197     0.599955844308    12.000000000000
         C           -2.529593889365    -0.716880125803     0.360917844308    12.000000000000
         C           -2.528681889365    -1.850387125803    -0.639428155692    12.000000000000
         C            1.219437110635    -1.261402125803     0.311135844308    12.000000000000
         C            1.755256110635     1.067440874197    -0.059541155692    12.000000000000
         C            2.510763110635    -1.609134125803     0.046856844308    12.000000000000
         C            3.411645110635    -0.550647125803    -0.259063155692    12.000000000000
         H           -0.937943889365     0.591409874197    -1.515029155692     1.007825032230
         H           -3.362919889365     0.642670874197    -1.146603155692     1.007825032230
         H           -0.440627889365     1.221885874197     1.403859844308     1.007825032230
         H           -3.282294889365    -0.908728125803     1.130644844308     1.007825032230
         H           -1.713645889365    -1.700299125803    -1.369602155692     1.007825032230
         H           -3.485898889365    -1.833998125803    -1.184273155692     1.007825032230
         H           -0.297862889365     2.713184874197    -0.525138155692     1.007825032230
         H           -2.847893889365     2.399748874197     0.508524844308     1.007825032230
         H            0.433973110635    -1.963431125803     0.568929844308     1.007825032230
         H           -2.434211889365    -3.798426125803    -0.543371155692     1.007825032230
         H            2.828774110635    -2.645392125803     0.073783844308     1.007825032230
         H            5.168976610635    -1.642822625803    -0.152955555692     1.007825032230
         H            5.356831710635    -0.049495025803    -0.544704055692     1.007825032230

  Basis Set: AUG-CC-PVTZ
    Blend: AUG-CC-PVTZ
  Basis Set: (AUG-CC-PVTZ AUX)
    Blend: AUG-CC-PVTZ-JKFIT
	 Reference Energy          =    -886.3723407978986870 [Eh]
	 Singles Energy            =      -0.0000000000000000 [Eh]
	 Same-Spin Energy          =      -0.9012342292934813 [Eh]
	 Opposite-Spin Energy      =      -2.7149895800730484 [Eh]
	 Correlation Energy        =      -3.6162238093665295 [Eh]
	 Total Energy              =    -889.9885646072651753 [Eh]

	 ================> DF-SCS-MP2 Energies <==================
	-----------------------------------------------------------
	 SCS Same-Spin Scale       =       0.3333333333333333 [-]
	 SCS Opposite-Spin Scale   =       1.2000000000000000 [-]
	 SCS Same-Spin Energy      =      -0.3004114097644938 [Eh]
	 SCS Opposite-Spin Energy  =      -3.2579874960876580 [Eh]
	 SCS Correlation Energy    =      -3.5583989058521519 [Eh]
	 SCS Total Energy          =    -889.9307397037508736 [Eh]
	-----------------------------------------------------------

  Dipole Moment: [D]
     X:     1.7353      Y:    -5.9343      Z:    -1.7679     Total:     6.4306

*** Psi4 exiting successfully. Buy a developer a beer!
