                               Psi4 1.4a3.dev225

  ==> Input File <==

--------------------------------------------------------------------------
#psi4
#
memory 32 gb

molecule  {
0 1
  O       -1.3191770     0.6538360    -1.0992360
  O       -1.5735610    -2.4640850     0.5135810
  O       -3.5606630    -1.0699430    -0.4600060
  O       -1.4399290     3.1254620     0.1265180
  O        1.1065530    -2.3833650     0.0076020
  N        0.7686360    -0.1579440    -0.3706350
  N        2.9363770    -0.9938720     0.1460080
  N        4.7058880     0.4431110     0.3611260
  C       -1.3768610    -1.0680440     0.5552780
  C       -2.7379840    -0.3746360     0.4578480
  C       -0.6377490    -0.5042940    -0.6790150
  C       -2.3707440     0.9655450    -0.1585060
  C       -1.8992030     1.9895750     0.8571380
  C        1.2309690     1.1190800    -0.4442230
  C        1.6104480    -1.2470590    -0.0585760
  C        2.5957488     1.3847687    -0.1908998
  C        3.3802090     0.2523040     0.0808410
  H       -0.8441360    -0.7686950     1.4698480
  H       -3.2257400    -0.2778790     1.4400230
  H       -0.6227070    -1.2428120    -1.4883720
  H       -3.1941750     1.3785730    -0.7472070
  H       -1.0952130     1.5703990     1.4802000
  H       -2.7410530     2.2466610     1.5166010
  H       -0.6710550    -2.8260740     0.3542250
  H       -3.3063470    -2.0105220    -0.3629290
  H        0.4929290     1.8778260    -0.6840360
  H       -1.2098800     3.8154810     0.7720340
  H        2.9334840     2.3875570    -0.2389120
  H        5.1589650     1.2712730    -0.0008400
  H        5.2635310    -0.4031270     0.3606700
units angstrom
no_reorient  #important for SAPT in psi4, default
symmetry c1  #important for SAPT in psi4, default
}

set PROPERTIES_ORIGIN ["COM"]
properties('MP2/aug-cc-pvtz', properties = ['dipole'])
--------------------------------------------------------------------------

    Molecular point group: c1
  Charge       = 0
  Multiplicity = 1
  Basis Set: AUG-CC-PVTZ
    Blend: AUG-CC-PVTZ
  Basis Set: (AUG-CC-PVTZ AUX)
    Blend: AUG-CC-PVTZ-JKFIT

    Orbital Energies [Eh]
    ---------------------

    Doubly Occupied:

       1A    -20.587866     2A    -20.583150     3A    -20.560459
       4A    -20.557478     5A    -20.520036     6A    -15.638478
       7A    -15.594766     8A    -15.550412     9A    -11.386357
      10A    -11.353608    11A    -11.341747    12A    -11.335286
      13A    -11.304699    14A    -11.299217    15A    -11.298568
      16A    -11.294741    17A    -11.246386    18A     -1.430931
      19A     -1.394870    20A     -1.384111    21A     -1.376767
      22A     -1.347604    23A     -1.302971    24A     -1.271735
      25A     -1.179464    26A     -1.073791    27A     -1.069376
      28A     -1.018844    29A     -0.938285    30A     -0.910799
      31A     -0.875366    32A     -0.830748    33A     -0.813343
      34A     -0.764473    35A     -0.751913    36A     -0.736660
      37A     -0.721333    38A     -0.709053    39A     -0.704187
      40A     -0.684628    41A     -0.676324    42A     -0.655639
      43A     -0.652877    44A     -0.634770    45A     -0.622713
      46A     -0.614712    47A     -0.604941    48A     -0.592530
      49A     -0.577427    50A     -0.565692    51A     -0.556606
      52A     -0.548918    53A     -0.537931    54A     -0.531393
      55A     -0.494754    56A     -0.481815    57A     -0.474589
      58A     -0.464964    59A     -0.458728    60A     -0.454447
      61A     -0.442098    62A     -0.431162    63A     -0.391479
      64A     -0.344255

  @DF-RHF Final Energy:  -886.36941076730102

   => Energetics <=

    Nuclear Repulsion Energy =           1333.8048506553091102
    One-Electron Energy =               -3865.2379796812651875
    Two-Electron Energy =                1645.0637182586551717
    Total Energy =                       -886.3694107673009057
  Basis Set: (AUG-CC-PVTZ AUX)
    Blend: AUG-CC-PVTZ-RI
    Molecular point group: c1

    Geometry (in Angstrom), charge = 0, multiplicity = 1:

       Center              X                  Y                   Z               Mass
    ------------   -----------------  -----------------  -----------------  -----------------
         O           -1.334304201125     0.681983447336    -1.083898211167    15.994914619570
         O           -1.588688201125    -2.435937552664     0.528918788833    15.994914619570
         O           -3.575790201125    -1.041795552664    -0.444668211167    15.994914619570
         O           -1.455056201125     3.153609447336     0.141855788833    15.994914619570
         O            1.091425798875    -2.355217552664     0.022939788833    15.994914619570
         N            0.753508798875    -0.129796552664    -0.355297211167    14.003074004430
         N            2.921249798875    -0.965724552664     0.161345788833    14.003074004430
         N            4.690760798875     0.471258447336     0.376463788833    14.003074004430
         C           -1.391988201125    -1.039896552664     0.570615788833    12.000000000000
         C           -2.753111201125    -0.346488552664     0.473185788833    12.000000000000
         C           -0.652876201125    -0.476146552664    -0.663677211167    12.000000000000
         C           -2.385871201125     0.993692447336    -0.143168211167    12.000000000000
         C           -1.914330201125     2.017722447336     0.872475788833    12.000000000000
         C            1.215841798875     1.147227447336    -0.428885211167    12.000000000000
         C            1.595320798875    -1.218911552664    -0.043238211167    12.000000000000
         C            2.580621598875     1.412916147336    -0.175562011167    12.000000000000
         C            3.365081798875     0.280451447336     0.096178788833    12.000000000000
         H           -0.859263201125    -0.740547552664     1.485185788833     1.007825032230
         H           -3.240867201125    -0.249731552664     1.455360788833     1.007825032230
         H           -0.637834201125    -1.214664552664    -1.473034211167     1.007825032230
         H           -3.209302201125     1.406720447336    -0.731869211167     1.007825032230
         H           -1.110340201125     1.598546447336     1.495537788833     1.007825032230
         H           -2.756180201125     2.274808447336     1.531938788833     1.007825032230
         H           -0.686182201125    -2.797926552664     0.369562788833     1.007825032230
         H           -3.321474201125    -1.982374552664    -0.347591211167     1.007825032230
         H            0.477801798875     1.905973447336    -0.668698211167     1.007825032230
         H           -1.225007201125     3.843628447336     0.787371788833     1.007825032230
         H            2.918356798875     2.415704447336    -0.223574211167     1.007825032230
         H            5.143837798875     1.299420447336     0.014497788833     1.007825032230
         H            5.248403798875    -0.374979552664     0.376007788833     1.007825032230

  Basis Set: AUG-CC-PVTZ
    Blend: AUG-CC-PVTZ
  Basis Set: (AUG-CC-PVTZ AUX)
    Blend: AUG-CC-PVTZ-JKFIT
	 Reference Energy          =    -886.3694107673010194 [Eh]
	 Singles Energy            =      -0.0000000000000000 [Eh]
	 Same-Spin Energy          =      -0.9023988439943503 [Eh]
	 Opposite-Spin Energy      =      -2.7166914978420431 [Eh]
	 Correlation Energy        =      -3.6190903418363933 [Eh]
	 Total Energy              =    -889.9885011091373599 [Eh]

	 ================> DF-SCS-MP2 Energies <==================
	-----------------------------------------------------------
	 SCS Same-Spin Scale       =       0.3333333333333333 [-]
	 SCS Opposite-Spin Scale   =       1.2000000000000000 [-]
	 SCS Same-Spin Energy      =      -0.3007996146647834 [Eh]
	 SCS Opposite-Spin Energy  =      -3.2600297974104517 [Eh]
	 SCS Correlation Energy    =      -3.5608294120752353 [Eh]
	 SCS Total Energy          =    -889.9302401793762556 [Eh]
	-----------------------------------------------------------

  Dipole Moment: [D]
     X:     2.5311      Y:     5.8045      Z:     1.9201     Total:     6.6171

*** Psi4 exiting successfully. Buy a developer a beer!
