                               Psi4 1.3.2 release

  ==> Input File <==

--------------------------------------------------------------------------
#psi4
#
memory 32 gb

molecule  {
0 1
  O       -1.2481010    -0.6526680     1.0325150
  O       -1.2930120     2.4842057    -0.6758249
  O       -3.2165300     1.5210990     0.7448870
  O       -2.3570290    -3.0668370     0.0949400
  O        1.3605300     2.2470340    -0.0765420
  N        0.8434040     0.0452230     0.2559430
  N        3.0572260     0.7205030    -0.2937270
  N        4.7164630    -0.8366550    -0.5722980
  C       -1.2894840     1.0784300    -0.5920770
  C       -2.7293973     0.7064778    -0.2573895
  C       -0.5254080     0.4815200     0.6000940
  C       -2.5292560    -0.7168860     0.3610560
  C       -2.5283440    -1.8503930    -0.6392900
  C        1.2197750    -1.2614080     0.3112740
  C        1.7555940     1.0674350    -0.0594030
  C        2.5111010    -1.6091400     0.0469950
  C        3.4119830    -0.5506530    -0.2589250
  H       -0.9376060     0.5914040    -1.5148910
  H       -3.3625820     0.6426650    -1.1464650
  H       -0.4402900     1.2218800     1.4039980
  H       -3.2819570    -0.9087340     1.1307830
  H       -1.7133080    -1.7003050    -1.3694640
  H       -3.4855610    -1.8340040    -1.1841350
  H       -0.2975250     2.7131790    -0.5250000
  H       -2.8475560     2.3997430     0.5086630
  H        0.4343110    -1.9634370     0.5690680
  H       -2.4338740    -3.7984320    -0.5432330
  H        2.8291120    -2.6453980     0.0739220
  H        5.1251800    -1.6708610    -0.1624140
  H        5.3198140    -0.0200540    -0.5682940
units angstrom
no_reorient  #important for SAPT in psi4, default
symmetry c1  #important for SAPT in psi4, default
}

set PROPERTIES_ORIGIN ["COM"]
properties('MP2/aug-cc-pvtz', properties = ['dipole'])
--------------------------------------------------------------------------

    Molecular point group: c1
  Charge       = 0
  Multiplicity = 1
  Basis Set: AUG-CC-PVTZ
    Blend: AUG-CC-PVTZ
  Basis Set: (AUG-CC-PVTZ AUX)
    Blend: AUG-CC-PVTZ-JKFIT

    Orbital Energies [Eh]
    ---------------------

    Doubly Occupied:

       1A    -20.580665     2A    -20.580408     3A    -20.560196
       4A    -20.559802     5A    -20.524265     6A    -15.637567
       7A    -15.600379     8A    -15.554179     9A    -11.389567
      10A    -11.358535    11A    -11.341493    12A    -11.328891
      13A    -11.299041    14A    -11.294800    15A    -11.294756
      16A    -11.291190    17A    -11.249007    18A     -1.428684
      19A     -1.397913    20A     -1.385275    21A     -1.371880
      22A     -1.346988    23A     -1.306953    24A     -1.274244
      25A     -1.182910    26A     -1.082089    27A     -1.057806
      28A     -1.019012    29A     -0.934245    30A     -0.909469
      31A     -0.875587    32A     -0.828070    33A     -0.812235
      34A     -0.767355    35A     -0.751679    36A     -0.734580
      37A     -0.719802    38A     -0.704527    39A     -0.695784
      40A     -0.685899    41A     -0.673565    42A     -0.654481
      43A     -0.651573    44A     -0.638642    45A     -0.620009
      46A     -0.612733    47A     -0.606752    48A     -0.594495
      49A     -0.577167    50A     -0.568854    51A     -0.556091
      52A     -0.548385    53A     -0.537238    54A     -0.531034
      55A     -0.497790    56A     -0.475410    57A     -0.466591
      58A     -0.460195    59A     -0.459586    60A     -0.450943
      61A     -0.439307    62A     -0.433583    63A     -0.395889
      64A     -0.350811

  @DF-RHF Final Energy:  -886.36566335302575

   => Energetics <=

    Nuclear Repulsion Energy =           1323.0016615454644580
    One-Electron Energy =               -3843.6969417930727104
    Two-Electron Energy =                1634.3296168945823865
    Total Energy =                       -886.3656633530256386
  Basis Set: (AUG-CC-PVTZ AUX)
    Blend: AUG-CC-PVTZ-RI
    Molecular point group: c1

    Geometry (in Angstrom), charge = 0, multiplicity = 1:

       Center              X                  Y                   Z               Mass
    ------------   -----------------  -----------------  -----------------  -----------------
         O           -1.244237935420    -0.655288129100     1.031834592512    15.994914619570
         O           -1.289148935420     2.481585570900    -0.676505307488    15.994914619570
         O           -3.212666935420     1.518478870900     0.744206592512    15.994914619570
         O           -2.353165935420    -3.069457129100     0.094259592512    15.994914619570
         O            1.364393064580     2.244413870900    -0.077222407488    15.994914619570
         N            0.847267064580     0.042602870900     0.255262592512    14.003074004430
         N            3.061089064580     0.717882870900    -0.294407407488    14.003074004430
         N            4.720326064580    -0.839275129100    -0.572978407488    14.003074004430
         C           -1.285620935420     1.075809870900    -0.592757407488    12.000000000000
         C           -2.725534235420     0.703857670900    -0.258069907488    12.000000000000
         C           -0.521544935420     0.478899870900     0.599413592512    12.000000000000
         C           -2.525392935420    -0.719506129100     0.360375592512    12.000000000000
         C           -2.524480935420    -1.853013129100    -0.639970407488    12.000000000000
         C            1.223638064580    -1.264028129100     0.310593592512    12.000000000000
         C            1.759457064580     1.064814870900    -0.060083407488    12.000000000000
         C            2.514964064580    -1.611760129100     0.046314592512    12.000000000000
         C            3.415846064580    -0.553273129100    -0.259605407488    12.000000000000
         H           -0.933742935420     0.588783870900    -1.515571407488     1.007825032230
         H           -3.358718935420     0.640044870900    -1.147145407488     1.007825032230
         H           -0.436426935420     1.219259870900     1.403317592512     1.007825032230
         H           -3.278093935420    -0.911354129100     1.130102592512     1.007825032230
         H           -1.709444935420    -1.702925129100    -1.370144407488     1.007825032230
         H           -3.481697935420    -1.836624129100    -1.184815407488     1.007825032230
         H           -0.293661935420     2.710558870900    -0.525680407488     1.007825032230
         H           -2.843692935420     2.397122870900     0.507982592512     1.007825032230
         H            0.438174064580    -1.966057129100     0.568387592512     1.007825032230
         H           -2.430010935420    -3.801052129100    -0.543913407488     1.007825032230
         H            2.832975064580    -2.648018129100     0.073241592512     1.007825032230
         H            5.129043064580    -1.673481129100    -0.163094407488     1.007825032230
         H            5.323677064580    -0.022674129100    -0.568974407488     1.007825032230

  Basis Set: AUG-CC-PVTZ
    Blend: AUG-CC-PVTZ
  Basis Set: (AUG-CC-PVTZ AUX)
    Blend: AUG-CC-PVTZ-JKFIT
	 Reference Energy          =    -886.3656633530257523 [Eh]
	 Singles Energy            =      -0.0000000000000000 [Eh]
	 Same-Spin Energy          =      -0.9021405184993292 [Eh]
	 Opposite-Spin Energy      =      -2.7163951359406231 [Eh]
	 Correlation Energy        =      -3.6185356544399525 [Eh]
	 Total Energy              =    -889.9841990074656906 [Eh]

	 ================> DF-SCS-MP2 Energies <==================
	-----------------------------------------------------------
	 SCS Same-Spin Scale       =       0.3333333333333333 [-]
	 SCS Opposite-Spin Scale   =       1.2000000000000000 [-]
	 SCS Same-Spin Energy      =      -0.3007135061664430 [Eh]
	 SCS Opposite-Spin Energy  =      -3.2596741631287478 [Eh]
	 SCS Correlation Energy    =      -3.5603876692951908 [Eh]
	 SCS Total Energy          =    -889.9260510223209621 [Eh]
	-----------------------------------------------------------

  Dipole Moment: [D]
     X:     1.8407      Y:    -5.8240      Z:    -1.7894     Total:     6.3647

*** Psi4 exiting successfully. Buy a developer a beer!
