                               Psi4 1.3.2 release

  ==> Input File <==

--------------------------------------------------------------------------
#psi4
#
memory 32 gb

molecule  {
0 1
  O       -1.2481010    -0.6526680     1.0325150
  O       -1.2449750     2.4828510    -0.6861630
  O       -3.2545315     1.5320249     0.7152198
  O       -2.3570290    -3.0668370     0.0949400
  O        1.3605300     2.2470340    -0.0765420
  N        0.8434040     0.0452230     0.2559430
  N        3.0572260     0.7205030    -0.2937270
  N        4.7164630    -0.8366550    -0.5722980
  C       -1.2894840     1.0784300    -0.5920770
  C       -2.7151710     0.6552070    -0.2573930
  C       -0.5254080     0.4815200     0.6000940
  C       -2.5292560    -0.7168860     0.3610560
  C       -2.5283440    -1.8503930    -0.6392900
  C        1.2197750    -1.2614080     0.3112740
  C        1.7555940     1.0674350    -0.0594030
  C        2.5111010    -1.6091400     0.0469950
  C        3.4119830    -0.5506530    -0.2589250
  H       -0.9376060     0.5914040    -1.5148910
  H       -3.3858358     0.6677671    -1.1290571
  H       -0.4402900     1.2218800     1.4039980
  H       -3.2819570    -0.9087340     1.1307830
  H       -1.7133080    -1.7003050    -1.3694640
  H       -3.4855610    -1.8340040    -1.1841350
  H       -0.2975250     2.7131790    -0.5250000
  H       -2.8475560     2.3997430     0.5086630
  H        0.4343110    -1.9634370     0.5690680
  H       -2.4338740    -3.7984320    -0.5432330
  H        2.8291120    -2.6453980     0.0739220
  H        5.1251800    -1.6708610    -0.1624140
  H        5.3198140    -0.0200540    -0.5682940
units angstrom
no_reorient  #important for SAPT in psi4, default
symmetry c1  #important for SAPT in psi4, default
}

set PROPERTIES_ORIGIN ["COM"]
properties('MP2/aug-cc-pvtz', properties = ['dipole'])
--------------------------------------------------------------------------

    Molecular point group: c1
  Charge       = 0
  Multiplicity = 1
  Basis Set: AUG-CC-PVTZ
    Blend: AUG-CC-PVTZ
  Basis Set: (AUG-CC-PVTZ AUX)
    Blend: AUG-CC-PVTZ-JKFIT

    Orbital Energies [Eh]
    ---------------------

    Doubly Occupied:

       1A    -20.582475     2A    -20.582402     3A    -20.557803
       4A    -20.555902     5A    -20.522454     6A    -15.637499
       7A    -15.600189     8A    -15.553747     9A    -11.388735
      10A    -11.358262    11A    -11.342556    12A    -11.328985
      13A    -11.301425    14A    -11.297684    15A    -11.297502
      16A    -11.292420    17A    -11.248996    18A     -1.429799
      19A     -1.396797    20A     -1.379997    21A     -1.373098
      22A     -1.346340    23A     -1.306511    24A     -1.274286
      25A     -1.182654    26A     -1.082472    27A     -1.067620
      28A     -1.021975    29A     -0.935664    30A     -0.909928
      31A     -0.877610    32A     -0.832732    33A     -0.812343
      34A     -0.767420    35A     -0.752896    36A     -0.736839
      37A     -0.720943    38A     -0.703048    39A     -0.698630
      40A     -0.686034    41A     -0.670796    42A     -0.654963
      43A     -0.651852    44A     -0.639212    45A     -0.620961
      46A     -0.614797    47A     -0.607922    48A     -0.594299
      49A     -0.575923    50A     -0.570056    51A     -0.554932
      52A     -0.545274    53A     -0.537998    54A     -0.532060
      55A     -0.498882    56A     -0.477686    57A     -0.473280
      58A     -0.462897    59A     -0.459802    60A     -0.453280
      61A     -0.440573    62A     -0.433585    63A     -0.395630
      64A     -0.350506

  @DF-RHF Final Energy:  -886.37353614906954

   => Energetics <=

    Nuclear Repulsion Energy =           1322.9175977783040707
    One-Electron Energy =               -3843.4585979166199650
    Two-Electron Energy =                1634.1674639892466985
    Total Energy =                       -886.3735361490694231
  Basis Set: (AUG-CC-PVTZ AUX)
    Blend: AUG-CC-PVTZ-RI
    Molecular point group: c1

    Geometry (in Angstrom), charge = 0, multiplicity = 1:

       Center              X                  Y                   Z               Mass
    ------------   -----------------  -----------------  -----------------  -----------------
         O           -1.245504143310    -0.653490981547     1.034394922881    15.994914619570
         O           -1.242378143310     2.482028018453    -0.684283077119    15.994914619570
         O           -3.251934643310     1.531201918453     0.717099722881    15.994914619570
         O           -2.354432143310    -3.067659981547     0.096819922881    15.994914619570
         O            1.363126856690     2.246211018453    -0.074662077119    15.994914619570
         N            0.846000856690     0.044400018453     0.257822922881    14.003074004430
         N            3.059822856690     0.719680018453    -0.291847077119    14.003074004430
         N            4.719059856690    -0.837477981547    -0.570418077119    14.003074004430
         C           -1.286887143310     1.077607018453    -0.590197077119    12.000000000000
         C           -2.712574143310     0.654384018453    -0.255513077119    12.000000000000
         C           -0.522811143310     0.480697018453     0.601973922881    12.000000000000
         C           -2.526659143310    -0.717708981547     0.362935922881    12.000000000000
         C           -2.525747143310    -1.851215981547    -0.637410077119    12.000000000000
         C            1.222371856690    -1.262230981547     0.313153922881    12.000000000000
         C            1.758190856690     1.066612018453    -0.057523077119    12.000000000000
         C            2.513697856690    -1.609962981547     0.048874922881    12.000000000000
         C            3.414579856690    -0.551475981547    -0.257045077119    12.000000000000
         H           -0.935009143310     0.590581018453    -1.513011077119     1.007825032230
         H           -3.383238943310     0.666944118453    -1.127177177119     1.007825032230
         H           -0.437693143310     1.221057018453     1.405877922881     1.007825032230
         H           -3.279360143310    -0.909556981547     1.132662922881     1.007825032230
         H           -1.710711143310    -1.701127981547    -1.367584077119     1.007825032230
         H           -3.482964143310    -1.834826981547    -1.182255077119     1.007825032230
         H           -0.294928143310     2.712356018453    -0.523120077119     1.007825032230
         H           -2.844959143310     2.398920018453     0.510542922881     1.007825032230
         H            0.436907856690    -1.964259981547     0.570947922881     1.007825032230
         H           -2.431277143310    -3.799254981547    -0.541353077119     1.007825032230
         H            2.831708856690    -2.646220981547     0.075801922881     1.007825032230
         H            5.127776856690    -1.671683981547    -0.160534077119     1.007825032230
         H            5.322410856690    -0.020876981547    -0.566414077119     1.007825032230

  Basis Set: AUG-CC-PVTZ
    Blend: AUG-CC-PVTZ
  Basis Set: (AUG-CC-PVTZ AUX)
    Blend: AUG-CC-PVTZ-JKFIT
	 Reference Energy          =    -886.3735361490695368 [Eh]
	 Singles Energy            =      -0.0000000000000000 [Eh]
	 Same-Spin Energy          =      -0.9010758822146575 [Eh]
	 Opposite-Spin Energy      =      -2.7146697342455939 [Eh]
	 Correlation Energy        =      -3.6157456164602513 [Eh]
	 Total Energy              =    -889.9892817655297677 [Eh]

	 ================> DF-SCS-MP2 Energies <==================
	-----------------------------------------------------------
	 SCS Same-Spin Scale       =       0.3333333333333333 [-]
	 SCS Opposite-Spin Scale   =       1.2000000000000000 [-]
	 SCS Same-Spin Energy      =      -0.3003586274048858 [Eh]
	 SCS Opposite-Spin Energy  =      -3.2576036810947127 [Eh]
	 SCS Correlation Energy    =      -3.5579623084995986 [Eh]
	 SCS Total Energy          =    -889.9314984575690914 [Eh]
	-----------------------------------------------------------

  Dipole Moment: [D]
     X:     1.8257      Y:    -5.9886      Z:    -1.7802     Total:     6.5089

*** Psi4 exiting successfully. Buy a developer a beer!
