                               Psi4 1.3.2 release

  ==> Input File <==

--------------------------------------------------------------------------
#psi4
#
memory 32 gb

molecule  {
0 1
  O       -1.2481010    -0.6526680     1.0325150
  O       -1.2449750     2.4828510    -0.6861630
  O       -3.2165300     1.5210990     0.7448870
  O       -2.3570290    -3.0668370     0.0949400
  O        1.3605300     2.2470340    -0.0765420
  N        0.8434040     0.0452230     0.2559430
  N        3.0572260     0.7205030    -0.2937270
  N        4.7164630    -0.8366550    -0.5722980
  C       -1.2894840     1.0784300    -0.5920770
  C       -2.7151710     0.6552070    -0.2573930
  C       -0.5254080     0.4815200     0.6000940
  C       -2.5292560    -0.7168860     0.3610560
  C       -2.4898181    -1.8258326    -0.6656929
  C        1.2197750    -1.2614080     0.3112740
  C        1.7555940     1.0674350    -0.0594030
  C        2.5111010    -1.6091400     0.0469950
  C        3.4119830    -0.5506530    -0.2589250
  H       -0.9376060     0.5914040    -1.5148910
  H       -3.3625820     0.6426650    -1.1464650
  H       -0.4402900     1.2218800     1.4039980
  H       -3.2721948    -0.8758744     1.1475729
  H       -1.7133080    -1.7003050    -1.3694640
  H       -3.4855610    -1.8340040    -1.1841350
  H       -0.2975250     2.7131790    -0.5250000
  H       -2.8475560     2.3997430     0.5086630
  H        0.4343110    -1.9634370     0.5690680
  H       -2.4338740    -3.7984320    -0.5432330
  H        2.8291120    -2.6453980     0.0739220
  H        5.1251800    -1.6708610    -0.1624140
  H        5.3198140    -0.0200540    -0.5682940
units angstrom
no_reorient  #important for SAPT in psi4, default
symmetry c1  #important for SAPT in psi4, default
}

set PROPERTIES_ORIGIN ["COM"]
properties('MP2/aug-cc-pvtz', properties = ['dipole'])
--------------------------------------------------------------------------

    Molecular point group: c1
  Charge       = 0
  Multiplicity = 1
  Basis Set: AUG-CC-PVTZ
    Blend: AUG-CC-PVTZ
  Basis Set: (AUG-CC-PVTZ AUX)
    Blend: AUG-CC-PVTZ-JKFIT

    Orbital Energies [Eh]
    ---------------------

    Doubly Occupied:

       1A    -20.580954     2A    -20.579335     3A    -20.558157
       4A    -20.557645     5A    -20.522275     6A    -15.637217
       7A    -15.600087     8A    -15.553629     9A    -11.388535
      10A    -11.358134    11A    -11.341635    12A    -11.328800
      13A    -11.301171    14A    -11.297721    15A    -11.297117
      16A    -11.292612    17A    -11.248874    18A     -1.429493
      19A     -1.396354    20A     -1.379183    21A     -1.362973
      22A     -1.346705    23A     -1.306338    24A     -1.274080
      25A     -1.182520    26A     -1.082276    27A     -1.069047
      28A     -1.021499    29A     -0.936571    30A     -0.910417
      31A     -0.878538    32A     -0.833359    33A     -0.812864
      34A     -0.767368    35A     -0.752552    36A     -0.736104
      37A     -0.720006    38A     -0.699438    39A     -0.694891
      40A     -0.686387    41A     -0.674803    42A     -0.655007
      43A     -0.651022    44A     -0.638335    45A     -0.620830
      46A     -0.612764    47A     -0.607531    48A     -0.593791
      49A     -0.573774    50A     -0.569458    51A     -0.551959
      52A     -0.545370    53A     -0.537434    54A     -0.533141
      55A     -0.498752    56A     -0.479793    57A     -0.473308
      58A     -0.464441    59A     -0.460574    60A     -0.453922
      61A     -0.440693    62A     -0.433545    63A     -0.395445
      64A     -0.350304

  @DF-RHF Final Energy:  -886.36950741696683

   => Energetics <=

    Nuclear Repulsion Energy =           1324.0027696101506081
    One-Electron Energy =               -3845.6668391653879553
    Two-Electron Energy =                1635.2945621382705212
    Total Energy =                       -886.3695074169668260
  Basis Set: (AUG-CC-PVTZ AUX)
    Blend: AUG-CC-PVTZ-RI
    Molecular point group: c1

    Geometry (in Angstrom), charge = 0, multiplicity = 1:

       Center              X                  Y                   Z               Mass
    ------------   -----------------  -----------------  -----------------  -----------------
         O           -1.250043351967    -0.654016657304     1.033748785280    15.994914619570
         O           -1.246917351967     2.481502342696    -0.684929214720    15.994914619570
         O           -3.218472351967     1.519750342696     0.746120785280    15.994914619570
         O           -2.358971351967    -3.068185657304     0.096173785280    15.994914619570
         O            1.358587648033     2.245685342696    -0.075308214720    15.994914619570
         N            0.841461648033     0.043874342696     0.257176785280    14.003074004430
         N            3.055283648033     0.719154342696    -0.292493214720    14.003074004430
         N            4.714520648033    -0.838003657304    -0.571064214720    14.003074004430
         C           -1.291426351967     1.077081342696    -0.590843214720    12.000000000000
         C           -2.717113351967     0.653858342696    -0.256159214720    12.000000000000
         C           -0.527350351967     0.480171342696     0.601327785280    12.000000000000
         C           -2.531198351967    -0.718234657304     0.362289785280    12.000000000000
         C           -2.491760451967    -1.827181257304    -0.664459114720    12.000000000000
         C            1.217832648033    -1.262756657304     0.312507785280    12.000000000000
         C            1.753651648033     1.066086342696    -0.058169214720    12.000000000000
         C            2.509158648033    -1.610488657304     0.048228785280    12.000000000000
         C            3.410040648033    -0.552001657304    -0.257691214720    12.000000000000
         H           -0.939548351967     0.590055342696    -1.513657214720     1.007825032230
         H           -3.364524351967     0.641316342696    -1.145231214720     1.007825032230
         H           -0.442232351967     1.220531342696     1.405231785280     1.007825032230
         H           -3.274137151967    -0.877223057304     1.148806685280     1.007825032230
         H           -1.715250351967    -1.701653657304    -1.368230214720     1.007825032230
         H           -3.487503351967    -1.835352657304    -1.182901214720     1.007825032230
         H           -0.299467351967     2.711830342696    -0.523766214720     1.007825032230
         H           -2.849498351967     2.398394342696     0.509896785280     1.007825032230
         H            0.432368648033    -1.964785657304     0.570301785280     1.007825032230
         H           -2.435816351967    -3.799780657304    -0.541999214720     1.007825032230
         H            2.827169648033    -2.646746657304     0.075155785280     1.007825032230
         H            5.123237648033    -1.672209657304    -0.161180214720     1.007825032230
         H            5.317871648033    -0.021402657304    -0.567060214720     1.007825032230

  Basis Set: AUG-CC-PVTZ
    Blend: AUG-CC-PVTZ
  Basis Set: (AUG-CC-PVTZ AUX)
    Blend: AUG-CC-PVTZ-JKFIT
	 Reference Energy          =    -886.3695074169668260 [Eh]
	 Singles Energy            =      -0.0000000000000000 [Eh]
	 Same-Spin Energy          =      -0.9014142935111034 [Eh]
	 Opposite-Spin Energy      =      -2.7157389022537206 [Eh]
	 Correlation Energy        =      -3.6171531957648240 [Eh]
	 Total Energy              =    -889.9866606127316118 [Eh]

	 ================> DF-SCS-MP2 Energies <==================
	-----------------------------------------------------------
	 SCS Same-Spin Scale       =       0.3333333333333333 [-]
	 SCS Opposite-Spin Scale   =       1.2000000000000000 [-]
	 SCS Same-Spin Energy      =      -0.3004714311703678 [Eh]
	 SCS Opposite-Spin Energy  =      -3.2588866827044645 [Eh]
	 SCS Correlation Energy    =      -3.5593581138748323 [Eh]
	 SCS Total Energy          =    -889.9288655308416764 [Eh]
	-----------------------------------------------------------

  Dipole Moment: [D]
     X:     1.7641      Y:    -5.8375      Z:    -1.8619     Total:     6.3762

*** Psi4 exiting successfully. Buy a developer a beer!
