                               Psi4 1.3.2 release

  ==> Input File <==

--------------------------------------------------------------------------
#psi4
#
memory 32 gb

molecule  {
0 1
  O       -1.2481010    -0.6526680     1.0325150
  O       -1.2449750     2.4828510    -0.6861630
  O       -3.2165300     1.5210990     0.7448870
  O       -2.3570290    -3.0668370     0.0949400
  O        1.3605300     2.2470340    -0.0765420
  N        0.8434040     0.0452230     0.2559430
  N        3.0572260     0.7205030    -0.2937270
  N        4.7164630    -0.8366550    -0.5722980
  C       -1.2894840     1.0784300    -0.5920770
  C       -2.7151710     0.6552070    -0.2573930
  C       -0.6248530     0.5592083     0.4449321
  C       -2.5292560    -0.7168860     0.3610560
  C       -2.5283440    -1.8503930    -0.6392900
  C        1.2197750    -1.2614080     0.3112740
  C        1.7555940     1.0674350    -0.0594030
  C        2.5111010    -1.6091400     0.0469950
  C        3.4119830    -0.5506530    -0.2589250
  H       -0.9376060     0.5914040    -1.5148910
  H       -3.3625820     0.6426650    -1.1464650
  H       -0.4402900     1.2218800     1.4039980
  H       -3.2819570    -0.9087340     1.1307830
  H       -1.7133080    -1.7003050    -1.3694640
  H       -3.4855610    -1.8340040    -1.1841350
  H       -0.2975250     2.7131790    -0.5250000
  H       -2.8475560     2.3997430     0.5086630
  H        0.4343110    -1.9634370     0.5690680
  H       -2.4338740    -3.7984320    -0.5432330
  H        2.8291120    -2.6453980     0.0739220
  H        5.1251800    -1.6708610    -0.1624140
  H        5.3198140    -0.0200540    -0.5682940
units angstrom
no_reorient  #important for SAPT in psi4, default
symmetry c1  #important for SAPT in psi4, default
}

set PROPERTIES_ORIGIN ["COM"]
properties('MP2/aug-cc-pvtz', properties = ['dipole'])
--------------------------------------------------------------------------

    Molecular point group: c1
  Charge       = 0
  Multiplicity = 1
  Basis Set: AUG-CC-PVTZ
    Blend: AUG-CC-PVTZ
  Basis Set: (AUG-CC-PVTZ AUX)
    Blend: AUG-CC-PVTZ-JKFIT

    Orbital Energies [Eh]
    ---------------------

    Doubly Occupied:

       1A    -20.583886     2A    -20.582644     3A    -20.564269
       4A    -20.563124     5A    -20.518836     6A    -15.631982
       7A    -15.597129     8A    -15.549532     9A    -11.383068
      10A    -11.354520    11A    -11.351885    12A    -11.325308
      13A    -11.301987    14A    -11.301604    15A    -11.295274
      16A    -11.293518    17A    -11.245122    18A     -1.424926
      19A     -1.392320    20A     -1.383542    21A     -1.370396
      22A     -1.353279    23A     -1.301261    24A     -1.263399
      25A     -1.177078    26A     -1.100868    27A     -1.070167
      28A     -1.041198    29A     -0.932897    30A     -0.904229
      31A     -0.877018    32A     -0.827423    33A     -0.820151
      34A     -0.761383    35A     -0.751985    36A     -0.741996
      37A     -0.720126    38A     -0.705629    39A     -0.702446
      40A     -0.681349    41A     -0.667904    42A     -0.651337
      43A     -0.647730    44A     -0.640772    45A     -0.621894
      46A     -0.609922    47A     -0.605805    48A     -0.589279
      49A     -0.575200    50A     -0.565934    51A     -0.551368
      52A     -0.545661    53A     -0.541514    54A     -0.524592
      55A     -0.494242    56A     -0.488641    57A     -0.478828
      58A     -0.466293    59A     -0.460982    60A     -0.458047
      61A     -0.442064    62A     -0.426365    63A     -0.393584
      64A     -0.347960

  @DF-RHF Final Energy:  -886.31858421319851

   => Energetics <=

    Nuclear Repulsion Energy =           1325.0125072592643392
    One-Electron Energy =               -3847.5728469489522467
    Two-Electron Energy =                1636.2417554764892884
    Total Energy =                       -886.3185842131983918
  Basis Set: (AUG-CC-PVTZ AUX)
    Blend: AUG-CC-PVTZ-RI
    Molecular point group: c1

    Geometry (in Angstrom), charge = 0, multiplicity = 1:

       Center              X                  Y                   Z               Mass
    ------------   -----------------  -----------------  -----------------  -----------------
         O           -1.243191897442    -0.656503099406     1.040174627831    15.994914619570
         O           -1.240065897442     2.479015900594    -0.678503372169    15.994914619570
         O           -3.211620897442     1.517263900594     0.752546627831    15.994914619570
         O           -2.352119897442    -3.070672099406     0.102599627831    15.994914619570
         O            1.365439102558     2.243198900594    -0.068882372169    15.994914619570
         N            0.848313102558     0.041387900594     0.263602627831    14.003074004430
         N            3.062135102558     0.716667900594    -0.286067372169    14.003074004430
         N            4.721372102558    -0.840490099406    -0.564638372169    14.003074004430
         C           -1.284574897442     1.074594900594    -0.584417372169    12.000000000000
         C           -2.710261897442     0.651371900594    -0.249733372169    12.000000000000
         C           -0.619943897442     0.555373200594     0.452591727831    12.000000000000
         C           -2.524346897442    -0.720721099406     0.368715627831    12.000000000000
         C           -2.523434897442    -1.854228099406    -0.631630372169    12.000000000000
         C            1.224684102558    -1.265243099406     0.318933627831    12.000000000000
         C            1.760503102558     1.063599900594    -0.051743372169    12.000000000000
         C            2.516010102558    -1.612975099406     0.054654627831    12.000000000000
         C            3.416892102558    -0.554488099406    -0.251265372169    12.000000000000
         H           -0.932696897442     0.587568900594    -1.507231372169     1.007825032230
         H           -3.357672897442     0.638829900594    -1.138805372169     1.007825032230
         H           -0.435380897442     1.218044900594     1.411657627831     1.007825032230
         H           -3.277047897442    -0.912569099406     1.138442627831     1.007825032230
         H           -1.708398897442    -1.704140099406    -1.361804372169     1.007825032230
         H           -3.480651897442    -1.837839099406    -1.176475372169     1.007825032230
         H           -0.292615897442     2.709343900594    -0.517340372169     1.007825032230
         H           -2.842646897442     2.395907900594     0.516322627831     1.007825032230
         H            0.439220102558    -1.967272099406     0.576727627831     1.007825032230
         H           -2.428964897442    -3.802267099406    -0.535573372169     1.007825032230
         H            2.834021102558    -2.649233099406     0.081581627831     1.007825032230
         H            5.130089102558    -1.674696099406    -0.154754372169     1.007825032230
         H            5.324723102558    -0.023889099406    -0.560634372169     1.007825032230

  Basis Set: AUG-CC-PVTZ
    Blend: AUG-CC-PVTZ
  Basis Set: (AUG-CC-PVTZ AUX)
    Blend: AUG-CC-PVTZ-JKFIT
	 Reference Energy          =    -886.3185842131985055 [Eh]
	 Singles Energy            =      -0.0000000000000000 [Eh]
	 Same-Spin Energy          =      -0.9050878882651694 [Eh]
	 Opposite-Spin Energy      =      -2.7216209919536256 [Eh]
	 Correlation Energy        =      -3.6267088802187950 [Eh]
	 Total Energy              =    -889.9452930934172628 [Eh]

	 ================> DF-SCS-MP2 Energies <==================
	-----------------------------------------------------------
	 SCS Same-Spin Scale       =       0.3333333333333333 [-]
	 SCS Opposite-Spin Scale   =       1.2000000000000000 [-]
	 SCS Same-Spin Energy      =      -0.3016959627550564 [Eh]
	 SCS Opposite-Spin Energy  =      -3.2659451903443508 [Eh]
	 SCS Correlation Energy    =      -3.5676411530994074 [Eh]
	 SCS Total Energy          =    -889.8862253662979356 [Eh]
	-----------------------------------------------------------

  Dipole Moment: [D]
     X:     1.2806      Y:    -5.7601      Z:    -1.9952     Total:     6.2289

*** Psi4 exiting successfully. Buy a developer a beer!
