                               Psi4 1.3.2 release

  ==> Input File <==

--------------------------------------------------------------------------
#psi4
#
memory 32 gb

molecule  {
0 1
  O       -1.2481010    -0.6526680     1.0325150
  O       -1.2449750     2.4828510    -0.6861630
  O       -3.2165300     1.5210990     0.7448870
  O       -2.3570290    -3.0668370     0.0949400
  O        1.3605300     2.2470340    -0.0765420
  N        0.8434040     0.0452230     0.2559430
  N        3.0572260     0.7205030    -0.2937270
  N        4.7164630    -0.8366550    -0.5722980
  C       -1.2894840     1.0784300    -0.5920770
  C       -2.7151710     0.6552070    -0.2573930
  C       -0.5254080     0.4815200     0.6000940
  C       -2.5292560    -0.7168860     0.3610560
  C       -2.5283440    -1.8503930    -0.6392900
  C        1.2197750    -1.2614080     0.3112740
  C        1.7555940     1.0674350    -0.0594030
  C        2.5111010    -1.6091400     0.0469950
  C        3.4167407    -0.4923386    -0.3005701
  H       -0.9376060     0.5914040    -1.5148910
  H       -3.3625820     0.6426650    -1.1464650
  H       -0.4402900     1.2218800     1.4039980
  H       -3.2819570    -0.9087340     1.1307830
  H       -1.7133080    -1.7003050    -1.3694640
  H       -3.4855610    -1.8340040    -1.1841350
  H       -0.2975250     2.7131790    -0.5250000
  H       -2.8475560     2.3997430     0.5086630
  H        0.4343110    -1.9634370     0.5690680
  H       -2.4338740    -3.7984320    -0.5432330
  H        2.8291120    -2.6453980     0.0739220
  H        5.1704564    -1.6594742    -0.1878338
  H        5.3198140    -0.0200540    -0.5682940
units angstrom
no_reorient  #important for SAPT in psi4, default
symmetry c1  #important for SAPT in psi4, default
}

set PROPERTIES_ORIGIN ["COM"]
properties('MP2/aug-cc-pvtz', properties = ['dipole'])
--------------------------------------------------------------------------

    Molecular point group: c1
  Charge       = 0
  Multiplicity = 1
  Basis Set: AUG-CC-PVTZ
    Blend: AUG-CC-PVTZ
  Basis Set: (AUG-CC-PVTZ AUX)
    Blend: AUG-CC-PVTZ-JKFIT

    Orbital Energies [Eh]
    ---------------------

    Doubly Occupied:

       1A    -20.581198     2A    -20.580514     3A    -20.557822
       4A    -20.557509     5A    -20.527764     6A    -15.633629
       7A    -15.597677     8A    -15.554821     9A    -11.394606
      10A    -11.357806    11A    -11.340708    12A    -11.320451
      13A    -11.300270    14A    -11.296241    15A    -11.296138
      16A    -11.292501    17A    -11.248984    18A     -1.429125
      19A     -1.400202    20A     -1.379935    21A     -1.372024
      22A     -1.346579    23A     -1.312102    24A     -1.275122
      25A     -1.193163    26A     -1.074124    27A     -1.067091
      28A     -1.018452    29A     -0.934668    30A     -0.903892
      31A     -0.884003    32A     -0.832496    33A     -0.810670
      34A     -0.764624    35A     -0.750920    36A     -0.736182
      37A     -0.725662    38A     -0.703197    39A     -0.698114
      40A     -0.684618    41A     -0.671109    42A     -0.657467
      43A     -0.650431    44A     -0.638783    45A     -0.617940
      46A     -0.614763    47A     -0.601930    48A     -0.596311
      49A     -0.575342    50A     -0.569537    51A     -0.554025
      52A     -0.546147    53A     -0.537403    54A     -0.531387
      55A     -0.498396    56A     -0.476851    57A     -0.474233
      58A     -0.464935    59A     -0.460136    60A     -0.452695
      61A     -0.439112    62A     -0.433758    63A     -0.402569
      64A     -0.346207

  @DF-RHF Final Energy:  -886.36899508226145

   => Energetics <=

    Nuclear Repulsion Energy =           1323.8731693460770202
    One-Electron Energy =               -3845.3901875260498855
    Two-Electron Energy =                1635.1480230977117571
    Total Energy =                       -886.3689950822613355
  Basis Set: (AUG-CC-PVTZ AUX)
    Blend: AUG-CC-PVTZ-RI
    Molecular point group: c1

    Geometry (in Angstrom), charge = 0, multiplicity = 1:

       Center              X                  Y                   Z               Mass
    ------------   -----------------  -----------------  -----------------  -----------------
         O           -1.248523613978    -0.655593909515     1.034676221812    15.994914619570
         O           -1.245397613978     2.479925090485    -0.684001778188    15.994914619570
         O           -3.216952613978     1.518173090485     0.747048221812    15.994914619570
         O           -2.357451613978    -3.069762909515     0.097101221812    15.994914619570
         O            1.360107386022     2.244108090485    -0.074380778188    15.994914619570
         N            0.842981386022     0.042297090485     0.258104221812    14.003074004430
         N            3.056803386022     0.717577090485    -0.291565778188    14.003074004430
         N            4.716040386022    -0.839580909515    -0.570136778188    14.003074004430
         C           -1.289906613978     1.075504090485    -0.589915778188    12.000000000000
         C           -2.715593613978     0.652281090485    -0.255231778188    12.000000000000
         C           -0.525830613978     0.478594090485     0.602255221812    12.000000000000
         C           -2.529678613978    -0.719811909515     0.363217221812    12.000000000000
         C           -2.528766613978    -1.853318909515    -0.637128778188    12.000000000000
         C            1.219352386022    -1.264333909515     0.313435221812    12.000000000000
         C            1.755171386022     1.064509090485    -0.057241778188    12.000000000000
         C            2.510678386022    -1.612065909515     0.049156221812    12.000000000000
         C            3.416318086022    -0.495264509515    -0.298408878188    12.000000000000
         H           -0.938028613978     0.588478090485    -1.512729778188     1.007825032230
         H           -3.363004613978     0.639739090485    -1.144303778188     1.007825032230
         H           -0.440712613978     1.218954090485     1.406159221812     1.007825032230
         H           -3.282379613978    -0.911659909515     1.132944221812     1.007825032230
         H           -1.713730613978    -1.703230909515    -1.367302778188     1.007825032230
         H           -3.485983613978    -1.836929909515    -1.181973778188     1.007825032230
         H           -0.297947613978     2.710253090485    -0.522838778188     1.007825032230
         H           -2.847978613978     2.396817090485     0.510824221812     1.007825032230
         H            0.433888386022    -1.966362909515     0.571229221812     1.007825032230
         H           -2.434296613978    -3.801357909515    -0.541071778188     1.007825032230
         H            2.828689386022    -2.648323909515     0.076083221812     1.007825032230
         H            5.170033786022    -1.662400109515    -0.185672578188     1.007825032230
         H            5.319391386022    -0.022979909515    -0.566132778188     1.007825032230

  Basis Set: AUG-CC-PVTZ
    Blend: AUG-CC-PVTZ
  Basis Set: (AUG-CC-PVTZ AUX)
    Blend: AUG-CC-PVTZ-JKFIT
	 Reference Energy          =    -886.3689950822614492 [Eh]
	 Singles Energy            =      -0.0000000000000000 [Eh]
	 Same-Spin Energy          =      -0.9002704725197253 [Eh]
	 Opposite-Spin Energy      =      -2.7140067498829117 [Eh]
	 Correlation Energy        =      -3.6142772224026372 [Eh]
	 Total Energy              =    -889.9832723046640695 [Eh]

	 ================> DF-SCS-MP2 Energies <==================
	-----------------------------------------------------------
	 SCS Same-Spin Scale       =       0.3333333333333333 [-]
	 SCS Opposite-Spin Scale   =       1.2000000000000000 [-]
	 SCS Same-Spin Energy      =      -0.3000901575065751 [Eh]
	 SCS Opposite-Spin Energy  =      -3.2568080998594939 [Eh]
	 SCS Correlation Energy    =      -3.5568982573660692 [Eh]
	 SCS Total Energy          =    -889.9258933396274642 [Eh]
	-----------------------------------------------------------

  Dipole Moment: [D]
     X:     1.8411      Y:    -5.6983      Z:    -1.9118     Total:     6.2861

*** Psi4 exiting successfully. Buy a developer a beer!
