                               Psi4 1.3.2 release

  ==> Input File <==

--------------------------------------------------------------------------
#psi4
#
memory 32 gb

molecule  {
0 1
  O       -1.2481010    -0.6526680     1.0325150
  O       -1.2449750     2.4828510    -0.6861630
  O       -3.2165300     1.5210990     0.7448870
  O       -2.3570290    -3.0668370     0.0949400
  O        1.3605300     2.2470340    -0.0765420
  N        0.8434040     0.0452230     0.2559430
  N        3.0572260     0.7205030    -0.2937270
  N        4.7164630    -0.8366550    -0.5722980
  C       -1.2894840     1.0784300    -0.5920770
  C       -2.7151710     0.6552070    -0.2573930
  C       -0.5254080     0.4815200     0.6000940
  C       -2.5292560    -0.7168860     0.3610560
  C       -2.5283440    -1.8503930    -0.6392900
  C        1.2197750    -1.2614080     0.3112740
  C        1.7555940     1.0674350    -0.0594030
  C        2.5111010    -1.6091400     0.0469950
  C        3.4147581    -0.5116797    -0.2865999
  H       -0.9376060     0.5914040    -1.5148910
  H       -3.3625820     0.6426650    -1.1464650
  H       -0.4402900     1.2218800     1.4039980
  H       -3.2819570    -0.9087340     1.1307830
  H       -1.7133080    -1.7003050    -1.3694640
  H       -3.4855610    -1.8340040    -1.1841350
  H       -0.2975250     2.7131790    -0.5250000
  H       -2.8475560     2.3997430     0.5086630
  H        0.4343110    -1.9634370     0.5690680
  H       -2.4338740    -3.7984320    -0.5432330
  H        2.8291120    -2.6453980     0.0739220
  H        5.1554964    -1.6635220    -0.1792399
  H        5.3198140    -0.0200540    -0.5682940
units angstrom
no_reorient  #important for SAPT in psi4, default
symmetry c1  #important for SAPT in psi4, default
}

set PROPERTIES_ORIGIN ["COM"]
properties('MP2/aug-cc-pvtz', properties = ['dipole'])
--------------------------------------------------------------------------

    Molecular point group: c1
  Charge       = 0
  Multiplicity = 1
  Basis Set: AUG-CC-PVTZ
    Blend: AUG-CC-PVTZ
  Basis Set: (AUG-CC-PVTZ AUX)
    Blend: AUG-CC-PVTZ-JKFIT

    Orbital Energies [Eh]
    ---------------------

    Doubly Occupied:

       1A    -20.581539     2A    -20.580860     3A    -20.557617
       4A    -20.557589     5A    -20.525843     6A    -15.634651
       7A    -15.598433     8A    -15.554392     9A    -11.392495
      10A    -11.357910    11A    -11.340965    12A    -11.323098
      13A    -11.300565    14A    -11.296402    15A    -11.296343
      16A    -11.292641    17A    -11.248934    18A     -1.429152
      19A     -1.398904    20A     -1.379982    21A     -1.372284
      22A     -1.346472    23A     -1.309757    24A     -1.274678
      25A     -1.189758    26A     -1.076655    27A     -1.067293
      28A     -1.019419    29A     -0.934598    30A     -0.905847
      31A     -0.881903    32A     -0.832433    33A     -0.811063
      34A     -0.765364    35A     -0.751389    36A     -0.736105
      37A     -0.723538    38A     -0.703032    39A     -0.698219
      40A     -0.685255    41A     -0.671746    42A     -0.656574
      43A     -0.650769    44A     -0.638682    45A     -0.618433
      46A     -0.614597    47A     -0.603878    48A     -0.595731
      49A     -0.575443    50A     -0.569590    51A     -0.553997
      52A     -0.545977    53A     -0.537421    54A     -0.531503
      55A     -0.498317    56A     -0.477042    57A     -0.474285
      58A     -0.463786    59A     -0.460457    60A     -0.452731
      61A     -0.439671    62A     -0.433839    63A     -0.400105
      64A     -0.347555

  @DF-RHF Final Energy:  -886.37203521054062

   => Energetics <=

    Nuclear Repulsion Energy =           1323.8235176367600161
    One-Electron Energy =               -3845.3000995437123493
    Two-Electron Energy =                1635.1045466964119441
    Total Energy =                       -886.3720352105406164
  Basis Set: (AUG-CC-PVTZ AUX)
    Blend: AUG-CC-PVTZ-RI
    Molecular point group: c1

    Geometry (in Angstrom), charge = 0, multiplicity = 1:

       Center              X                  Y                   Z               Mass
    ------------   -----------------  -----------------  -----------------  -----------------
         O           -1.248363718553    -0.654622347434     1.033950948060    15.994914619570
         O           -1.245237718553     2.480896652566    -0.684727051940    15.994914619570
         O           -3.216792718553     1.519144652566     0.746322948060    15.994914619570
         O           -2.357291718553    -3.068791347434     0.096375948060    15.994914619570
         O            1.360267281447     2.245079652566    -0.075106051940    15.994914619570
         N            0.843141281447     0.043268652566     0.257378948060    14.003074004430
         N            3.056963281447     0.718548652566    -0.292291051940    14.003074004430
         N            4.716200281447    -0.838609347434    -0.570862051940    14.003074004430
         C           -1.289746718553     1.076475652566    -0.590641051940    12.000000000000
         C           -2.715433718553     0.653252652566    -0.255957051940    12.000000000000
         C           -0.525670718553     0.479565652566     0.601529948060    12.000000000000
         C           -2.529518718553    -0.718840347434     0.362491948060    12.000000000000
         C           -2.528606718553    -1.852347347434    -0.637854051940    12.000000000000
         C            1.219512281447    -1.263362347434     0.312709948060    12.000000000000
         C            1.755331281447     1.065480652566    -0.057967051940    12.000000000000
         C            2.510838281447    -1.611094347434     0.048430948060    12.000000000000
         C            3.414495381447    -0.513634047434    -0.285163951940    12.000000000000
         H           -0.937868718553     0.589449652566    -1.513455051940     1.007825032230
         H           -3.362844718553     0.640710652566    -1.145029051940     1.007825032230
         H           -0.440552718553     1.219925652566     1.405433948060     1.007825032230
         H           -3.282219718553    -0.910688347434     1.132218948060     1.007825032230
         H           -1.713570718553    -1.702259347434    -1.368028051940     1.007825032230
         H           -3.485823718553    -1.835958347434    -1.182699051940     1.007825032230
         H           -0.297787718553     2.711224652566    -0.523564051940     1.007825032230
         H           -2.847818718553     2.397788652566     0.510098948060     1.007825032230
         H            0.434048281447    -1.965391347434     0.570503948060     1.007825032230
         H           -2.434136718553    -3.800386347434    -0.541797051940     1.007825032230
         H            2.828849281447    -2.647352347434     0.075357948060     1.007825032230
         H            5.155233681447    -1.665476347434    -0.177803951940     1.007825032230
         H            5.319551281447    -0.022008347434    -0.566858051940     1.007825032230

  Basis Set: AUG-CC-PVTZ
    Blend: AUG-CC-PVTZ
  Basis Set: (AUG-CC-PVTZ AUX)
    Blend: AUG-CC-PVTZ-JKFIT
	 Reference Energy          =    -886.3720352105406164 [Eh]
	 Singles Energy            =      -0.0000000000000000 [Eh]
	 Same-Spin Energy          =      -0.9005533600091493 [Eh]
	 Opposite-Spin Energy      =      -2.7142201139507209 [Eh]
	 Correlation Energy        =      -3.6147734739598700 [Eh]
	 Total Energy              =    -889.9868086845004882 [Eh]

	 ================> DF-SCS-MP2 Energies <==================
	-----------------------------------------------------------
	 SCS Same-Spin Scale       =       0.3333333333333333 [-]
	 SCS Opposite-Spin Scale   =       1.2000000000000000 [-]
	 SCS Same-Spin Energy      =      -0.3001844533363831 [Eh]
	 SCS Opposite-Spin Energy  =      -3.2570641367408650 [Eh]
	 SCS Correlation Energy    =      -3.5572485900772479 [Eh]
	 SCS Total Energy          =    -889.9292838006178954 [Eh]
	-----------------------------------------------------------

  Dipole Moment: [D]
     X:     1.7991      Y:    -5.7852      Z:    -1.8810     Total:     6.3438

*** Psi4 exiting successfully. Buy a developer a beer!
