                               Psi4 1.3.2 release

  ==> Input File <==

--------------------------------------------------------------------------
#psi4
#
memory 32 gb

molecule  {
0 1
  O       -1.2261039    -0.6441232     0.9878252
  O       -1.2449750     2.4828510    -0.6861630
  O       -3.2165300     1.5210990     0.7448870
  O       -2.3570290    -3.0668370     0.0949400
  O        1.3605300     2.2470340    -0.0765420
  N        0.8434040     0.0452230     0.2559430
  N        3.0572260     0.7205030    -0.2937270
  N        4.7164630    -0.8366550    -0.5722980
  C       -1.2894840     1.0784300    -0.5920770
  C       -2.7151710     0.6552070    -0.2573930
  C       -0.5254080     0.4815200     0.6000940
  C       -2.5292560    -0.7168860     0.3610560
  C       -2.5283440    -1.8503930    -0.6392900
  C        1.2197750    -1.2614080     0.3112740
  C        1.7555940     1.0674350    -0.0594030
  C        2.5111010    -1.6091400     0.0469950
  C        3.4119830    -0.5506530    -0.2589250
  H       -0.9376060     0.5914040    -1.5148910
  H       -3.3625820     0.6426650    -1.1464650
  H       -0.4402900     1.2218800     1.4039980
  H       -3.3088169    -0.9083541     1.1036656
  H       -1.7133080    -1.7003050    -1.3694640
  H       -3.4855610    -1.8340040    -1.1841350
  H       -0.2975250     2.7131790    -0.5250000
  H       -2.8475560     2.3997430     0.5086630
  H        0.4343110    -1.9634370     0.5690680
  H       -2.4338740    -3.7984320    -0.5432330
  H        2.8291120    -2.6453980     0.0739220
  H        5.1251800    -1.6708610    -0.1624140
  H        5.3198140    -0.0200540    -0.5682940
units angstrom
no_reorient  #important for SAPT in psi4, default
symmetry c1  #important for SAPT in psi4, default
}

set PROPERTIES_ORIGIN ["COM"]
properties('MP2/aug-cc-pvtz', properties = ['dipole'])
--------------------------------------------------------------------------

    Molecular point group: c1
  Charge       = 0
  Multiplicity = 1
  Basis Set: AUG-CC-PVTZ
    Blend: AUG-CC-PVTZ
  Basis Set: (AUG-CC-PVTZ AUX)
    Blend: AUG-CC-PVTZ-JKFIT

    Orbital Energies [Eh]
    ---------------------

    Doubly Occupied:

       1A    -20.582734     2A    -20.581544     3A    -20.558011
       4A    -20.555963     5A    -20.521164     6A    -15.635367
       7A    -15.599288     8A    -15.552556     9A    -11.387254
      10A    -11.357148    11A    -11.339772    12A    -11.327703
      13A    -11.301307    14A    -11.299292    15A    -11.295025
      16A    -11.292698    17A    -11.247849    18A     -1.437915
      19A     -1.396684    20A     -1.380309    21A     -1.374488
      22A     -1.346028    23A     -1.305269    24A     -1.272853
      25A     -1.181509    26A     -1.081471    27A     -1.069469
      28A     -1.021499    29A     -0.935232    30A     -0.909069
      31A     -0.876998    32A     -0.833019    33A     -0.813060
      34A     -0.766495    35A     -0.753342    36A     -0.737699
      37A     -0.720204    38A     -0.703307    39A     -0.698766
      40A     -0.687420    41A     -0.673287    42A     -0.657141
      43A     -0.650835    44A     -0.638506    45A     -0.620893
      46A     -0.614358    47A     -0.607489    48A     -0.593124
      49A     -0.576627    50A     -0.574329    51A     -0.553939
      52A     -0.545017    53A     -0.536993    54A     -0.531485
      55A     -0.497296    56A     -0.477623    57A     -0.473821
      58A     -0.463027    59A     -0.459410    60A     -0.451894
      61A     -0.439659    62A     -0.432025    63A     -0.394424
      64A     -0.349173

  @DF-RHF Final Energy:  -886.37353059299221

   => Energetics <=

    Nuclear Repulsion Energy =           1325.1264720995379776
    One-Electron Energy =               -3847.9016969130962025
    Two-Electron Energy =                1636.4016942205662417
    Total Energy =                       -886.3735305929922106
  Basis Set: (AUG-CC-PVTZ AUX)
    Blend: AUG-CC-PVTZ-RI
    Molecular point group: c1

    Geometry (in Angstrom), charge = 0, multiplicity = 1:

       Center              X                  Y                   Z               Mass
    ------------   -----------------  -----------------  -----------------  -----------------
         O           -1.227439972611    -0.644687008796     0.990878203514    15.994914619570
         O           -1.246311072611     2.482287191204    -0.683109996486    15.994914619570
         O           -3.217866072611     1.520535191204     0.747940003514    15.994914619570
         O           -2.358365072611    -3.067400808796     0.097993003514    15.994914619570
         O            1.359193927389     2.246470191204    -0.073488996486    15.994914619570
         N            0.842067927389     0.044659191204     0.258996003514    14.003074004430
         N            3.055889927389     0.719939191204    -0.290673996486    14.003074004430
         N            4.715126927389    -0.837218808796    -0.569244996486    14.003074004430
         C           -1.290820072611     1.077866191204    -0.589023996486    12.000000000000
         C           -2.716507072611     0.654643191204    -0.254339996486    12.000000000000
         C           -0.526744072611     0.480956191204     0.603147003514    12.000000000000
         C           -2.530592072611    -0.717449808796     0.364109003514    12.000000000000
         C           -2.529680072611    -1.850956808796    -0.636236996486    12.000000000000
         C            1.218438927389    -1.261971808796     0.314327003514    12.000000000000
         C            1.754257927389     1.066871191204    -0.056349996486    12.000000000000
         C            2.509764927389    -1.609703808796     0.050048003514    12.000000000000
         C            3.410646927389    -0.551216808796    -0.255871996486    12.000000000000
         H           -0.938942072611     0.590840191204    -1.511837996486     1.007825032230
         H           -3.363918072611     0.642101191204    -1.143411996486     1.007825032230
         H           -0.441626072611     1.221316191204     1.407051003514     1.007825032230
         H           -3.310152972611    -0.908917908796     1.106718603514     1.007825032230
         H           -1.714644072611    -1.700868808796    -1.366410996486     1.007825032230
         H           -3.486897072611    -1.834567808796    -1.181081996486     1.007825032230
         H           -0.298861072611     2.712615191204    -0.521946996486     1.007825032230
         H           -2.848892072611     2.399179191204     0.511716003514     1.007825032230
         H            0.432974927389    -1.964000808796     0.572121003514     1.007825032230
         H           -2.435210072611    -3.798995808796    -0.540179996486     1.007825032230
         H            2.827775927389    -2.645961808796     0.076975003514     1.007825032230
         H            5.123843927389    -1.671424808796    -0.159360996486     1.007825032230
         H            5.318477927389    -0.020617808796    -0.565240996486     1.007825032230

  Basis Set: AUG-CC-PVTZ
    Blend: AUG-CC-PVTZ
  Basis Set: (AUG-CC-PVTZ AUX)
    Blend: AUG-CC-PVTZ-JKFIT
	 Reference Energy          =    -886.3735305929922106 [Eh]
	 Singles Energy            =      -0.0000000000000000 [Eh]
	 Same-Spin Energy          =      -0.9011578621325755 [Eh]
	 Opposite-Spin Energy      =      -2.7140824647876283 [Eh]
	 Correlation Energy        =      -3.6152403269202038 [Eh]
	 Total Energy              =    -889.9887709199124401 [Eh]

	 ================> DF-SCS-MP2 Energies <==================
	-----------------------------------------------------------
	 SCS Same-Spin Scale       =       0.3333333333333333 [-]
	 SCS Opposite-Spin Scale   =       1.2000000000000000 [-]
	 SCS Same-Spin Energy      =      -0.3003859540441918 [Eh]
	 SCS Opposite-Spin Energy  =      -3.2568989577451539 [Eh]
	 SCS Correlation Energy    =      -3.5572849117893459 [Eh]
	 SCS Total Energy          =    -889.9308155047815490 [Eh]
	-----------------------------------------------------------

  Dipole Moment: [D]
     X:     1.5924      Y:    -6.0064      Z:    -1.7484     Total:     6.4552

*** Psi4 exiting successfully. Buy a developer a beer!
