                               Psi4 1.3.2 release

  ==> Input File <==

--------------------------------------------------------------------------
#psi4
#
memory 32 gb

molecule  {
0 1
  O       -1.2481010    -0.6526680     1.0325150
  O       -1.2449750     2.4828510    -0.6861630
  O       -3.2165300     1.5210990     0.7448870
  O       -2.3570290    -3.0668370     0.0949400
  O        1.3605300     2.2470340    -0.0765420
  N        0.8434040     0.0452230     0.2559430
  N        3.0572260     0.7205030    -0.2937270
  N        4.7164630    -0.8366550    -0.5722980
  C       -1.2894840     1.0784300    -0.5920770
  C       -2.7859731     0.7774886    -0.1158506
  C       -0.5254080     0.4815200     0.6000940
  C       -2.5292560    -0.7168860     0.3610560
  C       -2.5283440    -1.8503930    -0.6392900
  C        1.2197750    -1.2614080     0.3112740
  C        1.7555940     1.0674350    -0.0594030
  C        2.5111010    -1.6091400     0.0469950
  C        3.4119830    -0.5506530    -0.2589250
  H       -0.9376060     0.5914040    -1.5148910
  H       -3.3625820     0.6426650    -1.1464650
  H       -0.4402900     1.2218800     1.4039980
  H       -3.2819570    -0.9087340     1.1307830
  H       -1.7133080    -1.7003050    -1.3694640
  H       -3.4855610    -1.8340040    -1.1841350
  H       -0.2975250     2.7131790    -0.5250000
  H       -2.8475560     2.3997430     0.5086630
  H        0.4343110    -1.9634370     0.5690680
  H       -2.4338740    -3.7984320    -0.5432330
  H        2.8291120    -2.6453980     0.0739220
  H        5.1251800    -1.6708610    -0.1624140
  H        5.3198140    -0.0200540    -0.5682940
units angstrom
no_reorient  #important for SAPT in psi4, default
symmetry c1  #important for SAPT in psi4, default
}

set PROPERTIES_ORIGIN ["COM"]
properties('MP2/aug-cc-pvtz', properties = ['dipole'])
--------------------------------------------------------------------------

    Molecular point group: c1
  Charge       = 0
  Multiplicity = 1
  Basis Set: AUG-CC-PVTZ
    Blend: AUG-CC-PVTZ
  Basis Set: (AUG-CC-PVTZ AUX)
    Blend: AUG-CC-PVTZ-JKFIT

    Orbital Energies [Eh]
    ---------------------

    Doubly Occupied:

       1A    -20.581321     2A    -20.579604     3A    -20.577385
       4A    -20.556398     5A    -20.520880     6A    -15.635195
       7A    -15.598818     8A    -15.552169     9A    -11.386973
      10A    -11.356620    11A    -11.338090    12A    -11.326871
      13A    -11.302501    14A    -11.298401    15A    -11.291803
      16A    -11.290741    17A    -11.247058    18A     -1.479425
      19A     -1.418301    20A     -1.392633    21A     -1.371229
      22A     -1.361308    23A     -1.304717    24A     -1.272220
      25A     -1.180996    26A     -1.079926    27A     -1.044257
      28A     -1.012499    29A     -0.929487    30A     -0.907801
      31A     -0.878505    32A     -0.836823    33A     -0.809074
      34A     -0.766242    35A     -0.751668    36A     -0.748266
      37A     -0.726420    38A     -0.717740    39A     -0.699819
      40A     -0.685970    41A     -0.679948    42A     -0.656331
      43A     -0.653170    44A     -0.644589    45A     -0.622740
      46A     -0.615832    47A     -0.611333    48A     -0.601438
      49A     -0.589683    50A     -0.578163    51A     -0.565640
      52A     -0.548953    53A     -0.536002    54A     -0.530275
      55A     -0.495578    56A     -0.474023    57A     -0.460525
      58A     -0.457752    59A     -0.447137    60A     -0.433529
      61A     -0.431325    62A     -0.416011    63A     -0.391800
      64A     -0.347523

  @DF-RHF Final Energy:  -886.32659255600890

   => Energetics <=

    Nuclear Repulsion Energy =           1323.8520284099522542
    One-Electron Energy =               -3845.1463324023470705
    Two-Electron Energy =                1634.9677114363857982
    Total Energy =                       -886.3265925560090182
  Basis Set: (AUG-CC-PVTZ AUX)
    Blend: AUG-CC-PVTZ-RI
    Molecular point group: c1

    Geometry (in Angstrom), charge = 0, multiplicity = 1:

       Center              X                  Y                   Z               Mass
    ------------   -----------------  -----------------  -----------------  -----------------
         O           -1.244605864014    -0.658704462938     1.025527718413    15.994914619570
         O           -1.241479864014     2.476814537062    -0.693150281587    15.994914619570
         O           -3.213034864014     1.515062537062     0.737899718413    15.994914619570
         O           -2.353533864014    -3.072873462938     0.087952718413    15.994914619570
         O            1.364025135986     2.240997537062    -0.083529281587    15.994914619570
         N            0.846899135986     0.039186537062     0.248955718413    14.003074004430
         N            3.060721135986     0.714466537062    -0.300714281587    14.003074004430
         N            4.719958135986    -0.842691462938    -0.579285281587    14.003074004430
         C           -1.285988864014     1.072393537062    -0.599064281587    12.000000000000
         C           -2.782477964014     0.771452137062    -0.122837881587    12.000000000000
         C           -0.521912864014     0.475483537062     0.593106718413    12.000000000000
         C           -2.525760864014    -0.722922462938     0.354068718413    12.000000000000
         C           -2.524848864014    -1.856429462938    -0.646277281587    12.000000000000
         C            1.223270135986    -1.267444462938     0.304286718413    12.000000000000
         C            1.759089135986     1.061398537062    -0.066390281587    12.000000000000
         C            2.514596135986    -1.615176462938     0.040007718413    12.000000000000
         C            3.415478135986    -0.556689462938    -0.265912281587    12.000000000000
         H           -0.934110864014     0.585367537062    -1.521878281587     1.007825032230
         H           -3.359086864014     0.636628537062    -1.153452281587     1.007825032230
         H           -0.436794864014     1.215843537062     1.397010718413     1.007825032230
         H           -3.278461864014    -0.914770462938     1.123795718413     1.007825032230
         H           -1.709812864014    -1.706341462938    -1.376451281587     1.007825032230
         H           -3.482065864014    -1.840040462938    -1.191122281587     1.007825032230
         H           -0.294029864014     2.707142537062    -0.531987281587     1.007825032230
         H           -2.844060864014     2.393706537062     0.501675718413     1.007825032230
         H            0.437806135986    -1.969473462938     0.562080718413     1.007825032230
         H           -2.430378864014    -3.804468462938    -0.550220281587     1.007825032230
         H            2.832607135986    -2.651434462938     0.066934718413     1.007825032230
         H            5.128675135986    -1.676897462938    -0.169401281587     1.007825032230
         H            5.323309135986    -0.026090462938    -0.575281281587     1.007825032230

  Basis Set: AUG-CC-PVTZ
    Blend: AUG-CC-PVTZ
  Basis Set: (AUG-CC-PVTZ AUX)
    Blend: AUG-CC-PVTZ-JKFIT
	 Reference Energy          =    -886.3265925560089045 [Eh]
	 Singles Energy            =      -0.0000000000000000 [Eh]
	 Same-Spin Energy          =      -0.9025972992924038 [Eh]
	 Opposite-Spin Energy      =      -2.7147890531535603 [Eh]
	 Correlation Energy        =      -3.6173863524459642 [Eh]
	 Total Energy              =    -889.9439789084548238 [Eh]

	 ================> DF-SCS-MP2 Energies <==================
	-----------------------------------------------------------
	 SCS Same-Spin Scale       =       0.3333333333333333 [-]
	 SCS Opposite-Spin Scale   =       1.2000000000000000 [-]
	 SCS Same-Spin Energy      =      -0.3008657664308013 [Eh]
	 SCS Opposite-Spin Energy  =      -3.2577468637842721 [Eh]
	 SCS Correlation Energy    =      -3.5586126302150736 [Eh]
	 SCS Total Energy          =    -889.8852051862239705 [Eh]
	-----------------------------------------------------------

  Dipole Moment: [D]
     X:     1.4236      Y:    -5.3600      Z:    -1.2662     Total:     5.6885

*** Psi4 exiting successfully. Buy a developer a beer!
