                               Psi4 1.3.2 release

  ==> Input File <==

--------------------------------------------------------------------------
#psi4
#
memory 32 gb

molecule  {
0 1
  O       -1.2481010    -0.6526680     1.0325150
  O       -1.3170325     2.4842409    -0.6706168
  O       -3.2165300     1.5210990     0.7448870
  O       -2.3570290    -3.0668370     0.0949400
  O        1.3605300     2.2470340    -0.0765420
  N        0.8434040     0.0452230     0.2559430
  N        3.0572260     0.7205030    -0.2937270
  N        4.7164630    -0.8366550    -0.5722980
  C       -1.2894840     1.0784300    -0.5920770
  C       -2.7358536     0.7322871    -0.2575408
  C       -0.5254080     0.4815200     0.6000940
  C       -2.5292560    -0.7168860     0.3610560
  C       -2.5283440    -1.8503930    -0.6392900
  C        1.2197750    -1.2614080     0.3112740
  C        1.7555940     1.0674350    -0.0594030
  C        2.5111010    -1.6091400     0.0469950
  C        3.4119830    -0.5506530    -0.2589250
  H       -0.9376060     0.5914040    -1.5148910
  H       -3.3625820     0.6426650    -1.1464650
  H       -0.4402900     1.2218800     1.4039980
  H       -3.2819570    -0.9087340     1.1307830
  H       -1.7133080    -1.7003050    -1.3694640
  H       -3.4855610    -1.8340040    -1.1841350
  H       -0.2975250     2.7131790    -0.5250000
  H       -2.8475560     2.3997430     0.5086630
  H        0.4343110    -1.9634370     0.5690680
  H       -2.4338740    -3.7984320    -0.5432330
  H        2.8291120    -2.6453980     0.0739220
  H        5.1251800    -1.6708610    -0.1624140
  H        5.3198140    -0.0200540    -0.5682940
units angstrom
no_reorient  #important for SAPT in psi4, default
symmetry c1  #important for SAPT in psi4, default
}

set PROPERTIES_ORIGIN ["COM"]
properties('MP2/aug-cc-pvtz', properties = ['dipole'])
--------------------------------------------------------------------------

    Molecular point group: c1
  Charge       = 0
  Multiplicity = 1
  Basis Set: AUG-CC-PVTZ
    Blend: AUG-CC-PVTZ
  Basis Set: (AUG-CC-PVTZ AUX)
    Blend: AUG-CC-PVTZ-JKFIT

    Orbital Energies [Eh]
    ---------------------

    Doubly Occupied:

       1A    -20.579812     2A    -20.579770     3A    -20.561564
       4A    -20.560820     5A    -20.525445     6A    -15.637896
       7A    -15.600647     8A    -15.554607     9A    -11.390238
      10A    -11.358880    11A    -11.341467    12A    -11.329073
      13A    -11.297917    14A    -11.294051    15A    -11.293349
      16A    -11.290727    17A    -11.249233    18A     -1.428789
      19A     -1.399670    20A     -1.388536    21A     -1.371258
      22A     -1.346275    23A     -1.307408    24A     -1.274474
      25A     -1.183251    26A     -1.082181    27A     -1.053112
      28A     -1.017907    29A     -0.933636    30A     -0.909486
      31A     -0.874923    32A     -0.826078    33A     -0.812390
      34A     -0.767563    35A     -0.751474    36A     -0.734509
      37A     -0.719524    38A     -0.705797    39A     -0.693942
      40A     -0.686049    41A     -0.673894    42A     -0.654451
      43A     -0.651701    44A     -0.638787    45A     -0.619948
      46A     -0.611890    47A     -0.606663    48A     -0.594848
      49A     -0.577648    50A     -0.568639    51A     -0.558201
      52A     -0.548982    53A     -0.537163    54A     -0.530485
      55A     -0.497944    56A     -0.474554    57A     -0.465143
      58A     -0.459607    59A     -0.456768    60A     -0.447641
      61A     -0.438257    62A     -0.433702    63A     -0.396229
      64A     -0.351207

  @DF-RHF Final Energy:  -886.35797065449128

   => Energetics <=

    Nuclear Repulsion Energy =           1322.6930294519440849
    One-Electron Energy =               -3843.0858369556221987
    Two-Electron Energy =                1634.0348368491870588
    Total Energy =                       -886.3579706544912824
  Basis Set: (AUG-CC-PVTZ AUX)
    Blend: AUG-CC-PVTZ-RI
    Molecular point group: c1

    Geometry (in Angstrom), charge = 0, multiplicity = 1:

       Center              X                  Y                   Z               Mass
    ------------   -----------------  -----------------  -----------------  -----------------
         O           -1.242338680189    -0.656564530181     1.031499370922    15.994914619570
         O           -1.311270180189     2.480344369819    -0.671632429078    15.994914619570
         O           -3.210767680189     1.517202469819     0.743871370922    15.994914619570
         O           -2.351266680189    -3.070733530181     0.093924370922    15.994914619570
         O            1.366292319811     2.243137469819    -0.077557629078    15.994914619570
         N            0.849166319811     0.041326469819     0.254927370922    14.003074004430
         N            3.062988319811     0.716606469819    -0.294742629078    14.003074004430
         N            4.722225319811    -0.840551530181    -0.573313629078    14.003074004430
         C           -1.283721680189     1.074533469819    -0.593092629078    12.000000000000
         C           -2.730091280189     0.728390569819    -0.258556429078    12.000000000000
         C           -0.519645680189     0.477623469819     0.599078370922    12.000000000000
         C           -2.523493680189    -0.720782530181     0.360040370922    12.000000000000
         C           -2.522581680189    -1.854289530181    -0.640305629078    12.000000000000
         C            1.225537319811    -1.265304530181     0.310258370922    12.000000000000
         C            1.761356319811     1.063538469819    -0.060418629078    12.000000000000
         C            2.516863319811    -1.613036530181     0.045979370922    12.000000000000
         C            3.417745319811    -0.554549530181    -0.259940629078    12.000000000000
         H           -0.931843680189     0.587507469819    -1.515906629078     1.007825032230
         H           -3.356819680189     0.638768469819    -1.147480629078     1.007825032230
         H           -0.434527680189     1.217983469819     1.402982370922     1.007825032230
         H           -3.276194680189    -0.912630530181     1.129767370922     1.007825032230
         H           -1.707545680189    -1.704201530181    -1.370479629078     1.007825032230
         H           -3.479798680189    -1.837900530181    -1.185150629078     1.007825032230
         H           -0.291762680189     2.709282469819    -0.526015629078     1.007825032230
         H           -2.841793680189     2.395846469819     0.507647370922     1.007825032230
         H            0.440073319811    -1.967333530181     0.568052370922     1.007825032230
         H           -2.428111680189    -3.802328530181    -0.544248629078     1.007825032230
         H            2.834874319811    -2.649294530181     0.072906370922     1.007825032230
         H            5.130942319811    -1.674757530181    -0.163429629078     1.007825032230
         H            5.325576319811    -0.023950530181    -0.569309629078     1.007825032230

  Basis Set: AUG-CC-PVTZ
    Blend: AUG-CC-PVTZ
  Basis Set: (AUG-CC-PVTZ AUX)
    Blend: AUG-CC-PVTZ-JKFIT
	 Reference Energy          =    -886.3579706544912824 [Eh]
	 Singles Energy            =      -0.0000000000000000 [Eh]
	 Same-Spin Energy          =      -0.9027477481931256 [Eh]
	 Opposite-Spin Energy      =      -2.7174088792314217 [Eh]
	 Correlation Energy        =      -3.6201566274245476 [Eh]
	 Total Energy              =    -889.9781272819158175 [Eh]

	 ================> DF-SCS-MP2 Energies <==================
	-----------------------------------------------------------
	 SCS Same-Spin Scale       =       0.3333333333333333 [-]
	 SCS Opposite-Spin Scale   =       1.2000000000000000 [-]
	 SCS Same-Spin Energy      =      -0.3009159160643752 [Eh]
	 SCS Opposite-Spin Energy  =      -3.2608906550777061 [Eh]
	 SCS Correlation Energy    =      -3.5618065711420814 [Eh]
	 SCS Total Energy          =    -889.9197772256333110 [Eh]
	-----------------------------------------------------------

  Dipole Moment: [D]
     X:     1.9075      Y:    -5.7573      Z:    -1.7716     Total:     6.3185

*** Psi4 exiting successfully. Buy a developer a beer!
