                               Psi4 1.3.2 release

  ==> Input File <==

--------------------------------------------------------------------------
#psi4
#
memory 32 gb

molecule  {
0 1
  O       -1.2481010    -0.6526680     1.0325150
  O       -1.2449750     2.4828510    -0.6861630
  O       -3.2165300     1.5210990     0.7448870
  O       -2.3570290    -3.0668370     0.0949400
  O        1.3605300     2.2470340    -0.0765420
  N        0.8344517     0.0535632     0.2568435
  N        3.0598809     0.7319742    -0.2956596
  N        4.7164630    -0.8366550    -0.5722980
  C       -1.2894840     1.0784300    -0.5920770
  C       -2.7151710     0.6552070    -0.2573930
  C       -0.5254080     0.4815200     0.6000940
  C       -2.5292560    -0.7168860     0.3610560
  C       -2.5283440    -1.8503930    -0.6392900
  C        1.2197750    -1.2614080     0.3112740
  C        1.7555940     1.0674350    -0.0594030
  C        2.5111010    -1.6091400     0.0469950
  C        3.4119830    -0.5506530    -0.2589250
  H       -0.9376060     0.5914040    -1.5148910
  H       -3.3625820     0.6426650    -1.1464650
  H       -0.4402900     1.2218800     1.4039980
  H       -3.2819570    -0.9087340     1.1307830
  H       -1.7133080    -1.7003050    -1.3694640
  H       -3.4855610    -1.8340040    -1.1841350
  H       -0.2975250     2.7131790    -0.5250000
  H       -2.8475560     2.3997430     0.5086630
  H        0.4343110    -1.9634370     0.5690680
  H       -2.4338740    -3.7984320    -0.5432330
  H        2.8291120    -2.6453980     0.0739220
  H        5.1251800    -1.6708610    -0.1624140
  H        5.3198140    -0.0200540    -0.5682940
units angstrom
no_reorient  #important for SAPT in psi4, default
symmetry c1  #important for SAPT in psi4, default
}

set PROPERTIES_ORIGIN ["COM"]
properties('MP2/aug-cc-pvtz', properties = ['dipole'])
--------------------------------------------------------------------------

    Molecular point group: c1
  Charge       = 0
  Multiplicity = 1
  Basis Set: AUG-CC-PVTZ
    Blend: AUG-CC-PVTZ
  Basis Set: (AUG-CC-PVTZ AUX)
    Blend: AUG-CC-PVTZ-JKFIT

    Orbital Energies [Eh]
    ---------------------

    Doubly Occupied:

       1A    -20.582163     2A    -20.581255     3A    -20.557332
       4A    -20.556554     5A    -20.520111     6A    -15.636862
       7A    -15.601464     8A    -15.554968     9A    -11.387070
      10A    -11.360198    11A    -11.340300    12A    -11.330420
      13A    -11.301016    14A    -11.296630    15A    -11.295864
      16A    -11.292453    17A    -11.250463    18A     -1.429190
      19A     -1.395493    20A     -1.379662    21A     -1.372610
      22A     -1.345727    23A     -1.303991    24A     -1.273129
      25A     -1.181654    26A     -1.083092    27A     -1.067379
      28A     -1.020988    29A     -0.935665    30A     -0.908918
      31A     -0.875906    32A     -0.832400    33A     -0.811610
      34A     -0.767299    35A     -0.751714    36A     -0.735844
      37A     -0.720450    38A     -0.702994    39A     -0.698134
      40A     -0.685835    41A     -0.672932    42A     -0.653837
      43A     -0.651414    44A     -0.638094    45A     -0.620465
      46A     -0.614229    47A     -0.606535    48A     -0.592972
      49A     -0.575555    50A     -0.569494    51A     -0.553820
      52A     -0.545607    53A     -0.537129    54A     -0.531585
      55A     -0.496765    56A     -0.477192    57A     -0.473920
      58A     -0.461536    59A     -0.459243    60A     -0.452337
      61A     -0.440946    62A     -0.434183    63A     -0.394335
      64A     -0.350947

  @DF-RHF Final Energy:  -886.37262930249256

   => Energetics <=

    Nuclear Repulsion Energy =           1323.4947713219678462
    One-Electron Energy =               -3844.6750404975859965
    Two-Electron Energy =                1634.8076398731259360
    Total Energy =                       -886.3726293024924416
  Basis Set: (AUG-CC-PVTZ AUX)
    Blend: AUG-CC-PVTZ-RI
    Molecular point group: c1

    Geometry (in Angstrom), charge = 0, multiplicity = 1:

       Center              X                  Y                   Z               Mass
    ------------   -----------------  -----------------  -----------------  -----------------
         O           -1.247738268774    -0.653809236365     1.032574462164    15.994914619570
         O           -1.244612268774     2.481709763635    -0.686103537836    15.994914619570
         O           -3.216167268774     1.519957763635     0.744946462164    15.994914619570
         O           -2.356666268774    -3.067978236365     0.094999462164    15.994914619570
         O            1.360892731226     2.245892763635    -0.076482537836    15.994914619570
         N            0.834814431226     0.052421963635     0.256902962164    14.003074004430
         N            3.060243631226     0.730832963635    -0.295600137836    14.003074004430
         N            4.716825731226    -0.837796236365    -0.572238537836    14.003074004430
         C           -1.289121268774     1.077288763635    -0.592017537836    12.000000000000
         C           -2.714808268774     0.654065763635    -0.257333537836    12.000000000000
         C           -0.525045268774     0.480378763635     0.600153462164    12.000000000000
         C           -2.528893268774    -0.718027236365     0.361115462164    12.000000000000
         C           -2.527981268774    -1.851534236365    -0.639230537836    12.000000000000
         C            1.220137731226    -1.262549236365     0.311333462164    12.000000000000
         C            1.755956731226     1.066293763635    -0.059343537836    12.000000000000
         C            2.511463731226    -1.610281236365     0.047054462164    12.000000000000
         C            3.412345731226    -0.551794236365    -0.258865537836    12.000000000000
         H           -0.937243268774     0.590262763635    -1.514831537836     1.007825032230
         H           -3.362219268774     0.641523763635    -1.146405537836     1.007825032230
         H           -0.439927268774     1.220738763635     1.404057462164     1.007825032230
         H           -3.281594268774    -0.909875236365     1.130842462164     1.007825032230
         H           -1.712945268774    -1.701446236365    -1.369404537836     1.007825032230
         H           -3.485198268774    -1.835145236365    -1.184075537836     1.007825032230
         H           -0.297162268774     2.712037763635    -0.524940537836     1.007825032230
         H           -2.847193268774     2.398601763635     0.508722462164     1.007825032230
         H            0.434673731226    -1.964578236365     0.569127462164     1.007825032230
         H           -2.433511268774    -3.799573236365    -0.543173537836     1.007825032230
         H            2.829474731226    -2.646539236365     0.073981462164     1.007825032230
         H            5.125542731226    -1.672002236365    -0.162354537836     1.007825032230
         H            5.320176731226    -0.021195236365    -0.568234537836     1.007825032230

  Basis Set: AUG-CC-PVTZ
    Blend: AUG-CC-PVTZ
  Basis Set: (AUG-CC-PVTZ AUX)
    Blend: AUG-CC-PVTZ-JKFIT
	 Reference Energy          =    -886.3726293024925553 [Eh]
	 Singles Energy            =      -0.0000000000000000 [Eh]
	 Same-Spin Energy          =      -0.9012413640800272 [Eh]
	 Opposite-Spin Energy      =      -2.7151786850419510 [Eh]
	 Correlation Energy        =      -3.6164200491219782 [Eh]
	 Total Energy              =    -889.9890493516145398 [Eh]

	 ================> DF-SCS-MP2 Energies <==================
	-----------------------------------------------------------
	 SCS Same-Spin Scale       =       0.3333333333333333 [-]
	 SCS Opposite-Spin Scale   =       1.2000000000000000 [-]
	 SCS Same-Spin Energy      =      -0.3004137880266757 [Eh]
	 SCS Opposite-Spin Energy  =      -3.2582144220503411 [Eh]
	 SCS Correlation Energy    =      -3.5586282100770168 [Eh]
	 SCS Total Energy          =    -889.9312575125695730 [Eh]
	-----------------------------------------------------------

  Dipole Moment: [D]
     X:     1.7917      Y:    -6.0244      Z:    -1.8291     Total:     6.5459

*** Psi4 exiting successfully. Buy a developer a beer!
