                               Psi4 1.3.2 release

  ==> Input File <==

--------------------------------------------------------------------------
#psi4
#
memory 32 gb

molecule  {
0 1
  O       -1.2481010    -0.6526680     1.0325150
  O       -1.2449750     2.4828510    -0.6861630
  O       -3.2165300     1.5210990     0.7448870
  O       -2.3570290    -3.0668370     0.0949400
  O        1.3605300     2.2470340    -0.0765420
  N        0.8434040     0.0452230     0.2559430
  N        3.0572260     0.7205030    -0.2937270
  N        4.7164630    -0.8366550    -0.5722980
  C       -1.2894840     1.0784300    -0.5920770
  C       -2.7151710     0.6552070    -0.2573930
  C       -0.5254080     0.4815200     0.6000940
  C       -2.5292560    -0.7168860     0.3610560
  C       -2.5283440    -1.8503930    -0.6392900
  C        1.2197750    -1.2614080     0.3112740
  C        1.7555940     1.0674350    -0.0594030
  C        2.5111010    -1.6091400     0.0469950
  C        3.4119830    -0.5506530    -0.2589250
  H       -0.9376060     0.5914040    -1.5148910
  H       -3.3625820     0.6426650    -1.1464650
  H       -0.4402900     1.2218800     1.4039980
  H       -3.2819570    -0.9087340     1.1307830
  H       -1.7133080    -1.7003050    -1.3694640
  H       -3.4855610    -1.8340040    -1.1841350
  H       -0.3933941     2.6898729    -0.5413075
  H       -2.8475560     2.3997430     0.5086630
  H        0.4343110    -1.9634370     0.5690680
  H       -2.4338740    -3.7984320    -0.5432330
  H        2.8291120    -2.6453980     0.0739220
  H        5.1251800    -1.6708610    -0.1624140
  H        5.3198140    -0.0200540    -0.5682940
units angstrom
no_reorient  #important for SAPT in psi4, default
symmetry c1  #important for SAPT in psi4, default
}

set PROPERTIES_ORIGIN ["COM"]
properties('MP2/aug-cc-pvtz', properties = ['dipole'])
--------------------------------------------------------------------------

    Molecular point group: c1
  Charge       = 0
  Multiplicity = 1
  Basis Set: AUG-CC-PVTZ
    Blend: AUG-CC-PVTZ
  Basis Set: (AUG-CC-PVTZ AUX)
    Blend: AUG-CC-PVTZ-JKFIT

    Orbital Energies [Eh]
    ---------------------

    Doubly Occupied:

       1A    -20.582881     2A    -20.582523     3A    -20.559906
       4A    -20.556093     5A    -20.517734     6A    -15.635572
       7A    -15.598618     8A    -15.551326     9A    -11.384904
      10A    -11.356264    11A    -11.342711    12A    -11.327532
      13A    -11.302066    14A    -11.299801    15A    -11.298157
      16A    -11.295082    17A    -11.247393    18A     -1.431951
      19A     -1.396979    20A     -1.393034    21A     -1.374832
      22A     -1.356687    23A     -1.303724    24A     -1.272497
      25A     -1.180631    26A     -1.081428    27A     -1.070461
      28A     -1.025105    29A     -0.936025    30A     -0.908451
      31A     -0.877576    32A     -0.837760    33A     -0.813181
      34A     -0.765713    35A     -0.754951    36A     -0.744800
      37A     -0.719472    38A     -0.706502    39A     -0.701063
      40A     -0.684686    41A     -0.675890    42A     -0.655299
      43A     -0.650178    44A     -0.638613    45A     -0.623476
      46A     -0.615729    47A     -0.607208    48A     -0.594174
      49A     -0.578480    50A     -0.571196    51A     -0.557764
      52A     -0.547446    53A     -0.539899    54A     -0.531527
      55A     -0.496708    56A     -0.479410    57A     -0.477816
      58A     -0.463554    59A     -0.458826    60A     -0.456569
      61A     -0.442506    62A     -0.431446    63A     -0.393593
      64A     -0.348340

  @DF-RHF Final Energy:  -886.36982849259755

   => Energetics <=

    Nuclear Repulsion Energy =           1324.1915758414195352
    One-Electron Energy =               -3845.8993785459724677
    Two-Electron Energy =                1635.3379742119552702
    Total Energy =                       -886.3698284925974349
  Basis Set: (AUG-CC-PVTZ AUX)
    Blend: AUG-CC-PVTZ-RI
    Molecular point group: c1

    Geometry (in Angstrom), charge = 0, multiplicity = 1:

       Center              X                  Y                   Z               Mass
    ------------   -----------------  -----------------  -----------------  -----------------
         O           -1.247703563620    -0.652571363493     1.032582617870    15.994914619570
         O           -1.244577563620     2.482947636507    -0.686095382130    15.994914619570
         O           -3.216132563620     1.521195636507     0.744954617870    15.994914619570
         O           -2.356631563620    -3.066740363493     0.095007617870    15.994914619570
         O            1.360927436380     2.247130636507    -0.076474382130    15.994914619570
         N            0.843801436380     0.045319636507     0.256010617870    14.003074004430
         N            3.057623436380     0.720599636507    -0.293659382130    14.003074004430
         N            4.716860436380    -0.836558363493    -0.572230382130    14.003074004430
         C           -1.289086563620     1.078526636507    -0.592009382130    12.000000000000
         C           -2.714773563620     0.655303636507    -0.257325382130    12.000000000000
         C           -0.525010563620     0.481616636507     0.600161617870    12.000000000000
         C           -2.528858563620    -0.716789363493     0.361123617870    12.000000000000
         C           -2.527946563620    -1.850296363493    -0.639222382130    12.000000000000
         C            1.220172436380    -1.261311363493     0.311341617870    12.000000000000
         C            1.755991436380     1.067531636507    -0.059335382130    12.000000000000
         C            2.511498436380    -1.609043363493     0.047062617870    12.000000000000
         C            3.412380436380    -0.550556363493    -0.258857382130    12.000000000000
         H           -0.937208563620     0.591500636507    -1.514823382130     1.007825032230
         H           -3.362184563620     0.642761636507    -1.146397382130     1.007825032230
         H           -0.439892563620     1.221976636507     1.404065617870     1.007825032230
         H           -3.281559563620    -0.908637363493     1.130850617870     1.007825032230
         H           -1.712910563620    -1.700208363493    -1.369396382130     1.007825032230
         H           -3.485163563620    -1.833907363493    -1.184067382130     1.007825032230
         H           -0.392996663620     2.689969536507    -0.541239882130     1.007825032230
         H           -2.847158563620     2.399839636507     0.508730617870     1.007825032230
         H            0.434708436380    -1.963340363493     0.569135617870     1.007825032230
         H           -2.433476563620    -3.798335363493    -0.543165382130     1.007825032230
         H            2.829509436380    -2.645301363493     0.073989617870     1.007825032230
         H            5.125577436380    -1.670764363493    -0.162346382130     1.007825032230
         H            5.320211436380    -0.019957363493    -0.568226382130     1.007825032230

  Basis Set: AUG-CC-PVTZ
    Blend: AUG-CC-PVTZ
  Basis Set: (AUG-CC-PVTZ AUX)
    Blend: AUG-CC-PVTZ-JKFIT
	 Reference Energy          =    -886.3698284925975486 [Eh]
	 Singles Energy            =      -0.0000000000000000 [Eh]
	 Same-Spin Energy          =      -0.8995820142106634 [Eh]
	 Opposite-Spin Energy      =      -2.7121211810457466 [Eh]
	 Correlation Energy        =      -3.6117031952564100 [Eh]
	 Total Energy              =    -889.9815316878539306 [Eh]

	 ================> DF-SCS-MP2 Energies <==================
	-----------------------------------------------------------
	 SCS Same-Spin Scale       =       0.3333333333333333 [-]
	 SCS Opposite-Spin Scale   =       1.2000000000000000 [-]
	 SCS Same-Spin Energy      =      -0.2998606714035544 [Eh]
	 SCS Opposite-Spin Energy  =      -3.2545454172548958 [Eh]
	 SCS Correlation Energy    =      -3.5544060886584501 [Eh]
	 SCS Total Energy          =    -889.9242345812559734 [Eh]
	-----------------------------------------------------------

  Dipole Moment: [D]
     X:     1.3955      Y:    -5.9193      Z:    -1.8666     Total:     6.3615

*** Psi4 exiting successfully. Buy a developer a beer!
