                               Psi4 1.3.2 release

  ==> Input File <==

--------------------------------------------------------------------------
#psi4
#
memory 32 gb

molecule  {
0 1
  O       -2.2261580     0.9189870    -0.1609950
  N        0.4211910     1.5299470     0.0903790
  C        0.0817250     0.2107030     0.0159890
  C        2.4145630    -0.5010270    -0.0428790
  C       -1.3460660    -0.1139160     0.0206840
  C        1.0420520    -0.8182650    -0.0594370
  C        2.7641530     0.8636850     0.0360660
  C       -2.0431226    -1.3169265     0.0239695
  C        3.4684270    -1.5756500    -0.0824610
  C        1.7493340     1.8260270     0.0926910
  C       -3.4286880    -0.9658200     0.0768380
  C       -3.4828100     0.3886030    -0.1245500
  H        0.7225460    -1.8551450    -0.1446860
  H        3.8080070     1.1710760     0.0438400
  H       -1.6259220    -2.2752860     0.3500510
  H        3.8398640    -1.7937090     0.9244500
  H        3.0687740    -2.5034170    -0.5007000
  H        4.3228250    -1.2652800    -0.6906580
  H        1.9977040     2.8869120     0.1452960
  H       -4.2730300    -1.6376780     0.1527080
  H       -4.2894270     1.0948070    -0.2563320
units angstrom
no_reorient  #important for SAPT in psi4, default
symmetry c1  #important for SAPT in psi4, default
}

set PROPERTIES_ORIGIN ["COM"]
properties('MP2/aug-cc-pvtz', properties = ['dipole'])
--------------------------------------------------------------------------

    Molecular point group: c1
  Charge       = 0
  Multiplicity = 1
  Basis Set: AUG-CC-PVTZ
    Blend: AUG-CC-PVTZ
  Basis Set: (AUG-CC-PVTZ AUX)
    Blend: AUG-CC-PVTZ-JKFIT

    Orbital Energies [Eh]
    ---------------------

    Doubly Occupied:

       1A    -20.622812     2A    -15.564429     3A    -11.300553
       4A    -11.294904     5A    -11.293038     6A    -11.279126
       7A    -11.272169     8A    -11.243038     9A    -11.240699
      10A    -11.239691    11A    -11.239068    12A    -11.234738
      13A     -1.454641    14A     -1.244765    15A     -1.104664
      16A     -1.086147    17A     -1.058116    18A     -0.984274
      19A     -0.968331    20A     -0.863467    21A     -0.836400
      22A     -0.799477    23A     -0.762791    24A     -0.727163
      25A     -0.673481    26A     -0.668895    27A     -0.640129
      28A     -0.634484    29A     -0.599725    30A     -0.590847
      31A     -0.576390    32A     -0.563190    33A     -0.558236
      34A     -0.547524    35A     -0.539302    36A     -0.526255
      37A     -0.509940    38A     -0.418168    39A     -0.402115
      40A     -0.376363    41A     -0.362903    42A     -0.287667

  @DF-RHF Final Energy:  -513.37062851687892

   => Energetics <=

    Nuclear Repulsion Energy =            628.6927666257794272
    One-Electron Energy =               -1943.7465622158579208
    Two-Electron Energy =                 801.6831670731996837
    Total Energy =                       -513.3706285168789236
  Basis Set: (AUG-CC-PVTZ AUX)
    Blend: AUG-CC-PVTZ-RI
    Molecular point group: c1

    Geometry (in Angstrom), charge = 0, multiplicity = 1:

       Center              X                  Y                   Z               Mass
    ------------   -----------------  -----------------  -----------------  -----------------
         O           -2.179361515229     0.882109906284    -0.149663807017    15.994914619570
         N            0.467987484771     1.493069906284     0.101710192983    14.003074004430
         C            0.128521484771     0.173825906284     0.027320192983    12.000000000000
         C            2.461359484771    -0.537904093716    -0.031547807017    12.000000000000
         C           -1.299269515229    -0.150793093716     0.032015192983    12.000000000000
         C            1.088848484771    -0.855142093716    -0.048105807017    12.000000000000
         C            2.810949484771     0.826807906284     0.047397192983    12.000000000000
         C           -1.996326115229    -1.353803593716     0.035300692983    12.000000000000
         C            3.515223484771    -1.612527093716    -0.071129807017    12.000000000000
         C            1.796130484771     1.789149906284     0.104022192983    12.000000000000
         C           -3.381891515229    -1.002697093716     0.088169192983    12.000000000000
         C           -3.436013515229     0.351725906284    -0.113218807017    12.000000000000
         H            0.769342484771    -1.892022093716    -0.133354807017     1.007825032230
         H            3.854803484771     1.134198906284     0.055171192983     1.007825032230
         H           -1.579125515229    -2.312163093716     0.361382192983     1.007825032230
         H            3.886660484771    -1.830586093716     0.935781192983     1.007825032230
         H            3.115570484771    -2.540294093716    -0.489368807017     1.007825032230
         H            4.369621484771    -1.302157093716    -0.679326807017     1.007825032230
         H            2.044500484771     2.850034906284     0.156627192983     1.007825032230
         H           -4.226233515229    -1.674555093716     0.164039192983     1.007825032230
         H           -4.242630515229     1.057929906284    -0.245000807017     1.007825032230

  Basis Set: AUG-CC-PVTZ
    Blend: AUG-CC-PVTZ
  Basis Set: (AUG-CC-PVTZ AUX)
    Blend: AUG-CC-PVTZ-JKFIT
	 Reference Energy          =    -513.3706285168789236 [Eh]
	 Singles Energy            =      -0.0000000000000000 [Eh]
	 Same-Spin Energy          =      -0.5594866373782266 [Eh]
	 Opposite-Spin Energy      =      -1.7146969240101062 [Eh]
	 Correlation Energy        =      -2.2741835613883330 [Eh]
	 Total Energy              =    -515.6448120782672504 [Eh]

	 ================> DF-SCS-MP2 Energies <==================
	-----------------------------------------------------------
	 SCS Same-Spin Scale       =       0.3333333333333333 [-]
	 SCS Opposite-Spin Scale   =       1.2000000000000000 [-]
	 SCS Same-Spin Energy      =      -0.1864955457927422 [Eh]
	 SCS Opposite-Spin Energy  =      -2.0576363088121274 [Eh]
	 SCS Correlation Energy    =      -2.2441318546048699 [Eh]
	 SCS Total Energy          =    -515.6147603714838397 [Eh]
	-----------------------------------------------------------

  Dipole Moment: [D]
     X:     1.4821      Y:    -2.3021      Z:     0.1073     Total:     2.7400

*** Psi4 exiting successfully. Buy a developer a beer!
