                               Psi4 1.3.2 release

  ==> Input File <==

--------------------------------------------------------------------------
#psi4
#
memory 32 gb

molecule  {
0 1
  O       -2.2261580     0.9189870    -0.1609950
  N        0.4211910     1.5299470     0.0903790
  C        0.0817250     0.2107030     0.0159890
  C        2.4145630    -0.5010270    -0.0428790
  C       -1.3460660    -0.1139160     0.0206840
  C        1.0444443    -0.8271843     0.0902785
  C        2.7641530     0.8636850     0.0360660
  C       -2.0477590    -1.2949740     0.1722820
  C        3.4684270    -1.5756500    -0.0824610
  C        1.7493340     1.8260270     0.0926910
  C       -3.4286880    -0.9658200     0.0768380
  C       -3.4828100     0.3886030    -0.1245500
  H        0.7225460    -1.8551450    -0.1446860
  H        3.8080070     1.1710760     0.0438400
  H       -1.6259220    -2.2752860     0.3500510
  H        3.8398640    -1.7937090     0.9244500
  H        3.0687740    -2.5034170    -0.5007000
  H        4.3228250    -1.2652800    -0.6906580
  H        1.9977040     2.8869120     0.1452960
  H       -4.2730300    -1.6376780     0.1527080
  H       -4.2894270     1.0948070    -0.2563320
units angstrom
no_reorient  #important for SAPT in psi4, default
symmetry c1  #important for SAPT in psi4, default
}

set PROPERTIES_ORIGIN ["COM"]
properties('MP2/aug-cc-pvtz', properties = ['dipole'])
--------------------------------------------------------------------------

    Molecular point group: c1
  Charge       = 0
  Multiplicity = 1
  Basis Set: AUG-CC-PVTZ
    Blend: AUG-CC-PVTZ
  Basis Set: (AUG-CC-PVTZ AUX)
    Blend: AUG-CC-PVTZ-JKFIT

    Orbital Energies [Eh]
    ---------------------

    Doubly Occupied:

       1A    -20.622105     2A    -15.563345     3A    -11.297396
       4A    -11.296190     5A    -11.293742     6A    -11.279808
       7A    -11.273319     8A    -11.243781     9A    -11.239416
      10A    -11.239372    11A    -11.238096    12A    -11.234137
      13A     -1.454168    14A     -1.244025    15A     -1.103700
      16A     -1.088050    17A     -1.057373    18A     -0.984232
      19A     -0.967394    20A     -0.862646    21A     -0.835430
      22A     -0.800332    23A     -0.764778    24A     -0.727276
      25A     -0.670669    26A     -0.667300    27A     -0.638665
      28A     -0.634100    29A     -0.598739    30A     -0.590662
      31A     -0.578289    32A     -0.566301    33A     -0.557936
      34A     -0.546753    35A     -0.540934    36A     -0.524774
      37A     -0.508475    38A     -0.416960    39A     -0.403021
      40A     -0.375853    41A     -0.362488    42A     -0.287727

  @DF-RHF Final Energy:  -513.37046347147475

   => Energetics <=

    Nuclear Repulsion Energy =            628.6900272060836414
    One-Electron Energy =               -1943.7614629721731490
    Two-Electron Energy =                 801.7009722946147576
    Total Energy =                       -513.3704634714747499
  Basis Set: (AUG-CC-PVTZ AUX)
    Blend: AUG-CC-PVTZ-RI
    Molecular point group: c1

    Geometry (in Angstrom), charge = 0, multiplicity = 1:

       Center              X                  Y                   Z               Mass
    ------------   -----------------  -----------------  -----------------  -----------------
         O           -2.179192222034     0.881126691602    -0.172146812361    15.994914619570
         N            0.468156777966     1.492086691602     0.079227187639    14.003074004430
         C            0.128690777966     0.172842691602     0.004837187639    12.000000000000
         C            2.461528777966    -0.538887308398    -0.054030812361    12.000000000000
         C           -1.299100222034    -0.151776308398     0.009532187639    12.000000000000
         C            1.091410077966    -0.865044608398     0.079126687639    12.000000000000
         C            2.811118777966     0.825824691602     0.024914187639    12.000000000000
         C           -2.000793222034    -1.332834308398     0.161130187639    12.000000000000
         C            3.515392777966    -1.613510308398    -0.093612812361    12.000000000000
         C            1.796299777966     1.788166691602     0.081539187639    12.000000000000
         C           -3.381722222034    -1.003680308398     0.065686187639    12.000000000000
         C           -3.435844222034     0.350742691602    -0.135701812361    12.000000000000
         H            0.769511777966    -1.893005308398    -0.155837812361     1.007825032230
         H            3.854972777966     1.133215691602     0.032688187639     1.007825032230
         H           -1.578956222034    -2.313146308398     0.338899187639     1.007825032230
         H            3.886829777966    -1.831569308398     0.913298187639     1.007825032230
         H            3.115739777966    -2.541277308398    -0.511851812361     1.007825032230
         H            4.369790777966    -1.303140308398    -0.701809812361     1.007825032230
         H            2.044669777966     2.849051691602     0.134144187639     1.007825032230
         H           -4.226064222034    -1.675538308398     0.141556187639     1.007825032230
         H           -4.242461222034     1.056946691602    -0.267483812361     1.007825032230

  Basis Set: AUG-CC-PVTZ
    Blend: AUG-CC-PVTZ
  Basis Set: (AUG-CC-PVTZ AUX)
    Blend: AUG-CC-PVTZ-JKFIT
	 Reference Energy          =    -513.3704634714747499 [Eh]
	 Singles Energy            =      -0.0000000000000000 [Eh]
	 Same-Spin Energy          =      -0.5593263677266569 [Eh]
	 Opposite-Spin Energy      =      -1.7142125436661908 [Eh]
	 Correlation Energy        =      -2.2735389113928477 [Eh]
	 Total Energy              =    -515.6440023828675976 [Eh]

	 ================> DF-SCS-MP2 Energies <==================
	-----------------------------------------------------------
	 SCS Same-Spin Scale       =       0.3333333333333333 [-]
	 SCS Opposite-Spin Scale   =       1.2000000000000000 [-]
	 SCS Same-Spin Energy      =      -0.1864421225755523 [Eh]
	 SCS Opposite-Spin Energy  =      -2.0570550523994289 [Eh]
	 SCS Correlation Energy    =      -2.2434971749749812 [Eh]
	 SCS Total Energy          =    -515.6139606464497547 [Eh]
	-----------------------------------------------------------

  Dipole Moment: [D]
     X:     1.4729      Y:    -2.3269      Z:    -0.0449     Total:     2.7543

*** Psi4 exiting successfully. Buy a developer a beer!
