                               Psi4 1.3.2 release

  ==> Input File <==

--------------------------------------------------------------------------
#psi4
#
memory 32 gb

molecule  {
0 1
  O       -2.2261580     0.9189870    -0.1609950
  N        0.4211910     1.5299470     0.0903790
  C        0.0817250     0.2107030     0.0159890
  C        2.4145630    -0.5010270    -0.0428790
  C       -1.3460660    -0.1139160     0.0206840
  C        1.0436468    -0.8242112     0.0403733
  C        2.7641530     0.8636850     0.0360660
  C       -2.0477590    -1.2949740     0.1722820
  C        3.4684270    -1.5756500    -0.0824610
  C        1.7493340     1.8260270     0.0926910
  C       -3.4286880    -0.9658200     0.0768380
  C       -3.4828100     0.3886030    -0.1245500
  H        0.7225460    -1.8551450    -0.1446860
  H        3.8080070     1.1710760     0.0438400
  H       -1.6259220    -2.2752860     0.3500510
  H        3.8398640    -1.7937090     0.9244500
  H        3.0687740    -2.5034170    -0.5007000
  H        4.3228250    -1.2652800    -0.6906580
  H        1.9977040     2.8869120     0.1452960
  H       -4.2730300    -1.6376780     0.1527080
  H       -4.2894270     1.0948070    -0.2563320
units angstrom
no_reorient  #important for SAPT in psi4, default
symmetry c1  #important for SAPT in psi4, default
}

set PROPERTIES_ORIGIN ["COM"]
properties('MP2/aug-cc-pvtz', properties = ['dipole'])
--------------------------------------------------------------------------

    Molecular point group: c1
  Charge       = 0
  Multiplicity = 1
  Basis Set: AUG-CC-PVTZ
    Blend: AUG-CC-PVTZ
  Basis Set: (AUG-CC-PVTZ AUX)
    Blend: AUG-CC-PVTZ-JKFIT

    Orbital Energies [Eh]
    ---------------------

    Doubly Occupied:

       1A    -20.621999     2A    -15.563541     3A    -11.297331
       4A    -11.295288     5A    -11.293502     6A    -11.279225
       7A    -11.272463     8A    -11.243072     9A    -11.239441
      10A    -11.239157    11A    -11.238303    12A    -11.234017
      13A     -1.454053    14A     -1.244124    15A     -1.104075
      16A     -1.087956    17A     -1.057603    18A     -0.984289
      19A     -0.967772    20A     -0.862926    21A     -0.835849
      22A     -0.800312    23A     -0.764844    24A     -0.727536
      25A     -0.671883    26A     -0.668052    27A     -0.639188
      28A     -0.633933    29A     -0.599121    30A     -0.590655
      31A     -0.578608    32A     -0.566249    33A     -0.558470
      34A     -0.547161    35A     -0.540818    36A     -0.525130
      37A     -0.509245    38A     -0.417220    39A     -0.402888
      40A     -0.376051    41A     -0.362570    42A     -0.287728

  @DF-RHF Final Energy:  -513.37421860767711

   => Energetics <=

    Nuclear Repulsion Energy =            628.8306597709901098
    One-Electron Energy =               -1944.0424563225028578
    Two-Electron Energy =                 801.8375779438355266
    Total Energy =                       -513.3742186076771077
  Basis Set: (AUG-CC-PVTZ AUX)
    Blend: AUG-CC-PVTZ-RI
    Molecular point group: c1

    Geometry (in Angstrom), charge = 0, multiplicity = 1:

       Center              X                  Y                   Z               Mass
    ------------   -----------------  -----------------  -----------------  -----------------
         O           -2.179132059241     0.880902403202    -0.168382002080    15.994914619570
         N            0.468216940759     1.491862403202     0.082991997920    14.003074004430
         C            0.128750940759     0.172618403202     0.008601997920    12.000000000000
         C            2.461588940759    -0.539111596798    -0.050266002080    12.000000000000
         C           -1.299040059241    -0.152000596798     0.013296997920    12.000000000000
         C            1.090672740759    -0.862295796798     0.032986297920    12.000000000000
         C            2.811178940759     0.825600403202     0.028678997920    12.000000000000
         C           -2.000733059241    -1.333058596798     0.164894997920    12.000000000000
         C            3.515452940759    -1.613734596798    -0.089848002080    12.000000000000
         C            1.796359940759     1.787942403202     0.085303997920    12.000000000000
         C           -3.381662059241    -1.003904596798     0.069450997920    12.000000000000
         C           -3.435784059241     0.350518403202    -0.131937002080    12.000000000000
         H            0.769571940759    -1.893229596798    -0.152073002080     1.007825032230
         H            3.855032940759     1.132991403202     0.036452997920     1.007825032230
         H           -1.578896059241    -2.313370596798     0.342663997920     1.007825032230
         H            3.886889940759    -1.831793596798     0.917062997920     1.007825032230
         H            3.115799940759    -2.541501596798    -0.508087002080     1.007825032230
         H            4.369850940759    -1.303364596798    -0.698045002080     1.007825032230
         H            2.044729940759     2.848827403202     0.137908997920     1.007825032230
         H           -4.226004059241    -1.675762596798     0.145320997920     1.007825032230
         H           -4.242401059241     1.056722403202    -0.263719002080     1.007825032230

  Basis Set: AUG-CC-PVTZ
    Blend: AUG-CC-PVTZ
  Basis Set: (AUG-CC-PVTZ AUX)
    Blend: AUG-CC-PVTZ-JKFIT
	 Reference Energy          =    -513.3742186076771077 [Eh]
	 Singles Energy            =      -0.0000000000000000 [Eh]
	 Same-Spin Energy          =      -0.5591905488897326 [Eh]
	 Opposite-Spin Energy      =      -1.7138662938593581 [Eh]
	 Correlation Energy        =      -2.2730568427490905 [Eh]
	 Total Energy              =    -515.6472754504261502 [Eh]

	 ================> DF-SCS-MP2 Energies <==================
	-----------------------------------------------------------
	 SCS Same-Spin Scale       =       0.3333333333333333 [-]
	 SCS Opposite-Spin Scale   =       1.2000000000000000 [-]
	 SCS Same-Spin Energy      =      -0.1863968496299109 [Eh]
	 SCS Opposite-Spin Energy  =      -2.0566395526312298 [Eh]
	 SCS Correlation Energy    =      -2.2430364022611409 [Eh]
	 SCS Total Energy          =    -515.6172550099382761 [Eh]
	-----------------------------------------------------------

  Dipole Moment: [D]
     X:     1.4773      Y:    -2.3504      Z:    -0.0315     Total:     2.7763

*** Psi4 exiting successfully. Buy a developer a beer!
