                               Psi4 1.3.2 release

  ==> Input File <==

--------------------------------------------------------------------------
#psi4
#
memory 32 gb

molecule  {
0 1
  O       -2.2261580     0.9189870    -0.1609950
  N        0.4211910     1.5299470     0.0903790
  C        0.0817250     0.2107030     0.0159890
  C        2.4145630    -0.5010270    -0.0428790
  C       -1.3460660    -0.1139160     0.0206840
  C        1.0420520    -0.8182650    -0.0594370
  C        2.7641530     0.8636850     0.0360660
  C       -2.0415771    -1.3242440    -0.0254680
  C        3.4684270    -1.5756500    -0.0824610
  C        1.7493340     1.8260270     0.0926910
  C       -3.4286880    -0.9658200     0.0768380
  C       -3.4828100     0.3886030    -0.1245500
  H        0.7225460    -1.8551450    -0.1446860
  H        3.8080070     1.1710760     0.0438400
  H       -1.6259220    -2.2752860     0.3500510
  H        3.8398640    -1.7937090     0.9244500
  H        3.0687740    -2.5034170    -0.5007000
  H        4.3228250    -1.2652800    -0.6906580
  H        1.9977040     2.8869120     0.1452960
  H       -4.2730300    -1.6376780     0.1527080
  H       -4.2894270     1.0948070    -0.2563320
units angstrom
no_reorient  #important for SAPT in psi4, default
symmetry c1  #important for SAPT in psi4, default
}

set PROPERTIES_ORIGIN ["COM"]
properties('MP2/aug-cc-pvtz', properties = ['dipole'])
--------------------------------------------------------------------------

    Molecular point group: c1
  Charge       = 0
  Multiplicity = 1
  Basis Set: AUG-CC-PVTZ
    Blend: AUG-CC-PVTZ
  Basis Set: (AUG-CC-PVTZ AUX)
    Blend: AUG-CC-PVTZ-JKFIT

    Orbital Energies [Eh]
    ---------------------

    Doubly Occupied:

       1A    -20.623392     2A    -15.565015     3A    -11.302888
       4A    -11.295207     5A    -11.292811     6A    -11.279456
       7A    -11.272454     8A    -11.243510     9A    -11.241907
      10A    -11.239886    11A    -11.239603    12A    -11.235272
      13A     -1.455077    14A     -1.245233    15A     -1.105002
      16A     -1.084742    17A     -1.058313    18A     -0.984224
      19A     -0.968550    20A     -0.863691    21A     -0.836576
      22A     -0.798916    23A     -0.761323    24A     -0.726733
      25A     -0.673774    26A     -0.669155    27A     -0.640405
      28A     -0.634893    29A     -0.599839    30A     -0.591069
      31A     -0.575065    32A     -0.561809    33A     -0.556611
      34A     -0.547603    35A     -0.538180    36A     -0.526692
      37A     -0.510011    38A     -0.418631    39A     -0.401676
      40A     -0.376436    41A     -0.363151    42A     -0.287692

  @DF-RHF Final Energy:  -513.36551215045972

   => Energetics <=

    Nuclear Repulsion Energy =            628.4989724561967250
    One-Electron Energy =               -1943.3440241436942415
    Two-Electron Energy =                 801.4795395370377946
    Total Energy =                       -513.3655121504597219
  Basis Set: (AUG-CC-PVTZ AUX)
    Blend: AUG-CC-PVTZ-RI
    Molecular point group: c1

    Geometry (in Angstrom), charge = 0, multiplicity = 1:

       Center              X                  Y                   Z               Mass
    ------------   -----------------  -----------------  -----------------  -----------------
         O           -2.179478106572     0.882661932911    -0.145934279669    15.994914619570
         N            0.467870893428     1.493621932911     0.105439720331    14.003074004430
         C            0.128404893428     0.174377932911     0.031049720331    12.000000000000
         C            2.461242893428    -0.537352067089    -0.027818279669    12.000000000000
         C           -1.299386106572    -0.150241067089     0.035744720331    12.000000000000
         C            1.088731893428    -0.854590067089    -0.044376279669    12.000000000000
         C            2.810832893428     0.827359932911     0.051126720331    12.000000000000
         C           -1.994897206572    -1.360569067089    -0.010407279669    12.000000000000
         C            3.515106893428    -1.611975067089    -0.067400279669    12.000000000000
         C            1.796013893428     1.789701932911     0.107751720331    12.000000000000
         C           -3.382008106572    -1.002145067089     0.091898720331    12.000000000000
         C           -3.436130106572     0.352277932911    -0.109489279669    12.000000000000
         H            0.769225893428    -1.891470067089    -0.129625279669     1.007825032230
         H            3.854686893428     1.134750932911     0.058900720331     1.007825032230
         H           -1.579242106572    -2.311611067089     0.365111720331     1.007825032230
         H            3.886543893428    -1.830034067089     0.939510720331     1.007825032230
         H            3.115453893428    -2.539742067089    -0.485639279669     1.007825032230
         H            4.369504893428    -1.301605067089    -0.675597279669     1.007825032230
         H            2.044383893428     2.850586932911     0.160356720331     1.007825032230
         H           -4.226350106572    -1.674003067089     0.167768720331     1.007825032230
         H           -4.242747106572     1.058481932911    -0.241271279669     1.007825032230

  Basis Set: AUG-CC-PVTZ
    Blend: AUG-CC-PVTZ
  Basis Set: (AUG-CC-PVTZ AUX)
    Blend: AUG-CC-PVTZ-JKFIT
	 Reference Energy          =    -513.3655121504597219 [Eh]
	 Singles Energy            =      -0.0000000000000000 [Eh]
	 Same-Spin Energy          =      -0.5597738131358995 [Eh]
	 Opposite-Spin Energy      =      -1.7155139728118574 [Eh]
	 Correlation Energy        =      -2.2752877859477567 [Eh]
	 Total Energy              =    -515.6407999364074612 [Eh]

	 ================> DF-SCS-MP2 Energies <==================
	-----------------------------------------------------------
	 SCS Same-Spin Scale       =       0.3333333333333333 [-]
	 SCS Opposite-Spin Scale   =       1.2000000000000000 [-]
	 SCS Same-Spin Energy      =      -0.1865912710452998 [Eh]
	 SCS Opposite-Spin Energy  =      -2.0586167673742288 [Eh]
	 SCS Correlation Energy    =      -2.2452080384195288 [Eh]
	 SCS Total Energy          =    -515.6107201888792133 [Eh]
	-----------------------------------------------------------

  Dipole Moment: [D]
     X:     1.4914      Y:    -2.2562      Z:     0.1428     Total:     2.7083

*** Psi4 exiting successfully. Buy a developer a beer!
