                               Psi4 1.3.2 release

  ==> Input File <==

--------------------------------------------------------------------------
#psi4
#
memory 32 gb

molecule  {
0 1
  O       -2.2261580     0.9189870    -0.1609950
  N        0.4211910     1.5299470     0.0903790
  C        0.0817250     0.2107030     0.0159890
  C        2.4145630    -0.5010270    -0.0428790
  C       -1.3460660    -0.1139160     0.0206840
  C        1.0452417    -0.8301575     0.1401836
  C        2.7641530     0.8636850     0.0360660
  C       -2.0477590    -1.2949740     0.1722820
  C        3.4684270    -1.5756500    -0.0824610
  C        1.7493340     1.8260270     0.0926910
  C       -3.4286880    -0.9658200     0.0768380
  C       -3.4828100     0.3886030    -0.1245500
  H        0.7225460    -1.8551450    -0.1446860
  H        3.8080070     1.1710760     0.0438400
  H       -1.6259220    -2.2752860     0.3500510
  H        3.8398640    -1.7937090     0.9244500
  H        3.0687740    -2.5034170    -0.5007000
  H        4.3228250    -1.2652800    -0.6906580
  H        1.9977040     2.8869120     0.1452960
  H       -4.2730300    -1.6376780     0.1527080
  H       -4.2894270     1.0948070    -0.2563320
units angstrom
no_reorient  #important for SAPT in psi4, default
symmetry c1  #important for SAPT in psi4, default
}

set PROPERTIES_ORIGIN ["COM"]
properties('MP2/aug-cc-pvtz', properties = ['dipole'])
--------------------------------------------------------------------------

    Molecular point group: c1
  Charge       = 0
  Multiplicity = 1
  Basis Set: AUG-CC-PVTZ
    Blend: AUG-CC-PVTZ
  Basis Set: (AUG-CC-PVTZ AUX)
    Blend: AUG-CC-PVTZ-JKFIT

    Orbital Energies [Eh]
    ---------------------

    Doubly Occupied:

       1A    -20.622251     2A    -15.563093     3A    -11.297906
       4A    -11.296984     5A    -11.294066     6A    -11.280626
       7A    -11.274526     8A    -11.244758     9A    -11.239671
      10A    -11.239392    11A    -11.237824    12A    -11.234297
      13A     -1.454324    14A     -1.243892    15A     -1.103159
      16A     -1.088176    17A     -1.057059    18A     -0.984163
      19A     -0.966859    20A     -0.862266    21A     -0.834866
      22A     -0.800372    23A     -0.764691    24A     -0.726942
      25A     -0.669241    26A     -0.666244    27A     -0.637958
      28A     -0.634284    29A     -0.598291    30A     -0.590661
      31A     -0.577873    32A     -0.566381    33A     -0.557166
      34A     -0.546219    35A     -0.541075    36A     -0.524287
      37A     -0.507322    38A     -0.416676    39A     -0.403109
      40A     -0.375505    41A     -0.362353    42A     -0.287804

  @DF-RHF Final Energy:  -513.36517526617388

   => Energetics <=

    Nuclear Repulsion Energy =            628.4909027228902687
    One-Electron Energy =               -1943.3629334491190548
    Two-Electron Energy =                 801.5068554600549078
    Total Energy =                       -513.3651752661738783
  Basis Set: (AUG-CC-PVTZ AUX)
    Blend: AUG-CC-PVTZ-RI
    Molecular point group: c1

    Geometry (in Angstrom), charge = 0, multiplicity = 1:

       Center              X                  Y                   Z               Mass
    ------------   -----------------  -----------------  -----------------  -----------------
         O           -2.179252377283     0.881350987545    -0.175911615097    15.994914619570
         N            0.468096622717     1.492310987545     0.075462384903    14.003074004430
         C            0.128630622717     0.173066987545     0.001072384903    12.000000000000
         C            2.461468622717    -0.538663012455    -0.057795615097    12.000000000000
         C           -1.299160377283    -0.151552012455     0.005767384903    12.000000000000
         C            1.092147322717    -0.867793512455     0.125266984903    12.000000000000
         C            2.811058622717     0.826048987545     0.021149384903    12.000000000000
         C           -2.000853377283    -1.332610012455     0.157365384903    12.000000000000
         C            3.515332622717    -1.613286012455    -0.097377615097    12.000000000000
         C            1.796239622717     1.788390987545     0.077774384903    12.000000000000
         C           -3.381782377283    -1.003456012455     0.061921384903    12.000000000000
         C           -3.435904377283     0.350966987545    -0.139466615097    12.000000000000
         H            0.769451622717    -1.892781012455    -0.159602615097     1.007825032230
         H            3.854912622717     1.133439987545     0.028923384903     1.007825032230
         H           -1.579016377283    -2.312922012455     0.335134384903     1.007825032230
         H            3.886769622717    -1.831345012455     0.909533384903     1.007825032230
         H            3.115679622717    -2.541053012455    -0.515616615097     1.007825032230
         H            4.369730622717    -1.302916012455    -0.705574615097     1.007825032230
         H            2.044609622717     2.849275987545     0.130379384903     1.007825032230
         H           -4.226124377283    -1.675314012455     0.137791384903     1.007825032230
         H           -4.242521377283     1.057170987545    -0.271248615097     1.007825032230

  Basis Set: AUG-CC-PVTZ
    Blend: AUG-CC-PVTZ
  Basis Set: (AUG-CC-PVTZ AUX)
    Blend: AUG-CC-PVTZ-JKFIT
	 Reference Energy          =    -513.3651752661738783 [Eh]
	 Singles Energy            =      -0.0000000000000000 [Eh]
	 Same-Spin Energy          =      -0.5595107120768226 [Eh]
	 Opposite-Spin Energy      =      -1.7147487565035839 [Eh]
	 Correlation Energy        =      -2.2742594685804063 [Eh]
	 Total Energy              =    -515.6394347347543317 [Eh]

	 ================> DF-SCS-MP2 Energies <==================
	-----------------------------------------------------------
	 SCS Same-Spin Scale       =       0.3333333333333333 [-]
	 SCS Opposite-Spin Scale   =       1.2000000000000000 [-]
	 SCS Same-Spin Energy      =      -0.1865035706922742 [Eh]
	 SCS Opposite-Spin Energy  =      -2.0576985078043006 [Eh]
	 SCS Correlation Energy    =      -2.2442020784965750 [Eh]
	 SCS Total Energy          =    -515.6093773446704063 [Eh]
	-----------------------------------------------------------

  Dipole Moment: [D]
     X:     1.4676      Y:    -2.2953      Z:    -0.0587     Total:     2.7250

*** Psi4 exiting successfully. Buy a developer a beer!
