                               Psi4 1.3.2 release

  ==> Input File <==

--------------------------------------------------------------------------
#psi4
#
memory 32 gb

molecule  {
0 1
  O       -2.2261580     0.9189870    -0.1609950
  N        0.4211910     1.5299470     0.0903790
  C        0.0817250     0.2107030     0.0159890
  C        2.4145630    -0.5010270    -0.0428790
  C       -1.3460660    -0.1139160     0.0206840
  C        1.0420520    -0.8182650    -0.0594370
  C        2.7641530     0.8636850     0.0360660
  C       -2.0462135    -1.3022915     0.1228445
  C        3.4684270    -1.5756500    -0.0824610
  C        1.7493340     1.8260270     0.0926910
  C       -3.4286880    -0.9658200     0.0768380
  C       -3.4828100     0.3886030    -0.1245500
  H        0.7225460    -1.8551450    -0.1446860
  H        3.8080070     1.1710760     0.0438400
  H       -1.6259220    -2.2752860     0.3500510
  H        3.8398640    -1.7937090     0.9244500
  H        3.0687740    -2.5034170    -0.5007000
  H        4.3228250    -1.2652800    -0.6906580
  H        1.9977040     2.8869120     0.1452960
  H       -4.2730300    -1.6376780     0.1527080
  H       -4.2894270     1.0948070    -0.2563320
units angstrom
no_reorient  #important for SAPT in psi4, default
symmetry c1  #important for SAPT in psi4, default
}

set PROPERTIES_ORIGIN ["COM"]
properties('MP2/aug-cc-pvtz', properties = ['dipole'])
--------------------------------------------------------------------------

    Molecular point group: c1
  Charge       = 0
  Multiplicity = 1
  Basis Set: AUG-CC-PVTZ
    Blend: AUG-CC-PVTZ
  Basis Set: (AUG-CC-PVTZ AUX)
    Blend: AUG-CC-PVTZ-JKFIT

    Orbital Energies [Eh]
    ---------------------

    Doubly Occupied:

       1A    -20.622071     2A    -15.563788     3A    -11.297746
       4A    -11.294525     5A    -11.293275     6A    -11.278771
       7A    -11.271874     8A    -11.242549     9A    -11.239496
      10A    -11.239216    11A    -11.238513    12A    -11.234039
      13A     -1.454078    14A     -1.244246    15A     -1.104314
      16A     -1.087712    17A     -1.057851    18A     -0.984334
      19A     -0.968110    20A     -0.863201    21A     -0.836204
      22A     -0.800192    23A     -0.764623    24A     -0.727683
      25A     -0.673185    26A     -0.668664    27A     -0.639796
      28A     -0.633819    29A     -0.599663    30A     -0.590624
      31A     -0.578493    32A     -0.565796    33A     -0.558911
      34A     -0.547508    35A     -0.540483    36A     -0.525602
      37A     -0.509840    38A     -0.417693    39A     -0.402537
      40A     -0.376130    41A     -0.362593    42A     -0.287801

  @DF-RHF Final Energy:  -513.37645646284147

   => Energetics <=

    Nuclear Repulsion Energy =            628.9102476844660714
    One-Electron Energy =               -1944.1983076466199236
    Two-Electron Energy =                 801.9116034993124913
    Total Energy =                       -513.3764564628414746
  Basis Set: (AUG-CC-PVTZ AUX)
    Blend: AUG-CC-PVTZ-RI
    Molecular point group: c1

    Geometry (in Angstrom), charge = 0, multiplicity = 1:

       Center              X                  Y                   Z               Mass
    ------------   -----------------  -----------------  -----------------  -----------------
         O           -2.179128340087     0.881005853029    -0.157122861714    15.994914619570
         N            0.468220659913     1.491965853029     0.094251138286    14.003074004430
         C            0.128754659913     0.172721853029     0.019861138286    12.000000000000
         C            2.461592659913    -0.539008146971    -0.039006861714    12.000000000000
         C           -1.299036340087    -0.151897146971     0.024556138286    12.000000000000
         C            1.089081659913    -0.856246146971    -0.055564861714    12.000000000000
         C            2.811182659913     0.825703853029     0.039938138286    12.000000000000
         C           -1.999183840087    -1.340272646971     0.126716638286    12.000000000000
         C            3.515456659913    -1.613631146971    -0.078588861714    12.000000000000
         C            1.796363659913     1.788045853029     0.096563138286    12.000000000000
         C           -3.381658340087    -1.003801146971     0.080710138286    12.000000000000
         C           -3.435780340087     0.350621853029    -0.120677861714    12.000000000000
         H            0.769575659913    -1.893126146971    -0.140813861714     1.007825032230
         H            3.855036659913     1.133094853029     0.047712138286     1.007825032230
         H           -1.578892340087    -2.313267146971     0.353923138286     1.007825032230
         H            3.886893659913    -1.831690146971     0.928322138286     1.007825032230
         H            3.115803659913    -2.541398146971    -0.496827861714     1.007825032230
         H            4.369854659913    -1.303261146971    -0.686785861714     1.007825032230
         H            2.044733659913     2.848930853029     0.149168138286     1.007825032230
         H           -4.226000340087    -1.675659146971     0.156580138286     1.007825032230
         H           -4.242397340087     1.056825853029    -0.252459861714     1.007825032230

  Basis Set: AUG-CC-PVTZ
    Blend: AUG-CC-PVTZ
  Basis Set: (AUG-CC-PVTZ AUX)
    Blend: AUG-CC-PVTZ-JKFIT
	 Reference Energy          =    -513.3764564628414746 [Eh]
	 Singles Energy            =      -0.0000000000000000 [Eh]
	 Same-Spin Energy          =      -0.5591323283249817 [Eh]
	 Opposite-Spin Energy      =      -1.7137633387702103 [Eh]
	 Correlation Energy        =      -2.2728956670951921 [Eh]
	 Total Energy              =    -515.6493521299366876 [Eh]

	 ================> DF-SCS-MP2 Energies <==================
	-----------------------------------------------------------
	 SCS Same-Spin Scale       =       0.3333333333333333 [-]
	 SCS Opposite-Spin Scale   =       1.2000000000000000 [-]
	 SCS Same-Spin Energy      =      -0.1863774427749939 [Eh]
	 SCS Opposite-Spin Energy  =      -2.0565160065242520 [Eh]
	 SCS Correlation Energy    =      -2.2428934492992458 [Eh]
	 SCS Total Energy          =    -515.6193499121407058 [Eh]
	-----------------------------------------------------------

  Dipole Moment: [D]
     X:     1.4777      Y:    -2.3606      Z:     0.0338     Total:     2.7852

*** Psi4 exiting successfully. Buy a developer a beer!
