                               Psi4 1.3.2 release

  ==> Input File <==

--------------------------------------------------------------------------
#psi4
#
memory 32 gb

molecule  {
0 1
  O       -2.2261580     0.9189870    -0.1609950
  N        0.4211910     1.5299470     0.0903790
  C        0.0817250     0.2107030     0.0159890
  C        2.4145630    -0.5010270    -0.0428790
  C       -1.3460660    -0.1139160     0.0206840
  C        1.0428494    -0.8212381    -0.0095318
  C        2.7641530     0.8636850     0.0360660
  C       -2.0477590    -1.2949740     0.1722820
  C        3.4684270    -1.5756500    -0.0824610
  C        1.7493340     1.8260270     0.0926910
  C       -3.4286880    -0.9658200     0.0768380
  C       -3.4828100     0.3886030    -0.1245500
  H        0.7225460    -1.8551450    -0.1446860
  H        3.8080070     1.1710760     0.0438400
  H       -1.6259220    -2.2752860     0.3500510
  H        3.8398640    -1.7937090     0.9244500
  H        3.0687740    -2.5034170    -0.5007000
  H        4.3228250    -1.2652800    -0.6906580
  H        1.9977040     2.8869120     0.1452960
  H       -4.2730300    -1.6376780     0.1527080
  H       -4.2894270     1.0948070    -0.2563320
units angstrom
no_reorient  #important for SAPT in psi4, default
symmetry c1  #important for SAPT in psi4, default
}

set PROPERTIES_ORIGIN ["COM"]
properties('MP2/aug-cc-pvtz', properties = ['dipole'])
--------------------------------------------------------------------------

    Molecular point group: c1
  Charge       = 0
  Multiplicity = 1
  Basis Set: AUG-CC-PVTZ
    Blend: AUG-CC-PVTZ
  Basis Set: (AUG-CC-PVTZ AUX)
    Blend: AUG-CC-PVTZ-JKFIT

    Orbital Energies [Eh]
    ---------------------

    Doubly Occupied:

       1A    -20.621933     2A    -15.563671     3A    -11.297311
       4A    -11.294694     5A    -11.293345     6A    -11.278871
       7A    -11.271975     8A    -11.242651     9A    -11.239467
      10A    -11.239024    11A    -11.238436    12A    -11.233938
      13A     -1.453979    14A     -1.244181    15A     -1.104275
      16A     -1.087890    17A     -1.057744    18A     -0.984326
      19A     -0.968007    20A     -0.863098    21A     -0.836102
      22A     -0.800308    23A     -0.764882    24A     -0.727699
      25A     -0.672748    26A     -0.668515    27A     -0.639531
      28A     -0.633787    29A     -0.599435    30A     -0.590641
      31A     -0.578806    32A     -0.566220    33A     -0.558808
      34A     -0.547434    35A     -0.540730    36A     -0.525337
      37A     -0.509689    38A     -0.417458    39A     -0.402709
      40A     -0.376092    41A     -0.362587    42A     -0.287801

  @DF-RHF Final Energy:  -513.37646385770313

   => Energetics <=

    Nuclear Repulsion Energy =            628.9114720691056846
    One-Electron Energy =               -1944.2035981604603876
    Two-Electron Energy =                 801.9156622336515738
    Total Energy =                       -513.3764638577031292
  Basis Set: (AUG-CC-PVTZ AUX)
    Blend: AUG-CC-PVTZ-RI
    Molecular point group: c1

    Geometry (in Angstrom), charge = 0, multiplicity = 1:

       Center              X                  Y                   Z               Mass
    ------------   -----------------  -----------------  -----------------  -----------------
         O           -2.179071903992     0.880678114802    -0.164617199344    15.994914619570
         N            0.468277096008     1.491638114802     0.086756800656    14.003074004430
         C            0.128811096008     0.172394114802     0.012366800656    12.000000000000
         C            2.461649096008    -0.539335885198    -0.046501199344    12.000000000000
         C           -1.298979903992    -0.152224885198     0.017061800656    12.000000000000
         C            1.089935496008    -0.859546985198    -0.013153999344    12.000000000000
         C            2.811239096008     0.825376114802     0.032443800656    12.000000000000
         C           -2.000672903992    -1.333282885198     0.168659800656    12.000000000000
         C            3.515513096008    -1.613958885198    -0.086083199344    12.000000000000
         C            1.796420096008     1.787718114802     0.089068800656    12.000000000000
         C           -3.381601903992    -1.004128885198     0.073215800656    12.000000000000
         C           -3.435723903992     0.350294114802    -0.128172199344    12.000000000000
         H            0.769632096008    -1.893453885198    -0.148308199344     1.007825032230
         H            3.855093096008     1.132767114802     0.040217800656     1.007825032230
         H           -1.578835903992    -2.313594885198     0.346428800656     1.007825032230
         H            3.886950096008    -1.832017885198     0.920827800656     1.007825032230
         H            3.115860096008    -2.541725885198    -0.504322199344     1.007825032230
         H            4.369911096008    -1.303588885198    -0.694280199344     1.007825032230
         H            2.044790096008     2.848603114802     0.141673800656     1.007825032230
         H           -4.225943903992    -1.675986885198     0.149085800656     1.007825032230
         H           -4.242340903992     1.056498114802    -0.259954199344     1.007825032230

  Basis Set: AUG-CC-PVTZ
    Blend: AUG-CC-PVTZ
  Basis Set: (AUG-CC-PVTZ AUX)
    Blend: AUG-CC-PVTZ-JKFIT
	 Reference Energy          =    -513.3764638577031292 [Eh]
	 Singles Energy            =      -0.0000000000000000 [Eh]
	 Same-Spin Energy          =      -0.5591060606917526 [Eh]
	 Opposite-Spin Energy      =      -1.7136864677304038 [Eh]
	 Correlation Energy        =      -2.2727925284221566 [Eh]
	 Total Energy              =    -515.6492563861253302 [Eh]

	 ================> DF-SCS-MP2 Energies <==================
	-----------------------------------------------------------
	 SCS Same-Spin Scale       =       0.3333333333333333 [-]
	 SCS Opposite-Spin Scale   =       1.2000000000000000 [-]
	 SCS Same-Spin Energy      =      -0.1863686868972509 [Eh]
	 SCS Opposite-Spin Energy  =      -2.0564237612764846 [Eh]
	 SCS Correlation Energy    =      -2.2427924481737356 [Eh]
	 SCS Total Energy          =    -515.6192563058768883 [Eh]
	-----------------------------------------------------------

  Dipole Moment: [D]
     X:     1.4807      Y:    -2.3655      Z:    -0.0182     Total:     2.7908

*** Psi4 exiting successfully. Buy a developer a beer!
