                               Psi4 1.3.2 release

  ==> Input File <==

--------------------------------------------------------------------------
#psi4
#
memory 32 gb

molecule  {
0 1
  O       -2.2261580     0.9189870    -0.1609950
  N        0.4211910     1.5299470     0.0903790
  C        0.0817250     0.2107030     0.0159890
  C        2.4145630    -0.5010270    -0.0428790
  C       -1.3460660    -0.1139160     0.0206840
  C        1.0420520    -0.8182650    -0.0594370
  C        2.7641530     0.8636850     0.0360660
  C       -2.0400316    -1.3315615    -0.0749055
  C        3.4684270    -1.5756500    -0.0824610
  C        1.7493340     1.8260270     0.0926910
  C       -3.4286880    -0.9658200     0.0768380
  C       -3.4828100     0.3886030    -0.1245500
  H        0.7225460    -1.8551450    -0.1446860
  H        3.8080070     1.1710760     0.0438400
  H       -1.6259220    -2.2752860     0.3500510
  H        3.8398640    -1.7937090     0.9244500
  H        3.0687740    -2.5034170    -0.5007000
  H        4.3228250    -1.2652800    -0.6906580
  H        1.9977040     2.8869120     0.1452960
  H       -4.2730300    -1.6376780     0.1527080
  H       -4.2894270     1.0948070    -0.2563320
units angstrom
no_reorient  #important for SAPT in psi4, default
symmetry c1  #important for SAPT in psi4, default
}

set PROPERTIES_ORIGIN ["COM"]
properties('MP2/aug-cc-pvtz', properties = ['dipole'])
--------------------------------------------------------------------------

    Molecular point group: c1
  Charge       = 0
  Multiplicity = 1
  Basis Set: AUG-CC-PVTZ
    Blend: AUG-CC-PVTZ
  Basis Set: (AUG-CC-PVTZ AUX)
    Blend: AUG-CC-PVTZ-JKFIT

    Orbital Energies [Eh]
    ---------------------

    Doubly Occupied:

       1A    -20.624114     2A    -15.565781     3A    -11.305813
       4A    -11.295584     5A    -11.292526     6A    -11.279891
       7A    -11.272833     8A    -11.244138     9A    -11.243393
      10A    -11.240315    11A    -11.240146    12A    -11.235898
      13A     -1.455619    14A     -1.245841    15A     -1.105454
      16A     -1.082950    17A     -1.058535    18A     -0.984167
      19A     -0.968841    20A     -0.863975    21A     -0.836817
      22A     -0.798240    23A     -0.759580    24A     -0.726211
      25A     -0.674171    26A     -0.669517    27A     -0.640777
      28A     -0.635288    29A     -0.600032    30A     -0.591363
      31A     -0.573804    32A     -0.561266    33A     -0.553310
      34A     -0.547616    35A     -0.536596    36A     -0.527194
      37A     -0.510054    38A     -0.419246    39A     -0.401117
      40A     -0.376487    41A     -0.363460    42A     -0.287795

  @DF-RHF Final Energy:  -513.35888971664610

   => Energetics <=

    Nuclear Repulsion Energy =            628.2508371734500088
    One-Electron Energy =               -1942.8279425161347262
    Two-Electron Energy =                 801.2182156260386137
    Total Energy =                       -513.3588897166461038
  Basis Set: (AUG-CC-PVTZ AUX)
    Blend: AUG-CC-PVTZ-RI
    Molecular point group: c1

    Geometry (in Angstrom), charge = 0, multiplicity = 1:

       Center              X                  Y                   Z               Mass
    ------------   -----------------  -----------------  -----------------  -----------------
         O           -2.179594697915     0.883213959538    -0.142204752320    15.994914619570
         N            0.467754302085     1.494173959538     0.109169247680    14.003074004430
         C            0.128288302085     0.174929959538     0.034779247680    12.000000000000
         C            2.461126302085    -0.536800040462    -0.024088752320    12.000000000000
         C           -1.299502697915    -0.149689040462     0.039474247680    12.000000000000
         C            1.088615302085    -0.854038040462    -0.040646752320    12.000000000000
         C            2.810716302085     0.827911959538     0.054856247680    12.000000000000
         C           -1.993468297915    -1.367334540462    -0.056115252320    12.000000000000
         C            3.514990302085    -1.611423040462    -0.063670752320    12.000000000000
         C            1.795897302085     1.790253959538     0.111481247680    12.000000000000
         C           -3.382124697915    -1.001593040462     0.095628247680    12.000000000000
         C           -3.436246697915     0.352829959538    -0.105759752320    12.000000000000
         H            0.769109302085    -1.890918040462    -0.125895752320     1.007825032230
         H            3.854570302085     1.135302959538     0.062630247680     1.007825032230
         H           -1.579358697915    -2.311059040462     0.368841247680     1.007825032230
         H            3.886427302085    -1.829482040462     0.943240247680     1.007825032230
         H            3.115337302085    -2.539190040462    -0.481909752320     1.007825032230
         H            4.369388302085    -1.301053040462    -0.671867752320     1.007825032230
         H            2.044267302085     2.851138959538     0.164086247680     1.007825032230
         H           -4.226466697915    -1.673451040462     0.171498247680     1.007825032230
         H           -4.242863697915     1.059033959538    -0.237541752320     1.007825032230

  Basis Set: AUG-CC-PVTZ
    Blend: AUG-CC-PVTZ
  Basis Set: (AUG-CC-PVTZ AUX)
    Blend: AUG-CC-PVTZ-JKFIT
	 Reference Energy          =    -513.3588897166461038 [Eh]
	 Singles Energy            =      -0.0000000000000000 [Eh]
	 Same-Spin Energy          =      -0.5601258022736857 [Eh]
	 Opposite-Spin Energy      =      -1.7165518818382939 [Eh]
	 Correlation Energy        =      -2.2766776841119798 [Eh]
	 Total Energy              =    -515.6355674007580774 [Eh]

	 ================> DF-SCS-MP2 Energies <==================
	-----------------------------------------------------------
	 SCS Same-Spin Scale       =       0.3333333333333333 [-]
	 SCS Opposite-Spin Scale   =       1.2000000000000000 [-]
	 SCS Same-Spin Energy      =      -0.1867086007578952 [Eh]
	 SCS Opposite-Spin Energy  =      -2.0598622582059525 [Eh]
	 SCS Correlation Energy    =      -2.2465708589638478 [Eh]
	 SCS Total Energy          =    -515.6054605756099818 [Eh]
	-----------------------------------------------------------

  Dipole Moment: [D]
     X:     1.5046      Y:    -2.2001      Z:     0.1776     Total:     2.6713

*** Psi4 exiting successfully. Buy a developer a beer!
