                               Psi4 1.3.2 release

  ==> Input File <==

--------------------------------------------------------------------------
#psi4
#
memory 32 gb

molecule  {
0 1
  O       -2.2261580     0.9189870    -0.1609950
  N        0.4211910     1.5299470     0.0903790
  C        0.0817250     0.2107030     0.0159890
  C        2.4145630    -0.5010270    -0.0428790
  C       -1.3460660    -0.1139160     0.0206840
  C        1.0460391    -0.8331306     0.1900888
  C        2.7641530     0.8636850     0.0360660
  C       -2.0477590    -1.2949740     0.1722820
  C        3.4684270    -1.5756500    -0.0824610
  C        1.7493340     1.8260270     0.0926910
  C       -3.4286880    -0.9658200     0.0768380
  C       -3.4828100     0.3886030    -0.1245500
  H        0.7225460    -1.8551450    -0.1446860
  H        3.8080070     1.1710760     0.0438400
  H       -1.6259220    -2.2752860     0.3500510
  H        3.8398640    -1.7937090     0.9244500
  H        3.0687740    -2.5034170    -0.5007000
  H        4.3228250    -1.2652800    -0.6906580
  H        1.9977040     2.8869120     0.1452960
  H       -4.2730300    -1.6376780     0.1527080
  H       -4.2894270     1.0948070    -0.2563320
units angstrom
no_reorient  #important for SAPT in psi4, default
symmetry c1  #important for SAPT in psi4, default
}

set PROPERTIES_ORIGIN ["COM"]
properties('MP2/aug-cc-pvtz', properties = ['dipole'])
--------------------------------------------------------------------------

    Molecular point group: c1
  Charge       = 0
  Multiplicity = 1
  Basis Set: AUG-CC-PVTZ
    Blend: AUG-CC-PVTZ
  Basis Set: (AUG-CC-PVTZ AUX)
    Blend: AUG-CC-PVTZ-JKFIT

    Orbital Energies [Eh]
    ---------------------

    Doubly Occupied:

       1A    -20.622439     2A    -15.562800     3A    -11.299379
       4A    -11.297127     5A    -11.294477     6A    -11.281682
       7A    -11.276061     8A    -11.245978     9A    -11.240054
      10A    -11.239368    11A    -11.237500    12A    -11.234500
      13A     -1.454522    14A     -1.243736    15A     -1.102465
      16A     -1.088338    17A     -1.056665    18A     -0.984092
      19A     -0.966145    20A     -0.861792    21A     -0.834188
      22A     -0.800434    23A     -0.764594    24A     -0.726558
      25A     -0.667773    26A     -0.664854    27A     -0.637085
      28A     -0.634466    29A     -0.597778    30A     -0.590652
      31A     -0.577395    32A     -0.566493    33A     -0.556116
      34A     -0.545570    35A     -0.541236    36A     -0.523689
      37A     -0.505713    38A     -0.416363    39A     -0.403153
      40A     -0.375014    41A     -0.362178    42A     -0.287965

  @DF-RHF Final Energy:  -513.35833035992619

   => Energetics <=

    Nuclear Repulsion Energy =            628.2351001252693550
    One-Electron Energy =               -1942.8500904381351120
    Two-Electron Energy =                 801.2566599529395717
    Total Energy =                       -513.3583303599261853
  Basis Set: (AUG-CC-PVTZ AUX)
    Blend: AUG-CC-PVTZ-RI
    Molecular point group: c1

    Geometry (in Angstrom), charge = 0, multiplicity = 1:

       Center              X                  Y                   Z               Mass
    ------------   -----------------  -----------------  -----------------  -----------------
         O           -2.179312532531     0.881575275945    -0.179676425378    15.994914619570
         N            0.468036467469     1.492535275945     0.071697574622    14.003074004430
         C            0.128570467469     0.173291275945    -0.002692425378    12.000000000000
         C            2.461408467469    -0.538438724055    -0.061560425378    12.000000000000
         C           -1.299220532531    -0.151327724055     0.002002574622    12.000000000000
         C            1.092884567469    -0.870542324055     0.171407374622    12.000000000000
         C            2.810998467469     0.826273275945     0.017384574622    12.000000000000
         C           -2.000913532531    -1.332385724055     0.153600574622    12.000000000000
         C            3.515272467469    -1.613061724055    -0.101142425378    12.000000000000
         C            1.796179467469     1.788615275945     0.074009574622    12.000000000000
         C           -3.381842532531    -1.003231724055     0.058156574622    12.000000000000
         C           -3.435964532531     0.351191275945    -0.143231425378    12.000000000000
         H            0.769391467469    -1.892556724055    -0.163367425378     1.007825032230
         H            3.854852467469     1.133664275945     0.025158574622     1.007825032230
         H           -1.579076532531    -2.312697724055     0.331369574622     1.007825032230
         H            3.886709467469    -1.831120724055     0.905768574622     1.007825032230
         H            3.115619467469    -2.540828724055    -0.519381425378     1.007825032230
         H            4.369670467469    -1.302691724055    -0.709339425378     1.007825032230
         H            2.044549467469     2.849500275945     0.126614574622     1.007825032230
         H           -4.226184532531    -1.675089724055     0.134026574622     1.007825032230
         H           -4.242581532531     1.057395275945    -0.275013425378     1.007825032230

  Basis Set: AUG-CC-PVTZ
    Blend: AUG-CC-PVTZ
  Basis Set: (AUG-CC-PVTZ AUX)
    Blend: AUG-CC-PVTZ-JKFIT
	 Reference Energy          =    -513.3583303599261853 [Eh]
	 Singles Energy            =      -0.0000000000000000 [Eh]
	 Same-Spin Energy          =      -0.5597384348651664 [Eh]
	 Opposite-Spin Energy      =      -1.7154743371996393 [Eh]
	 Correlation Energy        =      -2.2752127720648057 [Eh]
	 Total Energy              =    -515.6335431319910185 [Eh]

	 ================> DF-SCS-MP2 Energies <==================
	-----------------------------------------------------------
	 SCS Same-Spin Scale       =       0.3333333333333333 [-]
	 SCS Opposite-Spin Scale   =       1.2000000000000000 [-]
	 SCS Same-Spin Energy      =      -0.1865794782883888 [Eh]
	 SCS Opposite-Spin Energy  =      -2.0585692046395669 [Eh]
	 SCS Correlation Energy    =      -2.2451486829279559 [Eh]
	 SCS Total Energy          =    -515.6034790428541328 [Eh]
	-----------------------------------------------------------

  Dipole Moment: [D]
     X:     1.4612      Y:    -2.2557      Z:    -0.0730     Total:     2.6886

*** Psi4 exiting successfully. Buy a developer a beer!
