                               Psi4 1.3.2 release

  ==> Input File <==

--------------------------------------------------------------------------
#psi4
#
memory 32 gb

molecule  {
0 1
  O       -2.2261580     0.9189870    -0.1609950
  N        0.4211910     1.5299470     0.0903790
  C        0.0817250     0.2107030     0.0159890
  C        2.4145630    -0.5010270    -0.0428790
  C       -1.3460660    -0.1139160     0.0206840
  C        1.0420520    -0.8182650    -0.0594370
  C        2.7641530     0.8636850     0.0360660
  C       -2.0446681    -1.3096090     0.0734070
  C        3.4684270    -1.5756500    -0.0824610
  C        1.7493340     1.8260270     0.0926910
  C       -3.4286880    -0.9658200     0.0768380
  C       -3.4828100     0.3886030    -0.1245500
  H        0.7225460    -1.8551450    -0.1446860
  H        3.8080070     1.1710760     0.0438400
  H       -1.6259220    -2.2752860     0.3500510
  H        3.8398640    -1.7937090     0.9244500
  H        3.0687740    -2.5034170    -0.5007000
  H        4.3228250    -1.2652800    -0.6906580
  H        1.9977040     2.8869120     0.1452960
  H       -4.2730300    -1.6376780     0.1527080
  H       -4.2894270     1.0948070    -0.2563320
units angstrom
no_reorient  #important for SAPT in psi4, default
symmetry c1  #important for SAPT in psi4, default
}

set PROPERTIES_ORIGIN ["COM"]
properties('MP2/aug-cc-pvtz', properties = ['dipole'])
--------------------------------------------------------------------------

    Molecular point group: c1
  Charge       = 0
  Multiplicity = 1
  Basis Set: AUG-CC-PVTZ
    Blend: AUG-CC-PVTZ
  Basis Set: (AUG-CC-PVTZ AUX)
    Blend: AUG-CC-PVTZ-JKFIT

    Orbital Energies [Eh]
    ---------------------

    Doubly Occupied:

       1A    -20.622372     2A    -15.564021     3A    -11.298834
       4A    -11.294676     5A    -11.293196     6A    -11.278898
       7A    -11.271976     8A    -11.242718     9A    -11.239796
      10A    -11.239561    11A    -11.238706    12A    -11.234322
      13A     -1.454309    14A     -1.244437    15A     -1.104436
      16A     -1.087141    17A     -1.057960    18A     -0.984312
      19A     -0.968184    20A     -0.863304    21A     -0.836278
      22A     -0.799907    23A     -0.763911    24A     -0.727484
      25A     -0.673286    26A     -0.668732    27A     -0.639932
      28A     -0.634108    29A     -0.599673    30A     -0.590699
      31A     -0.577606    32A     -0.564743    33A     -0.558748
      34A     -0.547490    35A     -0.540046    36A     -0.525891
      37A     -0.509876    38A     -0.417857    39A     -0.402408
      40A     -0.376261    41A     -0.362717    42A     -0.287707

  @DF-RHF Final Energy:  -513.37426736064549

   => Energetics <=

    Nuclear Repulsion Energy =            628.8303264846703087
    One-Electron Energy =               -1944.0321483157058537
    Two-Electron Energy =                 801.8275544703899413
    Total Energy =                       -513.3742673606454900
  Basis Set: (AUG-CC-PVTZ AUX)
    Blend: AUG-CC-PVTZ-RI
    Molecular point group: c1

    Geometry (in Angstrom), charge = 0, multiplicity = 1:

       Center              X                  Y                   Z               Mass
    ------------   -----------------  -----------------  -----------------  -----------------
         O           -2.179244923886     0.881557879656    -0.153393334366    15.994914619570
         N            0.468104076114     1.492517879656     0.097980665634    14.003074004430
         C            0.128638076114     0.173273879656     0.023590665634    12.000000000000
         C            2.461476076114    -0.538456120344    -0.035277334366    12.000000000000
         C           -1.299152923886    -0.151345120344     0.028285665634    12.000000000000
         C            1.088965076114    -0.855694120344    -0.051835334366    12.000000000000
         C            2.811066076114     0.826255879656     0.043667665634    12.000000000000
         C           -1.997755023886    -1.347038120344     0.081008665634    12.000000000000
         C            3.515340076114    -1.613079120344    -0.074859334366    12.000000000000
         C            1.796247076114     1.788597879656     0.100292665634    12.000000000000
         C           -3.381774923886    -1.003249120344     0.084439665634    12.000000000000
         C           -3.435896923886     0.351173879656    -0.116948334366    12.000000000000
         H            0.769459076114    -1.892574120344    -0.137084334366     1.007825032230
         H            3.854920076114     1.133646879656     0.051441665634     1.007825032230
         H           -1.579008923886    -2.312715120344     0.357652665634     1.007825032230
         H            3.886777076114    -1.831138120344     0.932051665634     1.007825032230
         H            3.115687076114    -2.540846120344    -0.493098334366     1.007825032230
         H            4.369738076114    -1.302709120344    -0.683056334366     1.007825032230
         H            2.044617076114     2.849482879656     0.152897665634     1.007825032230
         H           -4.226116923886    -1.675107120344     0.160309665634     1.007825032230
         H           -4.242513923886     1.057377879656    -0.248730334366     1.007825032230

  Basis Set: AUG-CC-PVTZ
    Blend: AUG-CC-PVTZ
  Basis Set: (AUG-CC-PVTZ AUX)
    Blend: AUG-CC-PVTZ-JKFIT
	 Reference Energy          =    -513.3742673606454900 [Eh]
	 Singles Energy            =      -0.0000000000000000 [Eh]
	 Same-Spin Energy          =      -0.5592709946766354 [Eh]
	 Opposite-Spin Energy      =      -1.7141136038068505 [Eh]
	 Correlation Energy        =      -2.2733845984834860 [Eh]
	 Total Energy              =    -515.6476519591290071 [Eh]

	 ================> DF-SCS-MP2 Energies <==================
	-----------------------------------------------------------
	 SCS Same-Spin Scale       =       0.3333333333333333 [-]
	 SCS Opposite-Spin Scale   =       1.2000000000000000 [-]
	 SCS Same-Spin Energy      =      -0.1864236648922118 [Eh]
	 SCS Opposite-Spin Energy  =      -2.0569363245682206 [Eh]
	 SCS Correlation Energy    =      -2.2433599894604326 [Eh]
	 SCS Total Energy          =    -515.6176273501059768 [Eh]
	-----------------------------------------------------------

  Dipole Moment: [D]
     X:     1.4774      Y:    -2.3371      Z:     0.0710     Total:     2.7658

*** Psi4 exiting successfully. Buy a developer a beer!
