                               Psi4 1.3.2 release

  ==> Input File <==

--------------------------------------------------------------------------
#psi4
#
memory 32 gb

molecule  {
0 1
  S        1.3140975     0.1315156    -0.0000534
  C       -1.2740110     0.7100150     0.0000760
  C       -1.2740120    -0.7100150     0.0000280
  C       -0.0019280     1.2352840     0.0000210
  C       -0.0019290    -1.2352840    -0.0000200
  H       -2.1689880     1.3232550     0.0001320
  H       -2.1689890    -1.3232540     0.0000440
  H        0.2925210     2.2768120     0.0000270
  H        0.2925210    -2.2768120    -0.0000490
units angstrom
no_reorient  #important for SAPT in psi4, default
symmetry c1  #important for SAPT in psi4, default
}

set PROPERTIES_ORIGIN ["COM"]
properties('MP2/aug-cc-pvtz', properties = ['dipole'])
--------------------------------------------------------------------------

    Molecular point group: c1
  Charge       = 0
  Multiplicity = 1
  Basis Set: AUG-CC-PVTZ
    Blend: AUG-CC-PVTZ
  Basis Set: (AUG-CC-PVTZ AUX)
    Blend: AUG-CC-PVTZ-JKFIT

    Orbital Energies [Eh]
    ---------------------

    Doubly Occupied:

       1A    -91.990192     2A    -11.277851     3A    -11.268888
       4A    -11.249237     5A    -11.241705     6A     -8.987822
       7A     -6.668769     8A     -6.667882     9A     -6.667406
      10A     -1.152523    11A     -0.993340    12A     -0.962424
      13A     -0.772646    14A     -0.742466    15A     -0.695246
      16A     -0.572645    17A     -0.556407    18A     -0.510468
      19A     -0.508569    20A     -0.472024    21A     -0.357337
      22A     -0.318366

  @DF-RHF Final Energy:  -551.36303869652579

   => Energetics <=

    Nuclear Repulsion Energy =            197.6296491699664557
    One-Electron Energy =               -1148.7169533036696976
    Two-Electron Energy =                 399.7242654371775075
    Total Energy =                       -551.3630386965257912
  Basis Set: (AUG-CC-PVTZ AUX)
    Blend: AUG-CC-PVTZ-RI
    Molecular point group: c1

    Geometry (in Angstrom), charge = 0, multiplicity = 1:

       Center              X                  Y                   Z               Mass
    ------------   -----------------  -----------------  -----------------  -----------------
         S            1.223511171800     0.081460143102    -0.000049922716    31.972071174400
         C           -1.364597328200     0.659959543102     0.000079477284    12.000000000000
         C           -1.364598328200    -0.760070456898     0.000031477284    12.000000000000
         C           -0.092514328200     1.185228543102     0.000024477284    12.000000000000
         C           -0.092515328200    -1.285339456898    -0.000016522716    12.000000000000
         H           -2.259574328200     1.273199543102     0.000135477284     1.007825032230
         H           -2.259575328200    -1.373309456898     0.000047477284     1.007825032230
         H            0.201934671800     2.226756543102     0.000030477284     1.007825032230
         H            0.201934671800    -2.326867456898    -0.000045522716     1.007825032230

  Basis Set: AUG-CC-PVTZ
    Blend: AUG-CC-PVTZ
  Basis Set: (AUG-CC-PVTZ AUX)
    Blend: AUG-CC-PVTZ-JKFIT
	 Reference Energy          =    -551.3630386965257912 [Eh]
	 Singles Energy            =      -0.0000000000000000 [Eh]
	 Same-Spin Energy          =      -0.2301824765259836 [Eh]
	 Opposite-Spin Energy      =      -0.7119691681902416 [Eh]
	 Correlation Energy        =      -0.9421516447162253 [Eh]
	 Total Energy              =    -552.3051903412419961 [Eh]

	 ================> DF-SCS-MP2 Energies <==================
	-----------------------------------------------------------
	 SCS Same-Spin Scale       =       0.3333333333333333 [-]
	 SCS Opposite-Spin Scale   =       1.2000000000000000 [-]
	 SCS Same-Spin Energy      =      -0.0767274921753279 [Eh]
	 SCS Opposite-Spin Energy  =      -0.8543630018282898 [Eh]
	 SCS Correlation Energy    =      -0.9310904940036178 [Eh]
	 SCS Total Energy          =    -552.2941291905293610 [Eh]
	-----------------------------------------------------------

  Dipole Moment: [D]
     X:    -0.5907      Y:    -0.0237      Z:     0.0000     Total:     0.5912

*** Psi4 exiting successfully. Buy a developer a beer!
