                               Psi4 1.3.2 release

  ==> Input File <==

--------------------------------------------------------------------------
#psi4
#
memory 32 gb

molecule  {
0 1
  S        1.1915130     0.0000000    -0.0000490
  C       -1.2829845     0.7322959     0.0000769
  C       -1.2740120    -0.7100150     0.0000280
  C       -0.0019280     1.2352840     0.0000210
  C       -0.0019290    -1.2352840    -0.0000200
  H       -2.1689880     1.3232550     0.0001320
  H       -2.1689890    -1.3232540     0.0000440
  H        0.2925210     2.2768120     0.0000270
  H        0.2925210    -2.2768120    -0.0000490
units angstrom
no_reorient  #important for SAPT in psi4, default
symmetry c1  #important for SAPT in psi4, default
}

set PROPERTIES_ORIGIN ["COM"]
properties('MP2/aug-cc-pvtz', properties = ['dipole'])
--------------------------------------------------------------------------

    Molecular point group: c1
  Charge       = 0
  Multiplicity = 1
  Basis Set: AUG-CC-PVTZ
    Blend: AUG-CC-PVTZ
  Basis Set: (AUG-CC-PVTZ AUX)
    Blend: AUG-CC-PVTZ-JKFIT

    Orbital Energies [Eh]
    ---------------------

    Doubly Occupied:

       1A    -91.985974     2A    -11.264799     3A    -11.264097
       4A    -11.242991     5A    -11.241179     6A     -8.986364
       7A     -6.667376     8A     -6.666851     9A     -6.666136
      10A     -1.167796    11A     -0.984838    12A     -0.981336
      13A     -0.764942    14A     -0.753132    15A     -0.696957
      16A     -0.576724    17A     -0.546660    18A     -0.530656
      19A     -0.521380    20A     -0.476611    21A     -0.345306
      22A     -0.327397

  @DF-RHF Final Energy:  -551.37949213214426

   => Energetics <=

    Nuclear Repulsion Energy =            202.1121035803074903
    One-Electron Energy =               -1157.6641781226260264
    Two-Electron Energy =                 404.1725824101743001
    Total Energy =                       -551.3794921321442644
  Basis Set: (AUG-CC-PVTZ AUX)
    Blend: AUG-CC-PVTZ-RI
    Molecular point group: c1

    Geometry (in Angstrom), charge = 0, multiplicity = 1:

       Center              X                  Y                   Z               Mass
    ------------   -----------------  -----------------  -----------------  -----------------
         S            1.148864775907    -0.003182869969    -0.000047325943    31.972071174400
         C           -1.325632724093     0.729113030031     0.000078574057    12.000000000000
         C           -1.316660224093    -0.713197869969     0.000029674057    12.000000000000
         C           -0.044576224093     1.232101130031     0.000022674057    12.000000000000
         C           -0.044577224093    -1.238466869969    -0.000018325943    12.000000000000
         H           -2.211636224093     1.320072130031     0.000133674057     1.007825032230
         H           -2.211637224093    -1.326436869969     0.000045674057     1.007825032230
         H            0.249872775907     2.273629130031     0.000028674057     1.007825032230
         H            0.249872775907    -2.279994869969    -0.000047325943     1.007825032230

  Basis Set: AUG-CC-PVTZ
    Blend: AUG-CC-PVTZ
  Basis Set: (AUG-CC-PVTZ AUX)
    Blend: AUG-CC-PVTZ-JKFIT
	 Reference Energy          =    -551.3794921321442644 [Eh]
	 Singles Energy            =      -0.0000000000000000 [Eh]
	 Same-Spin Energy          =      -0.2310860966234630 [Eh]
	 Opposite-Spin Energy      =      -0.7094446149431066 [Eh]
	 Correlation Energy        =      -0.9405307115665696 [Eh]
	 Total Energy              =    -552.3200228437108308 [Eh]

	 ================> DF-SCS-MP2 Energies <==================
	-----------------------------------------------------------
	 SCS Same-Spin Scale       =       0.3333333333333333 [-]
	 SCS Opposite-Spin Scale   =       1.2000000000000000 [-]
	 SCS Same-Spin Energy      =      -0.0770286988744877 [Eh]
	 SCS Opposite-Spin Energy  =      -0.8513335379317279 [Eh]
	 SCS Correlation Energy    =      -0.9283622368062157 [Eh]
	 SCS Total Energy          =    -552.3078543689505295 [Eh]
	-----------------------------------------------------------

  Dipole Moment: [D]
     X:    -0.4417      Y:    -0.0025      Z:     0.0000     Total:     0.4417

*** Psi4 exiting successfully. Buy a developer a beer!
