                               Psi4 1.3.2 release

  ==> Input File <==

--------------------------------------------------------------------------
#psi4
#
memory 32 gb

molecule  {
0 1
  S        1.1915130     0.0000000    -0.0000490
  C       -1.2740110     0.7100150     0.0000760
  C       -1.2740120    -0.7100150     0.0000280
  C       -0.0019280     1.2352840     0.0000210
  C       -0.0019290    -1.2352840    -0.0000200
  H       -2.1689880     1.3232550     0.0001320
  H       -2.1689890    -1.3232540     0.0000440
  H        0.3469302     2.4692688     0.0000281
  H        0.2925210    -2.2768120    -0.0000490
units angstrom
no_reorient  #important for SAPT in psi4, default
symmetry c1  #important for SAPT in psi4, default
}

set PROPERTIES_ORIGIN ["COM"]
properties('MP2/aug-cc-pvtz', properties = ['dipole'])
--------------------------------------------------------------------------

    Molecular point group: c1
  Charge       = 0
  Multiplicity = 1
  Basis Set: AUG-CC-PVTZ
    Blend: AUG-CC-PVTZ
  Basis Set: (AUG-CC-PVTZ AUX)
    Blend: AUG-CC-PVTZ-JKFIT

    Orbital Energies [Eh]
    ---------------------

    Doubly Occupied:

       1A    -91.987853     2A    -11.283783     3A    -11.264703
       4A    -11.242555     5A    -11.241504     6A     -8.988066
       7A     -6.669031     8A     -6.668550     9A     -6.667817
      10A     -1.170687    11A     -0.987180    12A     -0.975226
      13A     -0.759346    14A     -0.738015    15A     -0.687741
      16A     -0.566488    17A     -0.543652    18A     -0.524036
      19A     -0.515715    20A     -0.476923    21A     -0.347985
      22A     -0.326631

  @DF-RHF Final Energy:  -551.35694744551347

   => Energetics <=

    Nuclear Repulsion Energy =            201.5765730125560822
    One-Electron Energy =               -1156.6000653880230402
    Two-Electron Energy =                 403.6665449299534316
    Total Energy =                       -551.3569474455134696
  Basis Set: (AUG-CC-PVTZ AUX)
    Blend: AUG-CC-PVTZ-RI
    Molecular point group: c1

    Geometry (in Angstrom), charge = 0, multiplicity = 1:

       Center              X                  Y                   Z               Mass
    ------------   -----------------  -----------------  -----------------  -----------------
         S            1.146930127914    -0.002309000049    -0.000047210574    31.972071174400
         C           -1.318593872086     0.707705999951     0.000077789426    12.000000000000
         C           -1.318594872086    -0.712324000049     0.000029789426    12.000000000000
         C           -0.046510872086     1.232974999951     0.000022789426    12.000000000000
         C           -0.046511872086    -1.237593000049    -0.000018210574    12.000000000000
         H           -2.213570872086     1.320945999951     0.000133789426     1.007825032230
         H           -2.213571872086    -1.325563000049     0.000045789426     1.007825032230
         H            0.302347327914     2.466959799951     0.000029889426     1.007825032230
         H            0.247938127914    -2.279121000049    -0.000047210574     1.007825032230

  Basis Set: AUG-CC-PVTZ
    Blend: AUG-CC-PVTZ
  Basis Set: (AUG-CC-PVTZ AUX)
    Blend: AUG-CC-PVTZ-JKFIT
	 Reference Energy          =    -551.3569474455134696 [Eh]
	 Singles Energy            =      -0.0000000000000000 [Eh]
	 Same-Spin Energy          =      -0.2320040769759518 [Eh]
	 Opposite-Spin Energy      =      -0.7116905471280006 [Eh]
	 Correlation Energy        =      -0.9436946241039523 [Eh]
	 Total Energy              =    -552.3006420696174246 [Eh]

	 ================> DF-SCS-MP2 Energies <==================
	-----------------------------------------------------------
	 SCS Same-Spin Scale       =       0.3333333333333333 [-]
	 SCS Opposite-Spin Scale   =       1.2000000000000000 [-]
	 SCS Same-Spin Energy      =      -0.0773346923253173 [Eh]
	 SCS Opposite-Spin Energy  =      -0.8540286565536007 [Eh]
	 SCS Correlation Energy    =      -0.9313633488789179 [Eh]
	 SCS Total Energy          =    -552.2883107943923733 [Eh]
	-----------------------------------------------------------

  Dipole Moment: [D]
     X:    -0.4320      Y:    -0.0111      Z:     0.0000     Total:     0.4322

*** Psi4 exiting successfully. Buy a developer a beer!
