                               Psi4 1.3.2 release

  ==> Input File <==

--------------------------------------------------------------------------
#psi4
#
memory 32 gb

molecule  {
0 1
  S        1.1915130     0.0000000    -0.0000490
  C       -1.2740110     0.7100150     0.0000760
  C       -1.2740120    -0.7100150     0.0000280
  C       -0.0019280     1.2352840     0.0000210
  C       -0.0019290    -1.2352840    -0.0000200
  H       -2.1689880     1.3232550     0.0001320
  H       -2.1689890    -1.3232540     0.0000440
  H        0.3197256     2.3730404     0.0000276
  H        0.2925210    -2.2768120    -0.0000490
units angstrom
no_reorient  #important for SAPT in psi4, default
symmetry c1  #important for SAPT in psi4, default
}

set PROPERTIES_ORIGIN ["COM"]
properties('MP2/aug-cc-pvtz', properties = ['dipole'])
--------------------------------------------------------------------------

    Molecular point group: c1
  Charge       = 0
  Multiplicity = 1
  Basis Set: AUG-CC-PVTZ
    Blend: AUG-CC-PVTZ
  Basis Set: (AUG-CC-PVTZ AUX)
    Blend: AUG-CC-PVTZ-JKFIT

    Orbital Energies [Eh]
    ---------------------

    Doubly Occupied:

       1A    -91.986919     2A    -11.274463     3A    -11.264311
       4A    -11.241862     5A    -11.240815     6A     -8.987206
       7A     -6.668183     8A     -6.667696     9A     -6.666977
      10A     -1.170387    11A     -0.986573    12A     -0.977539
      13A     -0.760596    14A     -0.744211    15A     -0.692242
      16A     -0.568960    17A     -0.547745    18A     -0.524032
      19A     -0.523430    20A     -0.476307    21A     -0.347484
      22A     -0.326202

  @DF-RHF Final Energy:  -551.37222686088137

   => Energetics <=

    Nuclear Repulsion Energy =            201.9994418362580006
    One-Electron Energy =               -1157.4550549712628253
    Two-Electron Energy =                 404.0833862741233702
    Total Energy =                       -551.3722268608814829
  Basis Set: (AUG-CC-PVTZ AUX)
    Blend: AUG-CC-PVTZ-RI
    Molecular point group: c1

    Geometry (in Angstrom), charge = 0, multiplicity = 1:

       Center              X                  Y                   Z               Mass
    ------------   -----------------  -----------------  -----------------  -----------------
         S            1.147256513349    -0.001154506023    -0.000047204575    31.972071174400
         C           -1.318267486651     0.708860493977     0.000077795425    12.000000000000
         C           -1.318268486651    -0.711169506023     0.000029795425    12.000000000000
         C           -0.046184486651     1.234129493977     0.000022795425    12.000000000000
         C           -0.046185486651    -1.236438506023    -0.000018204575    12.000000000000
         H           -2.213244486651     1.322100493977     0.000133795425     1.007825032230
         H           -2.213245486651    -1.324408506023     0.000045795425     1.007825032230
         H            0.275469113349     2.371885893977     0.000029395425     1.007825032230
         H            0.248264513349    -2.277966506023    -0.000047204575     1.007825032230

  Basis Set: AUG-CC-PVTZ
    Blend: AUG-CC-PVTZ
  Basis Set: (AUG-CC-PVTZ AUX)
    Blend: AUG-CC-PVTZ-JKFIT
	 Reference Energy          =    -551.3722268608813692 [Eh]
	 Singles Energy            =      -0.0000000000000000 [Eh]
	 Same-Spin Energy          =      -0.2317249574850775 [Eh]
	 Opposite-Spin Energy      =      -0.7104767206350284 [Eh]
	 Correlation Energy        =      -0.9422016781201059 [Eh]
	 Total Energy              =    -552.3144285390014829 [Eh]

	 ================> DF-SCS-MP2 Energies <==================
	-----------------------------------------------------------
	 SCS Same-Spin Scale       =       0.3333333333333333 [-]
	 SCS Opposite-Spin Scale   =       1.2000000000000000 [-]
	 SCS Same-Spin Energy      =      -0.0772416524950258 [Eh]
	 SCS Opposite-Spin Energy  =      -0.8525720647620341 [Eh]
	 SCS Correlation Energy    =      -0.9298137172570600 [Eh]
	 SCS Total Energy          =    -552.3020405781384170 [Eh]
	-----------------------------------------------------------

  Dipole Moment: [D]
     X:    -0.4341      Y:    -0.0003      Z:     0.0000     Total:     0.4341

*** Psi4 exiting successfully. Buy a developer a beer!
