                               Psi4 1.4a3.dev225

  ==> Input File <==

--------------------------------------------------------------------------
#psi4
#
memory 32 gb

molecule  {
0 1
  S        1.1915130     0.0000000    -0.0000490
  C       -1.2740110     0.7100150     0.0000760
  C       -1.2740120    -0.6600150     0.0000297
  C       -0.0019280     1.2352840     0.0000210
  C       -0.0019290    -1.2352840    -0.0000200
  H       -2.1689880     1.3232550     0.0001320
  H       -2.1689890    -1.3232540     0.0000440
  H        0.2925210     2.2768120     0.0000270
  H        0.2925210    -2.2768120    -0.0000490
units angstrom
no_reorient  #important for SAPT in psi4, default
symmetry c1  #important for SAPT in psi4, default
}

set PROPERTIES_ORIGIN ["COM"]
properties('MP2/aug-cc-pvtz', properties = ['dipole'])
--------------------------------------------------------------------------

    Molecular point group: c1
  Charge       = 0
  Multiplicity = 1
  Basis Set: AUG-CC-PVTZ
    Blend: AUG-CC-PVTZ
  Basis Set: (AUG-CC-PVTZ AUX)
    Blend: AUG-CC-PVTZ-JKFIT

    Orbital Energies [Eh]
    ---------------------

    Doubly Occupied:

       1A    -91.988137     2A    -11.265251     3A    -11.263912
       4A    -11.240745     5A    -11.236150     6A     -8.988231
       7A     -6.669163     8A     -6.668737     9A     -6.668078
      10A     -1.174652    11A     -0.993261    12A     -0.975997
      13A     -0.769450    14A     -0.746827    15A     -0.695598
      16A     -0.569449    17A     -0.561874    18A     -0.525610
      19A     -0.522623    20A     -0.474525    21A     -0.352026
      22A     -0.320343

  @DF-RHF Final Energy:  -551.37478999567134

   => Energetics <=

    Nuclear Repulsion Energy =            202.9623523546976571
    One-Electron Energy =               -1159.3330087739193459
    Two-Electron Energy =                 404.9958664235503534
    Total Energy =                       -551.3747899956713354
  Basis Set: (AUG-CC-PVTZ AUX)
    Blend: AUG-CC-PVTZ-RI
    Molecular point group: c1

    Geometry (in Angstrom), charge = 0, multiplicity = 1:

       Center              X                  Y                   Z               Mass
    ------------   -----------------  -----------------  -----------------  -----------------
         S            1.147582898783    -0.007142582476    -0.000047440224    31.972071174400
         C           -1.317941101217     0.702872417524     0.000077559776    12.000000000000
         C           -1.317942101217    -0.667157582476     0.000031259776    12.000000000000
         C           -0.045858101217     1.228141417524     0.000022559776    12.000000000000
         C           -0.045859101217    -1.242426582476    -0.000018440224    12.000000000000
         H           -2.212918101217     1.316112417524     0.000133559776     1.007825032230
         H           -2.212919101217    -1.330396582476     0.000045559776     1.007825032230
         H            0.248590898783     2.269669417524     0.000028559776     1.007825032230
         H            0.248590898783    -2.283954582476    -0.000047440224     1.007825032230

  Basis Set: AUG-CC-PVTZ
    Blend: AUG-CC-PVTZ
  Basis Set: (AUG-CC-PVTZ AUX)
    Blend: AUG-CC-PVTZ-JKFIT
	 Reference Energy          =    -551.3747899956713354 [Eh]
	 Singles Energy            =      -0.0000000000000000 [Eh]
	 Same-Spin Energy          =      -0.2327938282189636 [Eh]
	 Opposite-Spin Energy      =      -0.7108938364622117 [Eh]
	 Correlation Energy        =      -0.9436876646811753 [Eh]
	 Total Energy              =    -552.3184776603525279 [Eh]

	 ================> DF-SCS-MP2 Energies <==================
	-----------------------------------------------------------
	 SCS Same-Spin Scale       =       0.3333333333333333 [-]
	 SCS Opposite-Spin Scale   =       1.2000000000000000 [-]
	 SCS Same-Spin Energy      =      -0.0775979427396545 [Eh]
	 SCS Opposite-Spin Energy  =      -0.8530726037546540 [Eh]
	 SCS Correlation Energy    =      -0.9306705464943085 [Eh]
	 SCS Total Energy          =    -552.3054605421656333 [Eh]
	-----------------------------------------------------------

  Dipole Moment: [D]
     X:    -0.4127      Y:     0.0008      Z:     0.0000     Total:     0.4127

*** Psi4 exiting successfully. Buy a developer a beer!
