                               Psi4 1.3.2 release

  ==> Input File <==

--------------------------------------------------------------------------
#psi4
#
memory 32 gb

molecule  {
0 1
  S        1.1915130     0.0000000    -0.0000490
  C       -1.3075532     0.8000306     0.0000796
  C       -1.2740120    -0.7100150     0.0000280
  C       -0.0019280     1.2352840     0.0000210
  C       -0.0019290    -1.2352840    -0.0000200
  H       -2.1689880     1.3232550     0.0001320
  H       -2.1689890    -1.3232540     0.0000440
  H        0.2925210     2.2768120     0.0000270
  H        0.2925210    -2.2768120    -0.0000490
units angstrom
no_reorient  #important for SAPT in psi4, default
symmetry c1  #important for SAPT in psi4, default
}

set PROPERTIES_ORIGIN ["COM"]
properties('MP2/aug-cc-pvtz', properties = ['dipole'])
--------------------------------------------------------------------------

    Molecular point group: c1
  Charge       = 0
  Multiplicity = 1
  Basis Set: AUG-CC-PVTZ
    Blend: AUG-CC-PVTZ
  Basis Set: (AUG-CC-PVTZ AUX)
    Blend: AUG-CC-PVTZ-JKFIT

    Orbital Energies [Eh]
    ---------------------

    Doubly Occupied:

       1A    -91.985643     2A    -11.267237     3A    -11.264259
       4A    -11.248437     5A    -11.242968     6A     -8.986144
       7A     -6.667217     8A     -6.666599     9A     -6.665859
      10A     -1.160976    11A     -0.987769    12A     -0.975922
      13A     -0.766714    14A     -0.757521    15A     -0.698145
      16A     -0.587248    17A     -0.536581    18A     -0.527609
      19A     -0.517273    20A     -0.477934    21A     -0.340835
      22A     -0.331360

  @DF-RHF Final Energy:  -551.36987147441232

   => Energetics <=

    Nuclear Repulsion Energy =            201.0913699486005441
    One-Electron Energy =               -1155.6019831855828670
    Two-Electron Energy =                 403.1407417625699736
    Total Energy =                       -551.3698714744123208
  Basis Set: (AUG-CC-PVTZ AUX)
    Blend: AUG-CC-PVTZ-RI
    Molecular point group: c1

    Geometry (in Angstrom), charge = 0, multiplicity = 1:

       Center              X                  Y                   Z               Mass
    ------------   -----------------  -----------------  -----------------  -----------------
         S            1.152374449334    -0.012858867341    -0.000047711642    31.972071174400
         C           -1.346691750666     0.787171732659     0.000080888358    12.000000000000
         C           -1.313150550666    -0.722873867341     0.000029288358    12.000000000000
         C           -0.041066550666     1.222425132659     0.000022288358    12.000000000000
         C           -0.041067550666    -1.248142867341    -0.000018711642    12.000000000000
         H           -2.208126550666     1.310396132659     0.000133288358     1.007825032230
         H           -2.208127550666    -1.336112867341     0.000045288358     1.007825032230
         H            0.253382449334     2.263953132659     0.000028288358     1.007825032230
         H            0.253382449334    -2.289670867341    -0.000047711642     1.007825032230

  Basis Set: AUG-CC-PVTZ
    Blend: AUG-CC-PVTZ
  Basis Set: (AUG-CC-PVTZ AUX)
    Blend: AUG-CC-PVTZ-JKFIT
	 Reference Energy          =    -551.3698714744123208 [Eh]
	 Singles Energy            =      -0.0000000000000000 [Eh]
	 Same-Spin Energy          =      -0.2300611783832729 [Eh]
	 Opposite-Spin Energy      =      -0.7093687643219265 [Eh]
	 Correlation Energy        =      -0.9394299427051994 [Eh]
	 Total Energy              =    -552.3093014171174673 [Eh]

	 ================> DF-SCS-MP2 Energies <==================
	-----------------------------------------------------------
	 SCS Same-Spin Scale       =       0.3333333333333333 [-]
	 SCS Opposite-Spin Scale   =       1.2000000000000000 [-]
	 SCS Same-Spin Energy      =      -0.0766870594610910 [Eh]
	 SCS Opposite-Spin Energy  =      -0.8512425171863118 [Eh]
	 SCS Correlation Energy    =      -0.9279295766474028 [Eh]
	 SCS Total Energy          =    -552.2978010510597642 [Eh]
	-----------------------------------------------------------

  Dipole Moment: [D]
     X:    -0.4445      Y:    -0.0178      Z:     0.0000     Total:     0.4448

*** Psi4 exiting successfully. Buy a developer a beer!
