                               Psi4 1.4a3.dev225

  ==> Input File <==

--------------------------------------------------------------------------
#psi4
#
memory 32 gb

molecule  {
0 1
  S        1.1915130     0.0000000    -0.0000490
  C       -1.2740110     0.7100150     0.0000760
  C       -1.2740120    -0.7100150     0.0000280
  C        0.0328131     1.1993249     0.0000190
  C       -0.0019290    -1.2352840    -0.0000200
  H       -2.1689880     1.3232550     0.0001320
  H       -2.1689890    -1.3232540     0.0000440
  H        0.2925210     2.2768120     0.0000270
  H        0.2925210    -2.2768120    -0.0000490
units angstrom
no_reorient  #important for SAPT in psi4, default
symmetry c1  #important for SAPT in psi4, default
}

set PROPERTIES_ORIGIN ["COM"]
properties('MP2/aug-cc-pvtz', properties = ['dipole'])
--------------------------------------------------------------------------

    Molecular point group: c1
  Charge       = 0
  Multiplicity = 1
  Basis Set: AUG-CC-PVTZ
    Blend: AUG-CC-PVTZ
  Basis Set: (AUG-CC-PVTZ AUX)
    Blend: AUG-CC-PVTZ-JKFIT

    Orbital Energies [Eh]
    ---------------------

    Doubly Occupied:

       1A    -91.988136     2A    -11.264308     3A    -11.261304
       4A    -11.241129     5A    -11.240075     6A     -8.989363
       7A     -6.670431     8A     -6.669855     9A     -6.669132
      10A     -1.174830    11A     -0.992704    12A     -0.975707
      13A     -0.761851    14A     -0.750227    15A     -0.695604
      16A     -0.568566    17A     -0.544283    18A     -0.535265
      19A     -0.526193    20A     -0.481149    21A     -0.348351
      22A     -0.322507

  @DF-RHF Final Energy:  -551.37621973242017

   => Energetics <=

    Nuclear Repulsion Energy =            203.2380023573377059
    One-Electron Energy =               -1159.8865051714067249
    Two-Electron Energy =                 405.2722830816489363
    Total Energy =                       -551.3762197324201679
  Basis Set: (AUG-CC-PVTZ AUX)
    Blend: AUG-CC-PVTZ-RI
    Molecular point group: c1

    Geometry (in Angstrom), charge = 0, multiplicity = 1:

       Center              X                  Y                   Z               Mass
    ------------   -----------------  -----------------  -----------------  -----------------
         S            1.142620083678     0.005136796125    -0.000046911674    31.972071174400
         C           -1.322903916322     0.715151796125     0.000078088326    12.000000000000
         C           -1.322904916322    -0.704878203875     0.000030088326    12.000000000000
         C           -0.016079816322     1.204461696125     0.000021088326    12.000000000000
         C           -0.050821916322    -1.230147203875    -0.000017911674    12.000000000000
         H           -2.217880916322     1.328391796125     0.000134088326     1.007825032230
         H           -2.217881916322    -1.318117203875     0.000046088326     1.007825032230
         H            0.243628083678     2.281948796125     0.000029088326     1.007825032230
         H            0.243628083678    -2.271675203875    -0.000046911674     1.007825032230

  Basis Set: AUG-CC-PVTZ
    Blend: AUG-CC-PVTZ
  Basis Set: (AUG-CC-PVTZ AUX)
    Blend: AUG-CC-PVTZ-JKFIT
	 Reference Energy          =    -551.3762197324201679 [Eh]
	 Singles Energy            =      -0.0000000000000000 [Eh]
	 Same-Spin Energy          =      -0.2323495991485756 [Eh]
	 Opposite-Spin Energy      =      -0.7101770940312742 [Eh]
	 Correlation Energy        =      -0.9425266931798497 [Eh]
	 Total Energy              =    -552.3187464256000112 [Eh]

	 ================> DF-SCS-MP2 Energies <==================
	-----------------------------------------------------------
	 SCS Same-Spin Scale       =       0.3333333333333333 [-]
	 SCS Opposite-Spin Scale   =       1.2000000000000000 [-]
	 SCS Same-Spin Energy      =      -0.0774498663828585 [Eh]
	 SCS Opposite-Spin Energy  =      -0.8522125128375290 [Eh]
	 SCS Correlation Energy    =      -0.9296623792203875 [Eh]
	 SCS Total Energy          =    -552.3058821116405852 [Eh]
	-----------------------------------------------------------

  Dipole Moment: [D]
     X:    -0.3664      Y:    -0.0088      Z:     0.0000     Total:     0.3665

*** Psi4 exiting successfully. Buy a developer a beer!
