                               Psi4 1.3.2 release

  ==> Input File <==

--------------------------------------------------------------------------
#psi4
#
memory 32 gb

molecule  {
0 1
  S        1.1915130     0.0000000    -0.0000490
  C       -1.2740110     0.7100150     0.0000760
  C       -1.2740120    -0.7100150     0.0000280
  C        0.0905022     1.2734503     0.0000170
  C       -0.0019290    -1.2352840    -0.0000200
  H       -2.1689880     1.3232550     0.0001320
  H       -2.1689890    -1.3232540     0.0000440
  H        0.2925210     2.2768120     0.0000270
  H        0.2925210    -2.2768120    -0.0000490
units angstrom
no_reorient  #important for SAPT in psi4, default
symmetry c1  #important for SAPT in psi4, default
}

set PROPERTIES_ORIGIN ["COM"]
properties('MP2/aug-cc-pvtz', properties = ['dipole'])
--------------------------------------------------------------------------

    Molecular point group: c1
  Charge       = 0
  Multiplicity = 1
  Basis Set: AUG-CC-PVTZ
    Blend: AUG-CC-PVTZ
  Basis Set: (AUG-CC-PVTZ AUX)
    Blend: AUG-CC-PVTZ-JKFIT

    Orbital Energies [Eh]
    ---------------------

    Doubly Occupied:

       1A    -91.992459     2A    -11.268075     3A    -11.264148
       4A    -11.250839     5A    -11.242630     6A     -8.992623
       7A     -6.673618     8A     -6.673221     9A     -6.672555
      10A     -1.165322    11A     -0.994595    12A     -0.968653
      13A     -0.777115    14A     -0.749786    15A     -0.692371
      16A     -0.577959    17A     -0.555962    18A     -0.532334
      19A     -0.520474    20A     -0.471786    21A     -0.349325
      22A     -0.314567

  @DF-RHF Final Energy:  -551.36476133193310

   => Energetics <=

    Nuclear Repulsion Energy =            201.8071610150066988
    One-Electron Energy =               -1156.9430113821078976
    Two-Electron Energy =                 403.7710890351681314
    Total Energy =                       -551.3647613319330958
  Basis Set: (AUG-CC-PVTZ AUX)
    Blend: AUG-CC-PVTZ-RI
    Molecular point group: c1

    Geometry (in Angstrom), charge = 0, multiplicity = 1:

       Center              X                  Y                   Z               Mass
    ------------   -----------------  -----------------  -----------------  -----------------
         S            1.134379114426    -0.005452121751    -0.000046625971    31.972071174400
         C           -1.331144885574     0.704562878249     0.000078374029    12.000000000000
         C           -1.331145885574    -0.715467121751     0.000030374029    12.000000000000
         C            0.033368314426     1.267998178249     0.000019374029    12.000000000000
         C           -0.059062885574    -1.240736121751    -0.000017625971    12.000000000000
         H           -2.226121885574     1.317802878249     0.000134374029     1.007825032230
         H           -2.226122885574    -1.328706121751     0.000046374029     1.007825032230
         H            0.235387114426     2.271359878249     0.000029374029     1.007825032230
         H            0.235387114426    -2.282264121751    -0.000046625971     1.007825032230

  Basis Set: AUG-CC-PVTZ
    Blend: AUG-CC-PVTZ
  Basis Set: (AUG-CC-PVTZ AUX)
    Blend: AUG-CC-PVTZ-JKFIT
	 Reference Energy          =    -551.3647613319330958 [Eh]
	 Singles Energy            =      -0.0000000000000000 [Eh]
	 Same-Spin Energy          =      -0.2333800409978218 [Eh]
	 Opposite-Spin Energy      =      -0.7122648802916359 [Eh]
	 Correlation Energy        =      -0.9456449212894578 [Eh]
	 Total Energy              =    -552.3104062532225953 [Eh]

	 ================> DF-SCS-MP2 Energies <==================
	-----------------------------------------------------------
	 SCS Same-Spin Scale       =       0.3333333333333333 [-]
	 SCS Opposite-Spin Scale   =       1.2000000000000000 [-]
	 SCS Same-Spin Energy      =      -0.0777933469992739 [Eh]
	 SCS Opposite-Spin Energy  =      -0.8547178563499631 [Eh]
	 SCS Correlation Energy    =      -0.9325112033492371 [Eh]
	 SCS Total Energy          =    -552.2972725352823318 [Eh]
	-----------------------------------------------------------

  Dipole Moment: [D]
     X:    -0.3976      Y:    -0.0790      Z:     0.0000     Total:     0.4054

*** Psi4 exiting successfully. Buy a developer a beer!
