                               Psi4 1.3.2 release

  ==> Input File <==

--------------------------------------------------------------------------
#psi4
#
memory 32 gb

molecule  {
0 1
  S        1.1915130     0.0000000    -0.0000490
  C       -1.2549045     0.6659399     0.0000741
  C       -1.2740120    -0.7100150     0.0000280
  C       -0.0019280     1.2352840     0.0000210
  C       -0.0019290    -1.2352840    -0.0000200
  H       -2.1689880     1.3232550     0.0001320
  H       -2.1689890    -1.3232540     0.0000440
  H        0.2925210     2.2768120     0.0000270
  H        0.2925210    -2.2768120    -0.0000490
units angstrom
no_reorient  #important for SAPT in psi4, default
symmetry c1  #important for SAPT in psi4, default
}

set PROPERTIES_ORIGIN ["COM"]
properties('MP2/aug-cc-pvtz', properties = ['dipole'])
--------------------------------------------------------------------------

    Molecular point group: c1
  Charge       = 0
  Multiplicity = 1
  Basis Set: AUG-CC-PVTZ
    Blend: AUG-CC-PVTZ
  Basis Set: (AUG-CC-PVTZ AUX)
    Blend: AUG-CC-PVTZ-JKFIT

    Orbital Energies [Eh]
    ---------------------

    Doubly Occupied:

       1A    -91.986750     2A    -11.264303     3A    -11.262936
       4A    -11.240108     5A    -11.236490     6A     -8.987009
       7A     -6.667951     8A     -6.667525     9A     -6.666834
      10A     -1.176329    11A     -0.991498    12A     -0.978962
      13A     -0.769683    14A     -0.746191    15A     -0.695061
      16A     -0.573217    17A     -0.558486    18A     -0.526670
      19A     -0.522201    20A     -0.473382    21A     -0.351064
      22A     -0.323242

  @DF-RHF Final Energy:  -551.37575173651828

   => Energetics <=

    Nuclear Repulsion Energy =            203.2243529350463689
    One-Electron Energy =               -1159.8684286993523074
    Two-Electron Energy =                 405.2683240277876280
    Total Energy =                       -551.3757517365183958
  Basis Set: (AUG-CC-PVTZ AUX)
    Blend: AUG-CC-PVTZ-RI
    Molecular point group: c1

    Geometry (in Angstrom), charge = 0, multiplicity = 1:

       Center              X                  Y                   Z               Mass
    ------------   -----------------  -----------------  -----------------  -----------------
         S            1.144853508326     0.006296178165    -0.000046925959    31.972071174400
         C           -1.301563991674     0.672236078165     0.000076174041    12.000000000000
         C           -1.320671491674    -0.703718821835     0.000030074041    12.000000000000
         C           -0.048587491674     1.241580178165     0.000023074041    12.000000000000
         C           -0.048588491674    -1.228987821835    -0.000017925959    12.000000000000
         H           -2.215647491674     1.329551178165     0.000134074041     1.007825032230
         H           -2.215648491674    -1.316957821835     0.000046074041     1.007825032230
         H            0.245861508326     2.283108178165     0.000029074041     1.007825032230
         H            0.245861508326    -2.270515821835    -0.000046925959     1.007825032230

  Basis Set: AUG-CC-PVTZ
    Blend: AUG-CC-PVTZ
  Basis Set: (AUG-CC-PVTZ AUX)
    Blend: AUG-CC-PVTZ-JKFIT
	 Reference Energy          =    -551.3757517365182821 [Eh]
	 Singles Energy            =      -0.0000000000000000 [Eh]
	 Same-Spin Energy          =      -0.2323947034734727 [Eh]
	 Opposite-Spin Energy      =      -0.7103318302832030 [Eh]
	 Correlation Energy        =      -0.9427265337566757 [Eh]
	 Total Energy              =    -552.3184782702749089 [Eh]

	 ================> DF-SCS-MP2 Energies <==================
	-----------------------------------------------------------
	 SCS Same-Spin Scale       =       0.3333333333333333 [-]
	 SCS Opposite-Spin Scale   =       1.2000000000000000 [-]
	 SCS Same-Spin Energy      =      -0.0774649011578242 [Eh]
	 SCS Opposite-Spin Energy  =      -0.8523981963398436 [Eh]
	 SCS Correlation Energy    =      -0.9298630974976678 [Eh]
	 SCS Total Energy          =    -552.3056148340159552 [Eh]
	-----------------------------------------------------------

  Dipole Moment: [D]
     X:    -0.4278      Y:     0.0001      Z:     0.0000     Total:     0.4278

*** Psi4 exiting successfully. Buy a developer a beer!
