                               Psi4 1.3.2 release

  ==> Input File <==

--------------------------------------------------------------------------
#psi4
#
memory 32 gb

molecule  {
0 1
  S        1.1915130     0.0000000    -0.0000490
  C       -1.2740110     0.7100150     0.0000760
  C       -1.2740120    -0.7100150     0.0000280
  C        0.0460090     1.0994376     0.0000162
  C       -0.0019290    -1.2352840    -0.0000200
  H       -2.1689880     1.3232550     0.0001320
  H       -2.1689890    -1.3232540     0.0000440
  H        0.2925210     2.2768120     0.0000270
  H        0.2925210    -2.2768120    -0.0000490
units angstrom
no_reorient  #important for SAPT in psi4, default
symmetry c1  #important for SAPT in psi4, default
}

set PROPERTIES_ORIGIN ["COM"]
properties('MP2/aug-cc-pvtz', properties = ['dipole'])
--------------------------------------------------------------------------

    Molecular point group: c1
  Charge       = 0
  Multiplicity = 1
  Basis Set: AUG-CC-PVTZ
    Blend: AUG-CC-PVTZ
  Basis Set: (AUG-CC-PVTZ AUX)
    Blend: AUG-CC-PVTZ-JKFIT

    Orbital Energies [Eh]
    ---------------------

    Doubly Occupied:

       1A    -91.988237     2A    -11.263159     3A    -11.255702
       4A    -11.239503     5A    -11.234957     6A     -8.991856
       7A     -6.673204     8A     -6.672117     9A     -6.671396
      10A     -1.190524    11A     -1.004404    12A     -0.971382
      13A     -0.759750    14A     -0.741691    15A     -0.695443
      16A     -0.565271    17A     -0.544946    18A     -0.536640
      19A     -0.518429    20A     -0.488272    21A     -0.351973
      22A     -0.320988

  @DF-RHF Final Energy:  -551.35502192857689

   => Energetics <=

    Nuclear Repulsion Energy =            205.3736218580339141
    One-Electron Energy =               -1164.0976029076587110
    Two-Electron Energy =                 407.3689591210480216
    Total Energy =                       -551.3550219285768890
  Basis Set: (AUG-CC-PVTZ AUX)
    Blend: AUG-CC-PVTZ-RI
    Molecular point group: c1

    Geometry (in Angstrom), charge = 0, multiplicity = 1:

       Center              X                  Y                   Z               Mass
    ------------   -----------------  -----------------  -----------------  -----------------
         S            1.140735030762     0.019405837729    -0.000046511690    31.972071174400
         C           -1.324788969238     0.729420837729     0.000078488310    12.000000000000
         C           -1.324789969238    -0.690609162271     0.000030488310    12.000000000000
         C           -0.004768969238     1.118843437729     0.000018688310    12.000000000000
         C           -0.052706969238    -1.215878162271    -0.000017511690    12.000000000000
         H           -2.219765969238     1.342660837729     0.000134488310     1.007825032230
         H           -2.219766969238    -1.303848162271     0.000046488310     1.007825032230
         H            0.241743030762     2.296217837729     0.000029488310     1.007825032230
         H            0.241743030762    -2.257406162271    -0.000046511690     1.007825032230

  Basis Set: AUG-CC-PVTZ
    Blend: AUG-CC-PVTZ
  Basis Set: (AUG-CC-PVTZ AUX)
    Blend: AUG-CC-PVTZ-JKFIT
	 Reference Energy          =    -551.3550219285768890 [Eh]
	 Singles Energy            =      -0.0000000000000000 [Eh]
	 Same-Spin Energy          =      -0.2334715752942974 [Eh]
	 Opposite-Spin Energy      =      -0.7110095002788150 [Eh]
	 Correlation Energy        =      -0.9444810755731124 [Eh]
	 Total Energy              =    -552.2995030041499831 [Eh]

	 ================> DF-SCS-MP2 Energies <==================
	-----------------------------------------------------------
	 SCS Same-Spin Scale       =       0.3333333333333333 [-]
	 SCS Opposite-Spin Scale   =       1.2000000000000000 [-]
	 SCS Same-Spin Energy      =      -0.0778238584314325 [Eh]
	 SCS Opposite-Spin Energy  =      -0.8532114003345780 [Eh]
	 SCS Correlation Energy    =      -0.9310352587660105 [Eh]
	 SCS Total Energy          =    -552.2860571873428626 [Eh]
	-----------------------------------------------------------

  Dipole Moment: [D]
     X:    -0.2566      Y:     0.0014      Z:     0.0000     Total:     0.2566

*** Psi4 exiting successfully. Buy a developer a beer!
