                               Psi4 1.3.2 release

  ==> Input File <==

--------------------------------------------------------------------------
#psi4
#
memory 32 gb

molecule  {
0 1
  S        1.1915130     0.0000000    -0.0000490
  C       -1.2740110     0.7100150     0.0000760
  C       -1.2740120    -0.7100150     0.0000280
  C       -0.0443118     1.1928810     0.0000221
  C       -0.0019290    -1.2352840    -0.0000200
  H       -2.1689880     1.3232550     0.0001320
  H       -2.1689890    -1.3232540     0.0000440
  H        0.2925210     2.2768120     0.0000270
  H        0.2925210    -2.2768120    -0.0000490
units angstrom
no_reorient  #important for SAPT in psi4, default
symmetry c1  #important for SAPT in psi4, default
}

set PROPERTIES_ORIGIN ["COM"]
properties('MP2/aug-cc-pvtz', properties = ['dipole'])
--------------------------------------------------------------------------

    Molecular point group: c1
  Charge       = 0
  Multiplicity = 1
  Basis Set: AUG-CC-PVTZ
    Blend: AUG-CC-PVTZ
  Basis Set: (AUG-CC-PVTZ AUX)
    Blend: AUG-CC-PVTZ-JKFIT

    Orbital Energies [Eh]
    ---------------------

    Doubly Occupied:

       1A    -91.983717     2A    -11.262924     3A    -11.261247
       4A    -11.239891     5A    -11.233245     6A     -8.984446
       7A     -6.665462     8A     -6.664876     9A     -6.664141
      10A     -1.177320    11A     -0.992273    12A     -0.979944
      13A     -0.764439    14A     -0.745083    15A     -0.698083
      16A     -0.573526    17A     -0.550335    18A     -0.527227
      19A     -0.518846    20A     -0.479168    21A     -0.349974
      22A     -0.329428

  @DF-RHF Final Energy:  -551.37640779723949

   => Energetics <=

    Nuclear Repulsion Energy =            203.3145584200166809
    One-Electron Energy =               -1160.0907404711754225
    Two-Electron Energy =                 405.3997742539192473
    Total Energy =                       -551.3764077972393807
  Basis Set: (AUG-CC-PVTZ AUX)
    Blend: AUG-CC-PVTZ-RI
    Molecular point group: c1

    Geometry (in Angstrom), charge = 0, multiplicity = 1:

       Center              X                  Y                   Z               Mass
    ------------   -----------------  -----------------  -----------------  -----------------
         S            1.153637484357     0.006057316323    -0.000047354513    31.972071174400
         C           -1.311886515643     0.716072316323     0.000077645487    12.000000000000
         C           -1.311887515643    -0.703957683677     0.000029645487    12.000000000000
         C           -0.082187315643     1.198938316323     0.000023745487    12.000000000000
         C           -0.039804515643    -1.229226683677    -0.000018354513    12.000000000000
         H           -2.206863515643     1.329312316323     0.000133645487     1.007825032230
         H           -2.206864515643    -1.317196683677     0.000045645487     1.007825032230
         H            0.254645484357     2.282869316323     0.000028645487     1.007825032230
         H            0.254645484357    -2.270754683677    -0.000047354513     1.007825032230

  Basis Set: AUG-CC-PVTZ
    Blend: AUG-CC-PVTZ
  Basis Set: (AUG-CC-PVTZ AUX)
    Blend: AUG-CC-PVTZ-JKFIT
	 Reference Energy          =    -551.3764077972394944 [Eh]
	 Singles Energy            =      -0.0000000000000000 [Eh]
	 Same-Spin Energy          =      -0.2308327815347392 [Eh]
	 Opposite-Spin Energy      =      -0.7088039241051447 [Eh]
	 Correlation Energy        =      -0.9396367056398840 [Eh]
	 Total Energy              =    -552.3160445028793220 [Eh]

	 ================> DF-SCS-MP2 Energies <==================
	-----------------------------------------------------------
	 SCS Same-Spin Scale       =       0.3333333333333333 [-]
	 SCS Opposite-Spin Scale   =       1.2000000000000000 [-]
	 SCS Same-Spin Energy      =      -0.0769442605115797 [Eh]
	 SCS Opposite-Spin Energy  =      -0.8505647089261736 [Eh]
	 SCS Correlation Energy    =      -0.9275089694377534 [Eh]
	 SCS Total Energy          =    -552.3039167666772755 [Eh]
	-----------------------------------------------------------

  Dipole Moment: [D]
     X:    -0.4505      Y:     0.0321      Z:     0.0000     Total:     0.4517

*** Psi4 exiting successfully. Buy a developer a beer!
