                               Psi4 1.3.2 release

  ==> Input File <==

--------------------------------------------------------------------------
#psi4
#
memory 32 gb

molecule  {
0 1
  S        1.0558529    -0.1179815    -0.0000455
  C       -1.2740110     0.7100150     0.0000760
  C       -1.2740120    -0.7100150     0.0000280
  C       -0.0019280     1.2352840     0.0000210
  C       -0.0019290    -1.2352840    -0.0000200
  H       -2.1689880     1.3232550     0.0001320
  H       -2.1689890    -1.3232540     0.0000440
  H        0.2925210     2.2768120     0.0000270
  H        0.2925210    -2.2768120    -0.0000490
units angstrom
no_reorient  #important for SAPT in psi4, default
symmetry c1  #important for SAPT in psi4, default
}

set PROPERTIES_ORIGIN ["COM"]
properties('MP2/aug-cc-pvtz', properties = ['dipole'])
--------------------------------------------------------------------------

    Molecular point group: c1
  Charge       = 0
  Multiplicity = 1
  Basis Set: AUG-CC-PVTZ
    Blend: AUG-CC-PVTZ
  Basis Set: (AUG-CC-PVTZ AUX)
    Blend: AUG-CC-PVTZ-JKFIT

    Orbital Energies [Eh]
    ---------------------

    Doubly Occupied:

       1A    -91.978965     2A    -11.258079     3A    -11.248780
       4A    -11.239820     5A    -11.232232     6A     -8.984803
       7A     -6.666431     8A     -6.665059     9A     -6.664384
      10A     -1.202128    11A     -1.010508    12A     -0.973746
      13A     -0.762689    14A     -0.758469    15A     -0.697143
      16A     -0.586815    17A     -0.552377    18A     -0.543206
      19A     -0.540752    20A     -0.461914    21A     -0.351654
      22A     -0.321389

  @DF-RHF Final Energy:  -551.35627636204242

   => Energetics <=

    Nuclear Repulsion Energy =            208.3084801988190975
    One-Electron Energy =               -1169.9268257865203395
    Two-Electron Energy =                 410.2620692256588200
    Total Energy =                       -551.3562763620424221
  Basis Set: (AUG-CC-PVTZ AUX)
    Blend: AUG-CC-PVTZ-RI
    Molecular point group: c1

    Geometry (in Angstrom), charge = 0, multiplicity = 1:

       Center              X                  Y                   Z               Mass
    ------------   -----------------  -----------------  -----------------  -----------------
         S            1.063555659530    -0.073077208078    -0.000045029493    31.972071174400
         C           -1.266308240470     0.754919291922     0.000076470507    12.000000000000
         C           -1.266309240470    -0.665110708078     0.000028470507    12.000000000000
         C            0.005774759530     1.280188291922     0.000021470507    12.000000000000
         C            0.005773759530    -1.190379708078    -0.000019529493    12.000000000000
         H           -2.161285240470     1.368159291922     0.000132470507     1.007825032230
         H           -2.161286240470    -1.278349708078     0.000044470507     1.007825032230
         H            0.300223759530     2.321716291922     0.000027470507     1.007825032230
         H            0.300223759530    -2.231907708078    -0.000048529493     1.007825032230

  Basis Set: AUG-CC-PVTZ
    Blend: AUG-CC-PVTZ
  Basis Set: (AUG-CC-PVTZ AUX)
    Blend: AUG-CC-PVTZ-JKFIT
	 Reference Energy          =    -551.3562763620424221 [Eh]
	 Singles Energy            =      -0.0000000000000000 [Eh]
	 Same-Spin Energy          =      -0.2338365147966500 [Eh]
	 Opposite-Spin Energy      =      -0.7090491631504661 [Eh]
	 Correlation Energy        =      -0.9428856779471160 [Eh]
	 Total Energy              =    -552.2991620399894828 [Eh]

	 ================> DF-SCS-MP2 Energies <==================
	-----------------------------------------------------------
	 SCS Same-Spin Scale       =       0.3333333333333333 [-]
	 SCS Opposite-Spin Scale   =       1.2000000000000000 [-]
	 SCS Same-Spin Energy      =      -0.0779455049322166 [Eh]
	 SCS Opposite-Spin Energy  =      -0.8508589957805592 [Eh]
	 SCS Correlation Energy    =      -0.9288045007127759 [Eh]
	 SCS Total Energy          =    -552.2850808627551942 [Eh]
	-----------------------------------------------------------

  Dipole Moment: [D]
     X:    -0.3437      Y:    -0.0721      Z:     0.0000     Total:     0.3512

*** Psi4 exiting successfully. Buy a developer a beer!
