                               Psi4 1.3.2 release

  ==> Input File <==

--------------------------------------------------------------------------
#psi4
#
memory 32 gb

molecule  {
0 1
  S        1.1915130     0.0000000    -0.0000490
  C       -1.2740110     0.7100150     0.0000760
  C       -1.2740120    -0.7100150     0.0000280
  C        0.1370363     1.0914475     0.0000128
  C       -0.0019290    -1.2352840    -0.0000200
  H       -2.1689880     1.3232550     0.0001320
  H       -2.1689890    -1.3232540     0.0000440
  H        0.2925210     2.2768120     0.0000270
  H        0.2925210    -2.2768120    -0.0000490
units angstrom
no_reorient  #important for SAPT in psi4, default
symmetry c1  #important for SAPT in psi4, default
}

set PROPERTIES_ORIGIN ["COM"]
properties('MP2/aug-cc-pvtz', properties = ['dipole'])
--------------------------------------------------------------------------

    Molecular point group: c1
  Charge       = 0
  Multiplicity = 1
  Basis Set: AUG-CC-PVTZ
    Blend: AUG-CC-PVTZ
  Basis Set: (AUG-CC-PVTZ AUX)
    Blend: AUG-CC-PVTZ-JKFIT

    Orbital Energies [Eh]
    ---------------------

    Doubly Occupied:

       1A    -91.991837     2A    -11.266044     3A    -11.251580
       4A    -11.241106     5A    -11.239721     6A     -8.997521
       7A     -6.679273     8A     -6.677478     9A     -6.676944
      10A     -1.195557    11A     -1.015969    12A     -0.957219
      13A     -0.756284    14A     -0.743126    15A     -0.693144
      16A     -0.559660    17A     -0.555337    18A     -0.540159
      19A     -0.522493    20A     -0.479065    21A     -0.358860
      22A     -0.307149

  @DF-RHF Final Energy:  -551.33009516204788

   => Energetics <=

    Nuclear Repulsion Energy =            205.8253288161768069
    One-Electron Energy =               -1164.8997961328318524
    Two-Electron Energy =                 407.7443721546071629
    Total Energy =                       -551.3300951620478827
  Basis Set: (AUG-CC-PVTZ AUX)
    Blend: AUG-CC-PVTZ-RI
    Molecular point group: c1

    Geometry (in Angstrom), charge = 0, multiplicity = 1:

       Center              X                  Y                   Z               Mass
    ------------   -----------------  -----------------  -----------------  -----------------
         S            1.127731652647     0.020547234776    -0.000046025995    31.972071174400
         C           -1.337792347353     0.730562234776     0.000078974005    12.000000000000
         C           -1.337793347353    -0.689467765224     0.000030974005    12.000000000000
         C            0.073254952647     1.111994734776     0.000015774005    12.000000000000
         C           -0.065710347353    -1.214736765224    -0.000017025995    12.000000000000
         H           -2.232769347353     1.343802234776     0.000134974005     1.007825032230
         H           -2.232770347353    -1.302706765224     0.000046974005     1.007825032230
         H            0.228739652647     2.297359234776     0.000029974005     1.007825032230
         H            0.228739652647    -2.256264765224    -0.000046025995     1.007825032230

  Basis Set: AUG-CC-PVTZ
    Blend: AUG-CC-PVTZ
  Basis Set: (AUG-CC-PVTZ AUX)
    Blend: AUG-CC-PVTZ-JKFIT
	 Reference Energy          =    -551.3300951620478827 [Eh]
	 Singles Energy            =      -0.0000000000000000 [Eh]
	 Same-Spin Energy          =      -0.2356840055745284 [Eh]
	 Opposite-Spin Energy      =      -0.7132271115328386 [Eh]
	 Correlation Energy        =      -0.9489111171073670 [Eh]
	 Total Energy              =    -552.2790062791552828 [Eh]

	 ================> DF-SCS-MP2 Energies <==================
	-----------------------------------------------------------
	 SCS Same-Spin Scale       =       0.3333333333333333 [-]
	 SCS Opposite-Spin Scale   =       1.2000000000000000 [-]
	 SCS Same-Spin Energy      =      -0.0785613351915095 [Eh]
	 SCS Opposite-Spin Energy  =      -0.8558725338394063 [Eh]
	 SCS Correlation Energy    =      -0.9344338690309157 [Eh]
	 SCS Total Energy          =    -552.2645290310788369 [Eh]
	-----------------------------------------------------------

  Dipole Moment: [D]
     X:    -0.1861      Y:     0.0159      Z:     0.0000     Total:     0.1868

*** Psi4 exiting successfully. Buy a developer a beer!
