                               Psi4 1.3.2 release

  ==> Input File <==

--------------------------------------------------------------------------
#psi4
#
memory 32 gb

molecule  {
0 1
  S        1.1915130     0.0000000    -0.0000490
  C       -1.2740110     0.7100150     0.0000760
  C       -1.1255784    -0.7022360     0.0000224
  C       -0.0019280     1.2352840     0.0000210
  C       -0.0019290    -1.2352840    -0.0000200
  H       -2.1689880     1.3232550     0.0001320
  H       -2.1689890    -1.3232540     0.0000440
  H        0.2925210     2.2768120     0.0000270
  H        0.2925210    -2.2768120    -0.0000490
units angstrom
no_reorient  #important for SAPT in psi4, default
symmetry c1  #important for SAPT in psi4, default
}

set PROPERTIES_ORIGIN ["COM"]
properties('MP2/aug-cc-pvtz', properties = ['dipole'])
--------------------------------------------------------------------------

    Molecular point group: c1
  Charge       = 0
  Multiplicity = 1
  Basis Set: AUG-CC-PVTZ
    Blend: AUG-CC-PVTZ
  Basis Set: (AUG-CC-PVTZ AUX)
    Blend: AUG-CC-PVTZ-JKFIT

    Orbital Energies [Eh]
    ---------------------

    Doubly Occupied:

       1A    -91.978388     2A    -11.266840     3A    -11.245849
       4A    -11.240096     5A    -11.235036     6A     -8.979727
       7A     -6.660705     8A     -6.660299     9A     -6.659382
      10A     -1.191425    11A     -1.003388    12A     -0.978958
      13A     -0.773246    14A     -0.743785    15A     -0.687846
      16A     -0.598662    17A     -0.549112    18A     -0.537084
      19A     -0.506794    20A     -0.458230    21A     -0.353378
      22A     -0.337566

  @DF-RHF Final Energy:  -551.35135998055739

   => Energetics <=

    Nuclear Repulsion Energy =            205.1785329434396772
    One-Electron Energy =               -1163.7681954418033001
    Two-Electron Energy =                 407.2383025178061757
    Total Energy =                       -551.3513599805573904
  Basis Set: (AUG-CC-PVTZ AUX)
    Blend: AUG-CC-PVTZ-RI
    Molecular point group: c1

    Geometry (in Angstrom), charge = 0, multiplicity = 1:

       Center              X                  Y                   Z               Mass
    ------------   -----------------  -----------------  -----------------  -----------------
         S            1.126378949795    -0.001111253113    -0.000046397409    31.972071174400
         C           -1.339145050205     0.708903746887     0.000078602591    12.000000000000
         C           -1.190712450205    -0.703347253113     0.000025002591    12.000000000000
         C           -0.067062050205     1.234172746887     0.000023602591    12.000000000000
         C           -0.067063050205    -1.236395253113    -0.000017397409    12.000000000000
         H           -2.234122050205     1.322143746887     0.000134602591     1.007825032230
         H           -2.234123050205    -1.324365253113     0.000046602591     1.007825032230
         H            0.227386949795     2.275700746887     0.000029602591     1.007825032230
         H            0.227386949795    -2.277923253113    -0.000046397409     1.007825032230

  Basis Set: AUG-CC-PVTZ
    Blend: AUG-CC-PVTZ
  Basis Set: (AUG-CC-PVTZ AUX)
    Blend: AUG-CC-PVTZ-JKFIT
	 Reference Energy          =    -551.3513599805573904 [Eh]
	 Singles Energy            =      -0.0000000000000000 [Eh]
	 Same-Spin Energy          =      -0.2302353577039697 [Eh]
	 Opposite-Spin Energy      =      -0.7077719179765647 [Eh]
	 Correlation Energy        =      -0.9380072756805344 [Eh]
	 Total Energy              =    -552.2893672562379379 [Eh]

	 ================> DF-SCS-MP2 Energies <==================
	-----------------------------------------------------------
	 SCS Same-Spin Scale       =       0.3333333333333333 [-]
	 SCS Opposite-Spin Scale   =       1.2000000000000000 [-]
	 SCS Same-Spin Energy      =      -0.0767451192346566 [Eh]
	 SCS Opposite-Spin Energy  =      -0.8493263015718776 [Eh]
	 SCS Correlation Energy    =      -0.9260714208065342 [Eh]
	 SCS Total Energy          =    -552.2774314013639696 [Eh]
	-----------------------------------------------------------

  Dipole Moment: [D]
     X:    -0.5289      Y:     0.0085      Z:     0.0000     Total:     0.5290

*** Psi4 exiting successfully. Buy a developer a beer!
