                               Psi4 1.3.2 release

  ==> Input File <==

--------------------------------------------------------------------------
#psi4
#
memory 32 gb

molecule  {
0 1
  S        1.1915130     0.0000000    -0.0000490
  C       -1.2740110     0.7100150     0.0000760
  C       -1.2740120    -0.7100150     0.0000280
  C       -0.0019280     1.2352840     0.0000210
  C       -0.0019290    -1.2352840    -0.0000200
  H       -2.2514806     1.3797791     0.0001372
  H       -2.1689890    -1.3232540     0.0000440
  H        0.2925210     2.2768120     0.0000270
  H        0.2925210    -2.2768120    -0.0000490
units angstrom
no_reorient  #important for SAPT in psi4, default
symmetry c1  #important for SAPT in psi4, default
}

set PROPERTIES_ORIGIN ["COM"]
properties('MP2/aug-cc-pvtz', properties = ['dipole'])
--------------------------------------------------------------------------

    Molecular point group: c1
  Charge       = 0
  Multiplicity = 1
  Basis Set: AUG-CC-PVTZ
    Blend: AUG-CC-PVTZ
  Basis Set: (AUG-CC-PVTZ AUX)
    Blend: AUG-CC-PVTZ-JKFIT

    Orbital Energies [Eh]
    ---------------------

    Doubly Occupied:

       1A    -91.986893     2A    -11.264878     3A    -11.264845
       4A    -11.251853     5A    -11.241907     6A     -8.987224
       7A     -6.668211     8A     -6.667717     9A     -6.667003
      10A     -1.170789    11A     -0.985159    12A     -0.979405
      13A     -0.766560    14A     -0.744235    15A     -0.687429
      16A     -0.570039    17A     -0.549653    18A     -0.523738
      19A     -0.523614    20A     -0.474780    21A     -0.347702
      22A     -0.326584

  @DF-RHF Final Energy:  -551.37238417800268

   => Energetics <=

    Nuclear Repulsion Energy =            202.0178054520006015
    One-Electron Energy =               -1157.4799479046941997
    Two-Electron Energy =                 404.0897582746908938
    Total Energy =                       -551.3723841780026760
  Basis Set: (AUG-CC-PVTZ AUX)
    Blend: AUG-CC-PVTZ-RI
    Molecular point group: c1

    Geometry (in Angstrom), charge = 0, multiplicity = 1:

       Center              X                  Y                   Z               Mass
    ------------   -----------------  -----------------  -----------------  -----------------
         S            1.148572598434    -0.000678156244    -0.000047259763    31.972071174400
         C           -1.316951401566     0.709336843756     0.000077740237    12.000000000000
         C           -1.316952401566    -0.710693156244     0.000029740237    12.000000000000
         C           -0.044868401566     1.234605843756     0.000022740237    12.000000000000
         C           -0.044869401566    -1.235962156244    -0.000018259763    12.000000000000
         H           -2.294421001566     1.379100943756     0.000138940237     1.007825032230
         H           -2.211929401566    -1.323932156244     0.000045740237     1.007825032230
         H            0.249580598434     2.276133843756     0.000028740237     1.007825032230
         H            0.249580598434    -2.277490156244    -0.000047259763     1.007825032230

  Basis Set: AUG-CC-PVTZ
    Blend: AUG-CC-PVTZ
  Basis Set: (AUG-CC-PVTZ AUX)
    Blend: AUG-CC-PVTZ-JKFIT
	 Reference Energy          =    -551.3723841780026760 [Eh]
	 Singles Energy            =      -0.0000000000000000 [Eh]
	 Same-Spin Energy          =      -0.2316857699546458 [Eh]
	 Opposite-Spin Energy      =      -0.7104411326913990 [Eh]
	 Correlation Energy        =      -0.9421269026460448 [Eh]
	 Total Energy              =    -552.3145110806486855 [Eh]

	 ================> DF-SCS-MP2 Energies <==================
	-----------------------------------------------------------
	 SCS Same-Spin Scale       =       0.3333333333333333 [-]
	 SCS Opposite-Spin Scale   =       1.2000000000000000 [-]
	 SCS Same-Spin Energy      =      -0.0772285899848819 [Eh]
	 SCS Opposite-Spin Energy  =      -0.8525293592296788 [Eh]
	 SCS Correlation Energy    =      -0.9297579492145607 [Eh]
	 SCS Total Energy          =    -552.3021421272172802 [Eh]
	-----------------------------------------------------------

  Dipole Moment: [D]
     X:    -0.4134      Y:    -0.0208      Z:     0.0000     Total:     0.4139

*** Psi4 exiting successfully. Buy a developer a beer!
