                               Psi4 1.3.2 release

  ==> Input File <==

--------------------------------------------------------------------------
#psi4
#
memory 32 gb

molecule  {
0 1
  S        1.1915130     0.0000000    -0.0000490
  C       -1.2740110     0.7100150     0.0000760
  C       -1.2740120    -0.7100150     0.0000280
  C       -0.0851899     1.1490247     0.0000230
  C       -0.0019290    -1.2352840    -0.0000200
  H       -2.1689880     1.3232550     0.0001320
  H       -2.1689890    -1.3232540     0.0000440
  H        0.2925210     2.2768120     0.0000270
  H        0.2925210    -2.2768120    -0.0000490
units angstrom
no_reorient  #important for SAPT in psi4, default
symmetry c1  #important for SAPT in psi4, default
}

set PROPERTIES_ORIGIN ["COM"]
properties('MP2/aug-cc-pvtz', properties = ['dipole'])
--------------------------------------------------------------------------

    Molecular point group: c1
  Charge       = 0
  Multiplicity = 1
  Basis Set: AUG-CC-PVTZ
    Blend: AUG-CC-PVTZ
  Basis Set: (AUG-CC-PVTZ AUX)
    Blend: AUG-CC-PVTZ-JKFIT

    Orbital Energies [Eh]
    ---------------------

    Doubly Occupied:

       1A    -91.981870     2A    -11.261959     3A    -11.258276
       4A    -11.239305     5A    -11.225518     6A     -8.982901
       7A     -6.663937     8A     -6.663264     9A     -6.662499
      10A     -1.185711    11A     -1.001363    12A     -0.976771
      13A     -0.766757    14A     -0.737533    15A     -0.698866
      16A     -0.575318    17A     -0.550718    18A     -0.532625
      19A     -0.504995    20A     -0.481071    21A     -0.355801
      22A     -0.330682

  @DF-RHF Final Energy:  -551.36191048020123

   => Energetics <=

    Nuclear Repulsion Energy =            204.2197307900719636
    One-Electron Energy =               -1161.8878057875238028
    Two-Electron Energy =                 406.3061645172505791
    Total Energy =                       -551.3619104802012316
  Basis Set: (AUG-CC-PVTZ AUX)
    Blend: AUG-CC-PVTZ-RI
    Molecular point group: c1

    Geometry (in Angstrom), charge = 0, multiplicity = 1:

       Center              X                  Y                   Z               Mass
    ------------   -----------------  -----------------  -----------------  -----------------
         S            1.159476978563     0.012322250597    -0.000047483080    31.972071174400
         C           -1.306047021437     0.722337250597     0.000077516920    12.000000000000
         C           -1.306048021437    -0.697692749403     0.000029516920    12.000000000000
         C           -0.117225921437     1.161346950597     0.000024516920    12.000000000000
         C           -0.033965021437    -1.222961749403    -0.000018483080    12.000000000000
         H           -2.201024021437     1.335577250597     0.000133516920     1.007825032230
         H           -2.201025021437    -1.310931749403     0.000045516920     1.007825032230
         H            0.260484978563     2.289134250597     0.000028516920     1.007825032230
         H            0.260484978563    -2.264489749403    -0.000047483080     1.007825032230

  Basis Set: AUG-CC-PVTZ
    Blend: AUG-CC-PVTZ
  Basis Set: (AUG-CC-PVTZ AUX)
    Blend: AUG-CC-PVTZ-JKFIT
	 Reference Energy          =    -551.3619104802012316 [Eh]
	 Singles Energy            =      -0.0000000000000000 [Eh]
	 Same-Spin Energy          =      -0.2303688970453310 [Eh]
	 Opposite-Spin Energy      =      -0.7084776740815408 [Eh]
	 Correlation Energy        =      -0.9388465711268719 [Eh]
	 Total Energy              =    -552.3007570513281053 [Eh]

	 ================> DF-SCS-MP2 Energies <==================
	-----------------------------------------------------------
	 SCS Same-Spin Scale       =       0.3333333333333333 [-]
	 SCS Opposite-Spin Scale   =       1.2000000000000000 [-]
	 SCS Same-Spin Energy      =      -0.0767896323484437 [Eh]
	 SCS Opposite-Spin Energy  =      -0.8501732088978490 [Eh]
	 SCS Correlation Energy    =      -0.9269628412462927 [Eh]
	 SCS Total Energy          =    -552.2888733214475678 [Eh]
	-----------------------------------------------------------

  Dipole Moment: [D]
     X:    -0.4741      Y:     0.0423      Z:     0.0000     Total:     0.4760

*** Psi4 exiting successfully. Buy a developer a beer!
