                               Psi4 1.3.2 release

  ==> Input File <==

--------------------------------------------------------------------------
#psi4
#
memory 32 gb

molecule  {
0 1
  S        1.1915130     0.0000000    -0.0000490
  C       -1.2342714     0.6225585     0.0000722
  C       -1.2740120    -0.7100150     0.0000280
  C       -0.0019280     1.2352840     0.0000210
  C       -0.0019290    -1.2352840    -0.0000200
  H       -2.1689880     1.3232550     0.0001320
  H       -2.1689890    -1.3232540     0.0000440
  H        0.2925210     2.2768120     0.0000270
  H        0.2925210    -2.2768120    -0.0000490
units angstrom
no_reorient  #important for SAPT in psi4, default
symmetry c1  #important for SAPT in psi4, default
}

set PROPERTIES_ORIGIN ["COM"]
properties('MP2/aug-cc-pvtz', properties = ['dipole'])
--------------------------------------------------------------------------

    Molecular point group: c1
  Charge       = 0
  Multiplicity = 1
  Basis Set: AUG-CC-PVTZ
    Blend: AUG-CC-PVTZ
  Basis Set: (AUG-CC-PVTZ AUX)
    Blend: AUG-CC-PVTZ-JKFIT

    Orbital Energies [Eh]
    ---------------------

    Doubly Occupied:

       1A    -91.987534     2A    -11.264734     3A    -11.262001
       4A    -11.239382     5A    -11.232149     6A     -8.987697
       7A     -6.668586     8A     -6.668229     9A     -6.667553
      10A     -1.183098    11A     -0.997793    12A     -0.976493
      13A     -0.773333    14A     -0.743067    15A     -0.693600
      16A     -0.581914    17A     -0.556056    18A     -0.530976
      19A     -0.515205    20A     -0.469500    21A     -0.355457
      22A     -0.320599

  @DF-RHF Final Energy:  -551.36533698019480

   => Energetics <=

    Nuclear Repulsion Energy =            204.0182126955851913
    One-Electron Energy =               -1161.4171883582766895
    Two-Electron Energy =                 406.0336386824967576
    Total Energy =                       -551.3653369801947974
  Basis Set: (AUG-CC-PVTZ AUX)
    Blend: AUG-CC-PVTZ-RI
    Molecular point group: c1

    Geometry (in Angstrom), charge = 0, multiplicity = 1:

       Center              X                  Y                   Z               Mass
    ------------   -----------------  -----------------  -----------------  -----------------
         S            1.141906040907     0.012493272304    -0.000046654541    31.972071174400
         C           -1.283878359093     0.635051772304     0.000074545459    12.000000000000
         C           -1.323618959093    -0.697521727696     0.000030345459    12.000000000000
         C           -0.051534959093     1.247777272304     0.000023345459    12.000000000000
         C           -0.051535959093    -1.222790727696    -0.000017654541    12.000000000000
         H           -2.218594959093     1.335748272304     0.000134345459     1.007825032230
         H           -2.218595959093    -1.310760727696     0.000046345459     1.007825032230
         H            0.242914040907     2.289305272304     0.000029345459     1.007825032230
         H            0.242914040907    -2.264318727696    -0.000046654541     1.007825032230

  Basis Set: AUG-CC-PVTZ
    Blend: AUG-CC-PVTZ
  Basis Set: (AUG-CC-PVTZ AUX)
    Blend: AUG-CC-PVTZ-JKFIT
	 Reference Energy          =    -551.3653369801947974 [Eh]
	 Singles Energy            =      -0.0000000000000000 [Eh]
	 Same-Spin Energy          =      -0.2334009788787748 [Eh]
	 Opposite-Spin Energy      =      -0.7113453088555890 [Eh]
	 Correlation Energy        =      -0.9447462877343638 [Eh]
	 Total Energy              =    -552.3100832679291443 [Eh]

	 ================> DF-SCS-MP2 Energies <==================
	-----------------------------------------------------------
	 SCS Same-Spin Scale       =       0.3333333333333333 [-]
	 SCS Opposite-Spin Scale   =       1.2000000000000000 [-]
	 SCS Same-Spin Energy      =      -0.0778003262929249 [Eh]
	 SCS Opposite-Spin Energy  =      -0.8536143706267068 [Eh]
	 SCS Correlation Energy    =      -0.9314146969196316 [Eh]
	 SCS Total Energy          =    -552.2967516771144574 [Eh]
	-----------------------------------------------------------

  Dipole Moment: [D]
     X:    -0.4106      Y:    -0.0077      Z:     0.0000     Total:     0.4106

*** Psi4 exiting successfully. Buy a developer a beer!
