                               Psi4 1.3.2 release

  ==> Input File <==

--------------------------------------------------------------------------
#psi4
#
memory 32 gb

molecule  {
0 1
  S        1.1915130     0.0000000    -0.0000490
  C       -1.2740110     0.7100150     0.0000760
  C       -1.2740119    -0.6100150     0.0000314
  C       -0.0019280     1.2352840     0.0000210
  C       -0.0019290    -1.2352840    -0.0000200
  H       -2.1689880     1.3232550     0.0001320
  H       -2.1689890    -1.3232540     0.0000440
  H        0.2925210     2.2768120     0.0000270
  H        0.2925210    -2.2768120    -0.0000490
units angstrom
no_reorient  #important for SAPT in psi4, default
symmetry c1  #important for SAPT in psi4, default
}

set PROPERTIES_ORIGIN ["COM"]
properties('MP2/aug-cc-pvtz', properties = ['dipole'])
--------------------------------------------------------------------------

    Molecular point group: c1
  Charge       = 0
  Multiplicity = 1
  Basis Set: AUG-CC-PVTZ
    Blend: AUG-CC-PVTZ
  Basis Set: (AUG-CC-PVTZ AUX)
    Blend: AUG-CC-PVTZ-JKFIT

    Orbital Energies [Eh]
    ---------------------

    Doubly Occupied:

       1A    -91.990472     2A    -11.266414     3A    -11.263751
       4A    -11.240380     5A    -11.230973     6A     -8.990268
       7A     -6.671137     8A     -6.670777     9A     -6.670174
      10A     -1.179690    11A     -1.001414    12A     -0.970456
      13A     -0.772778    14A     -0.743181    15A     -0.695120
      16A     -0.577217    17A     -0.559118    18A     -0.528785
      19A     -0.516153    20A     -0.472073    21A     -0.357923
      22A     -0.314499

  @DF-RHF Final Energy:  -551.36279962645483

   => Energetics <=

    Nuclear Repulsion Energy =            203.4810686258967110
    One-Electron Energy =               -1160.3222316076664811
    Two-Electron Energy =                 405.4783633553149684
    Total Energy =                       -551.3627996264548301
  Basis Set: (AUG-CC-PVTZ AUX)
    Blend: AUG-CC-PVTZ-RI
    Molecular point group: c1

    Geometry (in Angstrom), charge = 0, multiplicity = 1:

       Center              X                  Y                   Z               Mass
    ------------   -----------------  -----------------  -----------------  -----------------
         S            1.147582884498    -0.014285152955    -0.000047683072    31.972071174400
         C           -1.317941115502     0.695729847045     0.000077316928    12.000000000000
         C           -1.317942015502    -0.624300152955     0.000032716928    12.000000000000
         C           -0.045858115502     1.220998847045     0.000022316928    12.000000000000
         C           -0.045859115502    -1.249569152955    -0.000018683072    12.000000000000
         H           -2.212918115502     1.308969847045     0.000133316928     1.007825032230
         H           -2.212919115502    -1.337539152955     0.000045316928     1.007825032230
         H            0.248590884498     2.262526847045     0.000028316928     1.007825032230
         H            0.248590884498    -2.291097152955    -0.000047683072     1.007825032230

  Basis Set: AUG-CC-PVTZ
    Blend: AUG-CC-PVTZ
  Basis Set: (AUG-CC-PVTZ AUX)
    Blend: AUG-CC-PVTZ-JKFIT
	 Reference Energy          =    -551.3627996264548301 [Eh]
	 Singles Energy            =      -0.0000000000000000 [Eh]
	 Same-Spin Energy          =      -0.2342110899509195 [Eh]
	 Opposite-Spin Energy      =      -0.7125145249359623 [Eh]
	 Correlation Energy        =      -0.9467256148868818 [Eh]
	 Total Energy              =    -552.3095252413417029 [Eh]

	 ================> DF-SCS-MP2 Energies <==================
	-----------------------------------------------------------
	 SCS Same-Spin Scale       =       0.3333333333333333 [-]
	 SCS Opposite-Spin Scale   =       1.2000000000000000 [-]
	 SCS Same-Spin Energy      =      -0.0780703633169731 [Eh]
	 SCS Opposite-Spin Energy  =      -0.8550174299231548 [Eh]
	 SCS Correlation Energy    =      -0.9330877932401279 [Eh]
	 SCS Total Energy          =    -552.2958874196949637 [Eh]
	-----------------------------------------------------------

  Dipole Moment: [D]
     X:    -0.3894      Y:     0.0052      Z:     0.0000     Total:     0.3894

*** Psi4 exiting successfully. Buy a developer a beer!
