                               Psi4 1.3.2 release

  ==> Input File <==

--------------------------------------------------------------------------
#psi4
#
memory 32 gb

molecule  {
0 1
  S        1.1915130     0.0000000    -0.0000490
  C       -1.2740110     0.7100150     0.0000760
  C       -1.4224455    -0.7022358     0.0000368
  C       -0.0019280     1.2352840     0.0000210
  C       -0.0019290    -1.2352840    -0.0000200
  H       -2.1689880     1.3232550     0.0001320
  H       -2.1689890    -1.3232540     0.0000440
  H        0.2925210     2.2768120     0.0000270
  H        0.2925210    -2.2768120    -0.0000490
units angstrom
no_reorient  #important for SAPT in psi4, default
symmetry c1  #important for SAPT in psi4, default
}

set PROPERTIES_ORIGIN ["COM"]
properties('MP2/aug-cc-pvtz', properties = ['dipole'])
--------------------------------------------------------------------------

    Molecular point group: c1
  Charge       = 0
  Multiplicity = 1
  Basis Set: AUG-CC-PVTZ
    Blend: AUG-CC-PVTZ
  Basis Set: (AUG-CC-PVTZ AUX)
    Blend: AUG-CC-PVTZ-JKFIT

    Orbital Energies [Eh]
    ---------------------

    Doubly Occupied:

       1A    -91.995713     2A    -11.281407     3A    -11.262044
       4A    -11.247503     5A    -11.244975     6A     -8.995098
       7A     -6.676039     8A     -6.675518     9A     -6.674986
      10A     -1.157320    11A     -0.994141    12A     -0.966629
      13A     -0.775906    14A     -0.758390    15A     -0.694283
      16A     -0.592655    17A     -0.546531    18A     -0.515335
      19A     -0.513608    20A     -0.481500    21A     -0.350709
      22A     -0.309600

  @DF-RHF Final Energy:  -551.34495938415785

   => Energetics <=

    Nuclear Repulsion Energy =            200.1864914950850505
    One-Electron Energy =               -1153.6431179268261076
    Two-Electron Energy =                 402.1116670475831825
    Total Energy =                       -551.3449593841578462
  Basis Set: (AUG-CC-PVTZ AUX)
    Blend: AUG-CC-PVTZ-RI
    Molecular point group: c1

    Geometry (in Angstrom), charge = 0, multiplicity = 1:

       Center              X                  Y                   Z               Mass
    ------------   -----------------  -----------------  -----------------  -----------------
         S            1.168786833487    -0.001111281683    -0.000048454469    31.972071174400
         C           -1.296737166513     0.708903718317     0.000076545531    12.000000000000
         C           -1.445171666513    -0.703347081683     0.000037345531    12.000000000000
         C           -0.024654166513     1.234172718317     0.000021545531    12.000000000000
         C           -0.024655166513    -1.236395281683    -0.000019454469    12.000000000000
         H           -2.191714166513     1.322143718317     0.000132545531     1.007825032230
         H           -2.191715166513    -1.324365281683     0.000044545531     1.007825032230
         H            0.269794833487     2.275700718317     0.000027545531     1.007825032230
         H            0.269794833487    -2.277923281683    -0.000048454469     1.007825032230

  Basis Set: AUG-CC-PVTZ
    Blend: AUG-CC-PVTZ
  Basis Set: (AUG-CC-PVTZ AUX)
    Blend: AUG-CC-PVTZ-JKFIT
	 Reference Energy          =    -551.3449593841578462 [Eh]
	 Singles Energy            =      -0.0000000000000000 [Eh]
	 Same-Spin Energy          =      -0.2340872460438273 [Eh]
	 Opposite-Spin Energy      =      -0.7145596240378526 [Eh]
	 Correlation Energy        =      -0.9486468700816799 [Eh]
	 Total Energy              =    -552.2936062542395348 [Eh]

	 ================> DF-SCS-MP2 Energies <==================
	-----------------------------------------------------------
	 SCS Same-Spin Scale       =       0.3333333333333333 [-]
	 SCS Opposite-Spin Scale   =       1.2000000000000000 [-]
	 SCS Same-Spin Energy      =      -0.0780290820146091 [Eh]
	 SCS Opposite-Spin Energy  =      -0.8574715488454231 [Eh]
	 SCS Correlation Energy    =      -0.9355006308600322 [Eh]
	 SCS Total Energy          =    -552.2804600150178658 [Eh]
	-----------------------------------------------------------

  Dipole Moment: [D]
     X:    -0.3036      Y:     0.0553      Z:     0.0000     Total:     0.3086

*** Psi4 exiting successfully. Buy a developer a beer!
