                               Psi4 1.3.2 release

  ==> Input File <==

--------------------------------------------------------------------------
#psi4
#
memory 32 gb

molecule  {
0 1
  S        1.2128899     0.0210166    -0.0000498
  C       -1.2740110     0.7100150     0.0000760
  C       -1.2740120    -0.7100150     0.0000280
  C       -0.0019280     1.2352840     0.0000210
  C       -0.0019290    -1.2352840    -0.0000200
  H       -2.1689880     1.3232550     0.0001320
  H       -2.1689890    -1.3232540     0.0000440
  H        0.2925210     2.2768120     0.0000270
  H        0.2925210    -2.2768120    -0.0000490
units angstrom
no_reorient  #important for SAPT in psi4, default
symmetry c1  #important for SAPT in psi4, default
}

set PROPERTIES_ORIGIN ["COM"]
properties('MP2/aug-cc-pvtz', properties = ['dipole'])
--------------------------------------------------------------------------

    Molecular point group: c1
  Charge       = 0
  Multiplicity = 1
  Basis Set: AUG-CC-PVTZ
    Blend: AUG-CC-PVTZ
  Basis Set: (AUG-CC-PVTZ AUX)
    Blend: AUG-CC-PVTZ-JKFIT

    Orbital Energies [Eh]
    ---------------------

    Doubly Occupied:

       1A    -91.987051     2A    -11.266517     3A    -11.264978
       4A    -11.242440     5A    -11.240810     6A     -8.986795
       7A     -6.667773     8A     -6.667226     9A     -6.666568
      10A     -1.166664    11A     -0.986409    12A     -0.978592
      13A     -0.767313    14A     -0.749161    15A     -0.696170
      16A     -0.573087    17A     -0.552777    18A     -0.524545
      19A     -0.520470    20A     -0.476689    21A     -0.348351
      22A     -0.325037

  @DF-RHF Final Energy:  -551.37896617730883

   => Energetics <=

    Nuclear Repulsion Energy =            201.6019812118280754
    One-Electron Energy =               -1156.6510440718311656
    Two-Electron Energy =                 403.6700966826942363
    Total Energy =                       -551.3789661773089392
  Basis Set: (AUG-CC-PVTZ AUX)
    Blend: AUG-CC-PVTZ-RI
    Molecular point group: c1

    Geometry (in Angstrom), charge = 0, multiplicity = 1:

       Center              X                  Y                   Z               Mass
    ------------   -----------------  -----------------  -----------------  -----------------
         S            1.160823651892     0.013017572956    -0.000047692893    31.972071174400
         C           -1.326077248108     0.702015972956     0.000078107107    12.000000000000
         C           -1.326078248108    -0.718014027044     0.000030107107    12.000000000000
         C           -0.053994248108     1.227284972956     0.000023107107    12.000000000000
         C           -0.053995248108    -1.243283027044    -0.000017892893    12.000000000000
         H           -2.221054248108     1.315255972956     0.000134107107     1.007825032230
         H           -2.221055248108    -1.331253027044     0.000046107107     1.007825032230
         H            0.240454751892     2.268812972956     0.000029107107     1.007825032230
         H            0.240454751892    -2.284811027044    -0.000046892893     1.007825032230

  Basis Set: AUG-CC-PVTZ
    Blend: AUG-CC-PVTZ
  Basis Set: (AUG-CC-PVTZ AUX)
    Blend: AUG-CC-PVTZ-JKFIT
	 Reference Energy          =    -551.3789661773088255 [Eh]
	 Singles Energy            =      -0.0000000000000000 [Eh]
	 Same-Spin Energy          =      -0.2311988779373338 [Eh]
	 Opposite-Spin Energy      =      -0.7099270809759001 [Eh]
	 Correlation Energy        =      -0.9411259589132339 [Eh]
	 Total Energy              =    -552.3200921362221152 [Eh]

	 ================> DF-SCS-MP2 Energies <==================
	-----------------------------------------------------------
	 SCS Same-Spin Scale       =       0.3333333333333333 [-]
	 SCS Opposite-Spin Scale   =       1.2000000000000000 [-]
	 SCS Same-Spin Energy      =      -0.0770662926457779 [Eh]
	 SCS Opposite-Spin Energy  =      -0.8519124971710801 [Eh]
	 SCS Correlation Energy    =      -0.9289787898168580 [Eh]
	 SCS Total Energy          =    -552.3079449671256498 [Eh]
	-----------------------------------------------------------

  Dipole Moment: [D]
     X:    -0.4606      Y:     0.0017      Z:     0.0000     Total:     0.4606

*** Psi4 exiting successfully. Buy a developer a beer!
