                               Psi4 1.3.2 release

  ==> Input File <==

--------------------------------------------------------------------------
#psi4
#
memory 32 gb

molecule  {
0 1
  S        1.1915130     0.0000000    -0.0000490
  C       -1.2740110     0.7100150     0.0000760
  C       -1.2740120    -0.7100150     0.0000280
  C       -0.1245125     1.1037684     0.0000239
  C       -0.0019290    -1.2352840    -0.0000200
  H       -2.1689880     1.3232550     0.0001320
  H       -2.1689890    -1.3232540     0.0000440
  H        0.2925210     2.2768120     0.0000270
  H        0.2925210    -2.2768120    -0.0000490
units angstrom
no_reorient  #important for SAPT in psi4, default
symmetry c1  #important for SAPT in psi4, default
}

set PROPERTIES_ORIGIN ["COM"]
properties('MP2/aug-cc-pvtz', properties = ['dipole'])
--------------------------------------------------------------------------

    Molecular point group: c1
  Charge       = 0
  Multiplicity = 1
  Basis Set: AUG-CC-PVTZ
    Blend: AUG-CC-PVTZ
  Basis Set: (AUG-CC-PVTZ AUX)
    Blend: AUG-CC-PVTZ-JKFIT

    Orbital Energies [Eh]
    ---------------------

    Doubly Occupied:

       1A    -91.980684     2A    -11.261314     3A    -11.255433
       4A    -11.239299     5A    -11.217873     6A     -8.981943
       7A     -6.662991     8A     -6.662238     9A     -6.661442
      10A     -1.195723    11A     -1.011221    12A     -0.973676
      13A     -0.770040    14A     -0.732009    15A     -0.698055
      16A     -0.578394    17A     -0.552073    18A     -0.539426
      19A     -0.494042    20A     -0.476621    21A     -0.363526
      22A     -0.330784

  @DF-RHF Final Energy:  -551.33527281477575

   => Energetics <=

    Nuclear Repulsion Energy =            205.1884528760214437
    One-Electron Energy =               -1163.7698383781289522
    Two-Electron Energy =                 407.2461126873318449
    Total Energy =                       -551.3352728147756352
  Basis Set: (AUG-CC-PVTZ AUX)
    Blend: AUG-CC-PVTZ-RI
    Molecular point group: c1

    Geometry (in Angstrom), charge = 0, multiplicity = 1:

       Center              X                  Y                   Z               Mass
    ------------   -----------------  -----------------  -----------------  -----------------
         S            1.165094267401     0.018787176844    -0.000047611646    31.972071174400
         C           -1.300429732599     0.728802176844     0.000077388354    12.000000000000
         C           -1.300430732599    -0.691227823156     0.000029388354    12.000000000000
         C           -0.150931232599     1.122555576844     0.000025288354    12.000000000000
         C           -0.028347732599    -1.216496823156    -0.000018611646    12.000000000000
         H           -2.195406732599     1.342042176844     0.000133388354     1.007825032230
         H           -2.195407732599    -1.304466823156     0.000045388354     1.007825032230
         H            0.266102267401     2.295599176844     0.000028388354     1.007825032230
         H            0.266102267401    -2.258024823156    -0.000047611646     1.007825032230

  Basis Set: AUG-CC-PVTZ
    Blend: AUG-CC-PVTZ
  Basis Set: (AUG-CC-PVTZ AUX)
    Blend: AUG-CC-PVTZ-JKFIT
	 Reference Energy          =    -551.3352728147757489 [Eh]
	 Singles Energy            =      -0.0000000000000000 [Eh]
	 Same-Spin Energy          =      -0.2301216241383432 [Eh]
	 Opposite-Spin Energy      =      -0.7086138498934468 [Eh]
	 Correlation Energy        =      -0.9387354740317900 [Eh]
	 Total Energy              =    -552.2740082888075221 [Eh]

	 ================> DF-SCS-MP2 Energies <==================
	-----------------------------------------------------------
	 SCS Same-Spin Scale       =       0.3333333333333333 [-]
	 SCS Opposite-Spin Scale   =       1.2000000000000000 [-]
	 SCS Same-Spin Energy      =      -0.0767072080461144 [Eh]
	 SCS Opposite-Spin Energy  =      -0.8503366198721362 [Eh]
	 SCS Correlation Energy    =      -0.9270438279182506 [Eh]
	 SCS Total Energy          =    -552.2623166426940315 [Eh]
	-----------------------------------------------------------

  Dipole Moment: [D]
     X:    -0.5109      Y:     0.0242      Z:     0.0000     Total:     0.5114

*** Psi4 exiting successfully. Buy a developer a beer!
