                               Psi4 1.3.2 release

  ==> Input File <==

--------------------------------------------------------------------------
#psi4
#
memory 32 gb

molecule  {
0 1
  S        1.2747749     0.0862593    -0.0000509
  C       -1.2740110     0.7100150     0.0000760
  C       -1.2740120    -0.7100150     0.0000280
  C       -0.0019280     1.2352840     0.0000210
  C       -0.0019290    -1.2352840    -0.0000200
  H       -2.1689880     1.3232550     0.0001320
  H       -2.1689890    -1.3232540     0.0000440
  H        0.2925210     2.2768120     0.0000270
  H        0.2925210    -2.2768120    -0.0000490
units angstrom
no_reorient  #important for SAPT in psi4, default
symmetry c1  #important for SAPT in psi4, default
}

set PROPERTIES_ORIGIN ["COM"]
properties('MP2/aug-cc-pvtz', properties = ['dipole'])
--------------------------------------------------------------------------

    Molecular point group: c1
  Charge       = 0
  Multiplicity = 1
  Basis Set: AUG-CC-PVTZ
    Blend: AUG-CC-PVTZ
  Basis Set: (AUG-CC-PVTZ AUX)
    Blend: AUG-CC-PVTZ-JKFIT

    Orbital Energies [Eh]
    ---------------------

    Doubly Occupied:

       1A    -91.989168     2A    -11.273444     3A    -11.267391
       4A    -11.246494     5A    -11.241405     6A     -8.987484
       7A     -6.668449     8A     -6.667686     9A     -6.667159
      10A     -1.157342    11A     -0.990435    12A     -0.968439
      13A     -0.770452    14A     -0.745049    15A     -0.695557
      16A     -0.572348    17A     -0.554779    18A     -0.513989
      19A     -0.513935    20A     -0.476028    21A     -0.353503
      22A     -0.321106

  @DF-RHF Final Energy:  -551.37137120353646

   => Energetics <=

    Nuclear Repulsion Energy =            199.1460286640673871
    One-Electron Energy =               -1151.7515140360924306
    Two-Electron Energy =                 401.2341141684885315
    Total Energy =                       -551.3713712035364551
  Basis Set: (AUG-CC-PVTZ AUX)
    Blend: AUG-CC-PVTZ-RI
    Molecular point group: c1

    Geometry (in Angstrom), charge = 0, multiplicity = 1:

       Center              X                  Y                   Z               Mass
    ------------   -----------------  -----------------  -----------------  -----------------
         S            1.199154935012     0.053428599945    -0.000048374228    31.972071174400
         C           -1.349630964988     0.677184299945     0.000078525772    12.000000000000
         C           -1.349631964988    -0.742845700055     0.000030525772    12.000000000000
         C           -0.077547964988     1.202453299945     0.000023525772    12.000000000000
         C           -0.077548964988    -1.268114700055    -0.000017474228    12.000000000000
         H           -2.244607964988     1.290424299945     0.000134525772     1.007825032230
         H           -2.244608964988    -1.356084700055     0.000046525772     1.007825032230
         H            0.216901035012     2.243981299945     0.000029525772     1.007825032230
         H            0.216901035012    -2.309642700055    -0.000046474228     1.007825032230

  Basis Set: AUG-CC-PVTZ
    Blend: AUG-CC-PVTZ
  Basis Set: (AUG-CC-PVTZ AUX)
    Blend: AUG-CC-PVTZ-JKFIT
	 Reference Energy          =    -551.3713712035364551 [Eh]
	 Singles Energy            =      -0.0000000000000000 [Eh]
	 Same-Spin Energy          =      -0.2304986323435952 [Eh]
	 Opposite-Spin Energy      =      -0.7110263731948681 [Eh]
	 Correlation Energy        =      -0.9415250055384633 [Eh]
	 Total Energy              =    -552.3128962090748928 [Eh]

	 ================> DF-SCS-MP2 Energies <==================
	-----------------------------------------------------------
	 SCS Same-Spin Scale       =       0.3333333333333333 [-]
	 SCS Opposite-Spin Scale   =       1.2000000000000000 [-]
	 SCS Same-Spin Energy      =      -0.0768328774478651 [Eh]
	 SCS Opposite-Spin Energy  =      -0.8532316478338416 [Eh]
	 SCS Correlation Energy    =      -0.9300645252817067 [Eh]
	 SCS Total Energy          =    -552.3014357288182055 [Eh]
	-----------------------------------------------------------

  Dipole Moment: [D]
     X:    -0.5354      Y:    -0.0076      Z:     0.0000     Total:     0.5355

*** Psi4 exiting successfully. Buy a developer a beer!
