                               Psi4 1.3.2 release

  ==> Input File <==

--------------------------------------------------------------------------
#psi4
#
memory 32 gb

molecule  {
0 1
  S        1.1915130     0.0000000    -0.0000490
  C       -1.2740110     0.7100150     0.0000760
  C       -1.2740120    -0.7100150     0.0000280
  C       -0.0210345     1.2793591     0.0000227
  C       -0.0019290    -1.2352840    -0.0000200
  H       -2.1689880     1.3232550     0.0001320
  H       -2.1689890    -1.3232540     0.0000440
  H        0.2925210     2.2768120     0.0000270
  H        0.2925210    -2.2768120    -0.0000490
units angstrom
no_reorient  #important for SAPT in psi4, default
symmetry c1  #important for SAPT in psi4, default
}

set PROPERTIES_ORIGIN ["COM"]
properties('MP2/aug-cc-pvtz', properties = ['dipole'])
--------------------------------------------------------------------------

    Molecular point group: c1
  Charge       = 0
  Multiplicity = 1
  Basis Set: AUG-CC-PVTZ
    Blend: AUG-CC-PVTZ
  Basis Set: (AUG-CC-PVTZ AUX)
    Blend: AUG-CC-PVTZ-JKFIT

    Orbital Energies [Eh]
    ---------------------

    Doubly Occupied:

       1A    -91.984917     2A    -11.266906     3A    -11.265127
       4A    -11.243634     5A    -11.241317     6A     -8.984551
       7A     -6.665513     8A     -6.665014     9A     -6.664362
      10A     -1.165533    11A     -0.985468    12A     -0.980374
      13A     -0.773110    14A     -0.751436    15A     -0.696418
      16A     -0.581019    17A     -0.558156    18A     -0.523661
      19A     -0.519575    20A     -0.468297    21A     -0.346831
      22A     -0.326769

  @DF-RHF Final Energy:  -551.37776575279202

   => Energetics <=

    Nuclear Repulsion Energy =            201.5873525941852051
    One-Electron Energy =               -1156.6142589490409591
    Two-Electron Energy =                 403.6491406020637669
    Total Energy =                       -551.3777657527920155
  Basis Set: (AUG-CC-PVTZ AUX)
    Blend: AUG-CC-PVTZ-RI
    Molecular point group: c1

    Geometry (in Angstrom), charge = 0, multiplicity = 1:

       Center              X                  Y                   Z               Mass
    ------------   -----------------  -----------------  -----------------  -----------------
         S            1.150312289241    -0.006296202160    -0.000047440224    31.972071174400
         C           -1.315211710759     0.703718797840     0.000077559776    12.000000000000
         C           -1.315212710759    -0.716311202160     0.000029559776    12.000000000000
         C           -0.062235210759     1.273062897840     0.000024259776    12.000000000000
         C           -0.043129710759    -1.241580202160    -0.000018440224    12.000000000000
         H           -2.210188710759     1.316958797840     0.000133559776     1.007825032230
         H           -2.210189710759    -1.329550202160     0.000045559776     1.007825032230
         H            0.251320289241     2.270515797840     0.000028559776     1.007825032230
         H            0.251320289241    -2.283108202160    -0.000047440224     1.007825032230

  Basis Set: AUG-CC-PVTZ
    Blend: AUG-CC-PVTZ
  Basis Set: (AUG-CC-PVTZ AUX)
    Blend: AUG-CC-PVTZ-JKFIT
	 Reference Energy          =    -551.3777657527920155 [Eh]
	 Singles Energy            =      -0.0000000000000000 [Eh]
	 Same-Spin Energy          =      -0.2310849740524660 [Eh]
	 Opposite-Spin Energy      =      -0.7097647149147726 [Eh]
	 Correlation Energy        =      -0.9408496889672386 [Eh]
	 Total Energy              =    -552.3186154417592206 [Eh]

	 ================> DF-SCS-MP2 Energies <==================
	-----------------------------------------------------------
	 SCS Same-Spin Scale       =       0.3333333333333333 [-]
	 SCS Opposite-Spin Scale   =       1.2000000000000000 [-]
	 SCS Same-Spin Energy      =      -0.0770283246841553 [Eh]
	 SCS Opposite-Spin Energy  =      -0.8517176578977270 [Eh]
	 SCS Correlation Energy    =      -0.9287459825818823 [Eh]
	 SCS Total Energy          =    -552.3065117353738742 [Eh]
	-----------------------------------------------------------

  Dipole Moment: [D]
     X:    -0.5050      Y:     0.0003      Z:     0.0000     Total:     0.5050

*** Psi4 exiting successfully. Buy a developer a beer!
