                               Psi4 1.3.2 release

  ==> Input File <==

--------------------------------------------------------------------------
#psi4
#
memory 32 gb

molecule  {
0 1
  S        1.1915130     0.0000000    -0.0000490
  C       -1.2740110     0.7100150     0.0000760
  C       -1.2244537    -0.7091500     0.0000252
  C       -0.0019280     1.2352840     0.0000210
  C       -0.0019290    -1.2352840    -0.0000200
  H       -2.1689880     1.3232550     0.0001320
  H       -2.1689890    -1.3232540     0.0000440
  H        0.2925210     2.2768120     0.0000270
  H        0.2925210    -2.2768120    -0.0000490
units angstrom
no_reorient  #important for SAPT in psi4, default
symmetry c1  #important for SAPT in psi4, default
}

set PROPERTIES_ORIGIN ["COM"]
properties('MP2/aug-cc-pvtz', properties = ['dipole'])
--------------------------------------------------------------------------

    Molecular point group: c1
  Charge       = 0
  Multiplicity = 1
  Basis Set: AUG-CC-PVTZ
    Blend: AUG-CC-PVTZ
  Basis Set: (AUG-CC-PVTZ AUX)
    Blend: AUG-CC-PVTZ-JKFIT

    Orbital Energies [Eh]
    ---------------------

    Doubly Occupied:

       1A    -91.983302     2A    -11.264903     3A    -11.257942
       4A    -11.240341     5A    -11.238604     6A     -8.983980
       7A     -6.664974     8A     -6.664503     9A     -6.663731
      10A     -1.176459    11A     -0.987900    12A     -0.983654
      13A     -0.768109    14A     -0.746921    15A     -0.694631
      16A     -0.579847    17A     -0.550398    18A     -0.526834
      19A     -0.523184    20A     -0.472036    21A     -0.347234
      22A     -0.331292

  @DF-RHF Final Energy:  -551.37803371629002

   => Energetics <=

    Nuclear Repulsion Energy =            203.3262932415640876
    One-Electron Energy =               -1160.1070925103319951
    Two-Electron Energy =                 405.4027655524778311
    Total Energy =                       -551.3780337162900196
  Basis Set: (AUG-CC-PVTZ AUX)
    Blend: AUG-CC-PVTZ-RI
    Molecular point group: c1

    Geometry (in Angstrom), charge = 0, multiplicity = 1:

       Center              X                  Y                   Z               Mass
    ------------   -----------------  -----------------  -----------------  -----------------
         S            1.140503425772    -0.000123578467    -0.000046797393    31.972071174400
         C           -1.325020574228     0.709891421533     0.000078202607    12.000000000000
         C           -1.275463274228    -0.709273578467     0.000027402607    12.000000000000
         C           -0.052937574228     1.235160421533     0.000023202607    12.000000000000
         C           -0.052938574228    -1.235407578467    -0.000017797393    12.000000000000
         H           -2.219997574228     1.323131421533     0.000134202607     1.007825032230
         H           -2.219998574228    -1.323377578467     0.000046202607     1.007825032230
         H            0.241511425772     2.276688421533     0.000029202607     1.007825032230
         H            0.241511425772    -2.276935578467    -0.000046797393     1.007825032230

  Basis Set: AUG-CC-PVTZ
    Blend: AUG-CC-PVTZ
  Basis Set: (AUG-CC-PVTZ AUX)
    Blend: AUG-CC-PVTZ-JKFIT
	 Reference Energy          =    -551.3780337162900196 [Eh]
	 Singles Energy            =      -0.0000000000000000 [Eh]
	 Same-Spin Energy          =      -0.2309072879655176 [Eh]
	 Opposite-Spin Energy      =      -0.7086848957653255 [Eh]
	 Correlation Energy        =      -0.9395921837308431 [Eh]
	 Total Energy              =    -552.3176259000208574 [Eh]

	 ================> DF-SCS-MP2 Energies <==================
	-----------------------------------------------------------
	 SCS Same-Spin Scale       =       0.3333333333333333 [-]
	 SCS Opposite-Spin Scale   =       1.2000000000000000 [-]
	 SCS Same-Spin Energy      =      -0.0769690959885059 [Eh]
	 SCS Opposite-Spin Energy  =      -0.8504218749183905 [Eh]
	 SCS Correlation Energy    =      -0.9273909709068964 [Eh]
	 SCS Total Energy          =    -552.3054246871969326 [Eh]
	-----------------------------------------------------------

  Dipole Moment: [D]
     X:    -0.4784      Y:    -0.0044      Z:     0.0000     Total:     0.4784

*** Psi4 exiting successfully. Buy a developer a beer!
