                               Psi4 1.4a3.dev225

  ==> Input File <==

--------------------------------------------------------------------------
#psi4
#
memory 32 gb

molecule  {
0 1
  S        1.1915130     0.0000000    -0.0000490
  C       -1.2740110     0.7100150     0.0000760
  C       -1.2740120    -0.7100150     0.0000280
  C       -0.0019280     1.2352840     0.0000210
  C       -0.0019290    -1.2352840    -0.0000200
  H       -2.1854865     1.3345598     0.0001330
  H       -2.1689890    -1.3232540     0.0000440
  H        0.2925210     2.2768120     0.0000270
  H        0.2925210    -2.2768120    -0.0000490
units angstrom
no_reorient  #important for SAPT in psi4, default
symmetry c1  #important for SAPT in psi4, default
}

set PROPERTIES_ORIGIN ["COM"]
properties('MP2/aug-cc-pvtz', properties = ['dipole'])
--------------------------------------------------------------------------

    Molecular point group: c1
  Charge       = 0
  Multiplicity = 1
  Basis Set: AUG-CC-PVTZ
    Blend: AUG-CC-PVTZ
  Basis Set: (AUG-CC-PVTZ AUX)
    Blend: AUG-CC-PVTZ-JKFIT

    Orbital Energies [Eh]
    ---------------------

    Doubly Occupied:

       1A    -91.986306     2A    -11.264263     3A    -11.264231
       4A    -11.243229     5A    -11.240911     6A     -8.986652
       7A     -6.667641     8A     -6.667148     9A     -6.666440
      10A     -1.170475    11A     -0.985779    12A     -0.980901
      13A     -0.766325    14A     -0.748985    15A     -0.694604
      16A     -0.572908    17A     -0.551792    18A     -0.527448
      19A     -0.523131    20A     -0.475631    21A     -0.347207
      22A     -0.326103

  @DF-RHF Final Energy:  -551.37914543183695

   => Energetics <=

    Nuclear Repulsion Energy =            202.3770429326883686
    One-Electron Energy =               -1158.1961583785068797
    Two-Electron Energy =                 404.4399700139815650
    Total Energy =                       -551.3791454318369460
  Basis Set: (AUG-CC-PVTZ AUX)
    Blend: AUG-CC-PVTZ-RI
    Molecular point group: c1

    Geometry (in Angstrom), charge = 0, multiplicity = 1:

       Center              X                  Y                   Z               Mass
    ------------   -----------------  -----------------  -----------------  -----------------
         S            1.147780838474    -0.000135640607    -0.000047209374    31.972071174400
         C           -1.317743161526     0.709879359393     0.000077790626    12.000000000000
         C           -1.317744161526    -0.710150640607     0.000029790626    12.000000000000
         C           -0.045660161526     1.235148359393     0.000022790626    12.000000000000
         C           -0.045661161526    -1.235419640607    -0.000018209374    12.000000000000
         H           -2.229218661526     1.334424159393     0.000134790626     1.007825032230
         H           -2.212721161526    -1.323389640607     0.000045790626     1.007825032230
         H            0.248788838474     2.276676359393     0.000028790626     1.007825032230
         H            0.248788838474    -2.276947640607    -0.000047209374     1.007825032230

  Basis Set: AUG-CC-PVTZ
    Blend: AUG-CC-PVTZ
  Basis Set: (AUG-CC-PVTZ AUX)
    Blend: AUG-CC-PVTZ-JKFIT
	 Reference Energy          =    -551.3791454318369460 [Eh]
	 Singles Energy            =      -0.0000000000000000 [Eh]
	 Same-Spin Energy          =      -0.2315267307767881 [Eh]
	 Opposite-Spin Energy      =      -0.7097750992181903 [Eh]
	 Correlation Energy        =      -0.9413018299949784 [Eh]
	 Total Energy              =    -552.3204472618318732 [Eh]

	 ================> DF-SCS-MP2 Energies <==================
	-----------------------------------------------------------
	 SCS Same-Spin Scale       =       0.3333333333333333 [-]
	 SCS Opposite-Spin Scale   =       1.2000000000000000 [-]
	 SCS Same-Spin Energy      =      -0.0771755769255960 [Eh]
	 SCS Opposite-Spin Energy  =      -0.8517301190618283 [Eh]
	 SCS Correlation Energy    =      -0.9289056959874243 [Eh]
	 SCS Total Energy          =    -552.3080511278243421 [Eh]
	-----------------------------------------------------------

  Dipole Moment: [D]
     X:    -0.4344      Y:    -0.0035      Z:     0.0000     Total:     0.4345

*** Psi4 exiting successfully. Buy a developer a beer!
