                               Psi4 1.4a3.dev225

  ==> Input File <==

--------------------------------------------------------------------------
#psi4
#
memory 32 gb

molecule  {
0 1
  S        1.1915130     0.0000000    -0.0000490
  C       -1.2740110     0.7100150     0.0000760
  C       -1.2740120    -0.7100150     0.0000280
  C       -0.0158244     1.2496676     0.0000218
  C       -0.0019290    -1.2352840    -0.0000200
  H       -2.1689880     1.3232550     0.0001320
  H       -2.1689890    -1.3232540     0.0000440
  H        0.2925210     2.2768120     0.0000270
  H        0.2925210    -2.2768120    -0.0000490
units angstrom
no_reorient  #important for SAPT in psi4, default
symmetry c1  #important for SAPT in psi4, default
}

set PROPERTIES_ORIGIN ["COM"]
properties('MP2/aug-cc-pvtz', properties = ['dipole'])
--------------------------------------------------------------------------

    Molecular point group: c1
  Charge       = 0
  Multiplicity = 1
  Basis Set: AUG-CC-PVTZ
    Blend: AUG-CC-PVTZ
  Basis Set: (AUG-CC-PVTZ AUX)
    Blend: AUG-CC-PVTZ-JKFIT

    Orbital Energies [Eh]
    ---------------------

    Doubly Occupied:

       1A    -91.985298     2A    -11.265190     3A    -11.264155
       4A    -11.241495     5A    -11.240449     6A     -8.985360
       7A     -6.666337     8A     -6.665839     9A     -6.665151
      10A     -1.168943    11A     -0.985483    12A     -0.981666
      13A     -0.768212    14A     -0.750806    15A     -0.696679
      16A     -0.576424    17A     -0.554887    18A     -0.525472
      19A     -0.521886    20A     -0.473041    21A     -0.347148
      22A     -0.326926

  @DF-RHF Final Energy:  -551.37985636953852

   => Energetics <=

    Nuclear Repulsion Energy =            202.1769143939880564
    One-Electron Energy =               -1157.7998456726611494
    Two-Electron Energy =                 404.2430749091346343
    Total Energy =                       -551.3798563695385155
  Basis Set: (AUG-CC-PVTZ AUX)
    Blend: AUG-CC-PVTZ-RI
    Molecular point group: c1

    Geometry (in Angstrom), charge = 0, multiplicity = 1:

       Center              X                  Y                   Z               Mass
    ------------   -----------------  -----------------  -----------------  -----------------
         S            1.149568019111    -0.002054729532    -0.000047311658    31.972071174400
         C           -1.315955980889     0.707960270468     0.000077688342    12.000000000000
         C           -1.315956980889    -0.712069729532     0.000029688342    12.000000000000
         C           -0.057769380889     1.247612870468     0.000023488342    12.000000000000
         C           -0.043873980889    -1.237338729532    -0.000018311658    12.000000000000
         H           -2.210932980889     1.321200270468     0.000133688342     1.007825032230
         H           -2.210933980889    -1.325308729532     0.000045688342     1.007825032230
         H            0.250576019111     2.274757270468     0.000028688342     1.007825032230
         H            0.250576019111    -2.278866729532    -0.000047311658     1.007825032230

  Basis Set: AUG-CC-PVTZ
    Blend: AUG-CC-PVTZ
  Basis Set: (AUG-CC-PVTZ AUX)
    Blend: AUG-CC-PVTZ-JKFIT
	 Reference Energy          =    -551.3798563695385155 [Eh]
	 Singles Energy            =      -0.0000000000000000 [Eh]
	 Same-Spin Energy          =      -0.2311961752433654 [Eh]
	 Opposite-Spin Energy      =      -0.7095130938564862 [Eh]
	 Correlation Energy        =      -0.9407092690998515 [Eh]
	 Total Energy              =    -552.3205656386384135 [Eh]

	 ================> DF-SCS-MP2 Energies <==================
	-----------------------------------------------------------
	 SCS Same-Spin Scale       =       0.3333333333333333 [-]
	 SCS Opposite-Spin Scale   =       1.2000000000000000 [-]
	 SCS Same-Spin Energy      =      -0.0770653917477885 [Eh]
	 SCS Opposite-Spin Energy  =      -0.8514157126277834 [Eh]
	 SCS Correlation Energy    =      -0.9284811043755719 [Eh]
	 SCS Total Energy          =    -552.3083374739140936 [Eh]
	-----------------------------------------------------------

  Dipole Moment: [D]
     X:    -0.4689      Y:     0.0058      Z:     0.0000     Total:     0.4689

*** Psi4 exiting successfully. Buy a developer a beer!
