                               Psi4 1.3.2 release

  ==> Input File <==

--------------------------------------------------------------------------
#psi4
#
memory 32 gb

molecule  {
0 1
  S        1.1915130     0.0000000    -0.0000490
  C       -1.2740110     0.7100150     0.0000760
  C       -1.2740120    -0.7100150     0.0000280
  C       -0.0019280     1.2352840     0.0000210
  C       -0.0019290    -1.2352840    -0.0000200
  H       -2.3339732     1.4363032     0.0001423
  H       -2.1689890    -1.3232540     0.0000440
  H        0.2925210     2.2768120     0.0000270
  H        0.2925210    -2.2768120    -0.0000490
units angstrom
no_reorient  #important for SAPT in psi4, default
symmetry c1  #important for SAPT in psi4, default
}

set PROPERTIES_ORIGIN ["COM"]
properties('MP2/aug-cc-pvtz', properties = ['dipole'])
--------------------------------------------------------------------------

    Molecular point group: c1
  Charge       = 0
  Multiplicity = 1
  Basis Set: AUG-CC-PVTZ
    Blend: AUG-CC-PVTZ
  Basis Set: (AUG-CC-PVTZ AUX)
    Blend: AUG-CC-PVTZ-JKFIT

    Orbital Energies [Eh]
    ---------------------

    Doubly Occupied:

       1A    -91.987819     2A    -11.265968     3A    -11.265749
       4A    -11.261818     5A    -11.243249     6A     -8.988127
       7A     -6.669111     8A     -6.668616     9A     -6.667894
      10A     -1.171503    11A     -0.985589    12A     -0.977787
      13A     -0.767209    14A     -0.741038    15A     -0.679394
      16A     -0.568305    17A     -0.547250    18A     -0.524682
      19A     -0.516458    20A     -0.472782    21A     -0.348529
      22A     -0.327359

  @DF-RHF Final Energy:  -551.35741420752288

   => Energetics <=

    Nuclear Repulsion Energy =            201.6127152244923479
    One-Electron Energy =               -1156.6477841940643430
    Two-Electron Energy =                 403.6776547620490305
    Total Energy =                       -551.3574142075228792
  Basis Set: (AUG-CC-PVTZ AUX)
    Blend: AUG-CC-PVTZ-RI
    Molecular point group: c1

    Geometry (in Angstrom), charge = 0, multiplicity = 1:

       Center              X                  Y                   Z               Mass
    ------------   -----------------  -----------------  -----------------  -----------------
         S            1.149562298085    -0.001356300490    -0.000047320950    31.972071174400
         C           -1.315961701915     0.708658699510     0.000077679050    12.000000000000
         C           -1.315962701915    -0.711371300490     0.000029679050    12.000000000000
         C           -0.043878701915     1.233927699510     0.000022679050    12.000000000000
         C           -0.043879701915    -1.236640300490    -0.000018320950    12.000000000000
         H           -2.375923901915     1.434946899510     0.000143979050     1.007825032230
         H           -2.210939701915    -1.324610300490     0.000045679050     1.007825032230
         H            0.250570298085     2.275455699510     0.000028679050     1.007825032230
         H            0.250570298085    -2.278168300490    -0.000047320950     1.007825032230

  Basis Set: AUG-CC-PVTZ
    Blend: AUG-CC-PVTZ
  Basis Set: (AUG-CC-PVTZ AUX)
    Blend: AUG-CC-PVTZ-JKFIT
	 Reference Energy          =    -551.3574142075228792 [Eh]
	 Singles Energy            =      -0.0000000000000000 [Eh]
	 Same-Spin Energy          =      -0.2319236723046686 [Eh]
	 Opposite-Spin Energy      =      -0.7115899760669840 [Eh]
	 Correlation Energy        =      -0.9435136483716526 [Eh]
	 Total Energy              =    -552.3009278558945425 [Eh]

	 ================> DF-SCS-MP2 Energies <==================
	-----------------------------------------------------------
	 SCS Same-Spin Scale       =       0.3333333333333333 [-]
	 SCS Opposite-Spin Scale   =       1.2000000000000000 [-]
	 SCS Same-Spin Energy      =      -0.0773078907682229 [Eh]
	 SCS Opposite-Spin Energy  =      -0.8539079712803809 [Eh]
	 SCS Correlation Energy    =      -0.9312158620486037 [Eh]
	 SCS Total Energy          =    -552.2886300695714681 [Eh]
	-----------------------------------------------------------

  Dipole Moment: [D]
     X:    -0.3763      Y:    -0.0497      Z:     0.0000     Total:     0.3796

*** Psi4 exiting successfully. Buy a developer a beer!
