                               Psi4 1.3.2 release

  ==> Input File <==

--------------------------------------------------------------------------
#psi4
#
memory 32 gb

molecule  {
0 1
  S        1.1915130     0.0000000    -0.0000490
  C       -1.2740110     0.7100150     0.0000760
  C       -1.2740120    -0.7100150     0.0000280
  C       -0.0019280     1.2352840     0.0000210
  C       -0.0019290    -1.2352840    -0.0000200
  H       -2.0040028     1.2102068     0.0001217
  H       -2.1689890    -1.3232540     0.0000440
  H        0.2925210     2.2768120     0.0000270
  H        0.2925210    -2.2768120    -0.0000490
units angstrom
no_reorient  #important for SAPT in psi4, default
symmetry c1  #important for SAPT in psi4, default
}

set PROPERTIES_ORIGIN ["COM"]
properties('MP2/aug-cc-pvtz', properties = ['dipole'])
--------------------------------------------------------------------------

    Molecular point group: c1
  Charge       = 0
  Multiplicity = 1
  Basis Set: AUG-CC-PVTZ
    Blend: AUG-CC-PVTZ
  Basis Set: (AUG-CC-PVTZ AUX)
    Blend: AUG-CC-PVTZ-JKFIT

    Orbital Energies [Eh]
    ---------------------

    Doubly Occupied:

       1A    -91.985397     2A    -11.263552     3A    -11.263080
       4A    -11.239444     5A    -11.217449     6A     -8.985762
       7A     -6.666754     8A     -6.666262     9A     -6.665569
      10A     -1.171171    11A     -0.998649    12A     -0.981783
      13A     -0.782196    14A     -0.763723    15A     -0.710007
      16A     -0.584629    17A     -0.555157    18A     -0.532076
      19A     -0.522159    20A     -0.476741    21A     -0.346621
      22A     -0.325403

  @DF-RHF Final Energy:  -551.34430299420956

   => Energetics <=

    Nuclear Repulsion Energy =            203.5856734487681763
    One-Electron Energy =               -1160.4527846245525780
    Two-Electron Energy =                 405.5228081815749306
    Total Energy =                       -551.3443029942095563
  Basis Set: (AUG-CC-PVTZ AUX)
    Blend: AUG-CC-PVTZ-RI
    Molecular point group: c1

    Geometry (in Angstrom), charge = 0, multiplicity = 1:

       Center              X                  Y                   Z               Mass
    ------------   -----------------  -----------------  -----------------  -----------------
         S            1.145603499482     0.001356276495    -0.000047073803    31.972071174400
         C           -1.319920500518     0.711371276495     0.000077926197    12.000000000000
         C           -1.319921500518    -0.708658723505     0.000029926197    12.000000000000
         C           -0.047837500518     1.236640276495     0.000022926197    12.000000000000
         C           -0.047838500518    -1.233927723505    -0.000018073803    12.000000000000
         H           -2.049912300518     1.211563076495     0.000123626197     1.007825032230
         H           -2.214898500518    -1.321897723505     0.000045926197     1.007825032230
         H            0.246611499482     2.278168276495     0.000028926197     1.007825032230
         H            0.246611499482    -2.275455723505    -0.000047073803     1.007825032230

  Basis Set: AUG-CC-PVTZ
    Blend: AUG-CC-PVTZ
  Basis Set: (AUG-CC-PVTZ AUX)
    Blend: AUG-CC-PVTZ-JKFIT
	 Reference Energy          =    -551.3443029942095563 [Eh]
	 Singles Energy            =      -0.0000000000000000 [Eh]
	 Same-Spin Energy          =      -0.2313578776107142 [Eh]
	 Opposite-Spin Energy      =      -0.7094730872720867 [Eh]
	 Correlation Energy        =      -0.9408309648828008 [Eh]
	 Total Energy              =    -552.2851339590923772 [Eh]

	 ================> DF-SCS-MP2 Energies <==================
	-----------------------------------------------------------
	 SCS Same-Spin Scale       =       0.3333333333333333 [-]
	 SCS Opposite-Spin Scale   =       1.2000000000000000 [-]
	 SCS Same-Spin Energy      =      -0.0771192925369047 [Eh]
	 SCS Opposite-Spin Energy  =      -0.8513677047265040 [Eh]
	 SCS Correlation Energy    =      -0.9284869972634088 [Eh]
	 SCS Total Energy          =    -552.2727899914730187 [Eh]
	-----------------------------------------------------------

  Dipole Moment: [D]
     X:    -0.4513      Y:     0.0172      Z:     0.0000     Total:     0.4517

*** Psi4 exiting successfully. Buy a developer a beer!
