                               Psi4 1.3.2 release

  ==> Input File <==

--------------------------------------------------------------------------
#psi4
#
memory 32 gb

molecule  {
0 1
  S        1.1915130     0.0000000    -0.0000490
  C       -1.2740110     0.7100150     0.0000760
  C       -1.3730683    -0.7065558     0.0000320
  C       -0.0019280     1.2352840     0.0000210
  C       -0.0019290    -1.2352840    -0.0000200
  H       -2.1689880     1.3232550     0.0001320
  H       -2.1689890    -1.3232540     0.0000440
  H        0.2925210     2.2768120     0.0000270
  H        0.2925210    -2.2768120    -0.0000490
units angstrom
no_reorient  #important for SAPT in psi4, default
symmetry c1  #important for SAPT in psi4, default
}

set PROPERTIES_ORIGIN ["COM"]
properties('MP2/aug-cc-pvtz', properties = ['dipole'])
--------------------------------------------------------------------------

    Molecular point group: c1
  Charge       = 0
  Multiplicity = 1
  Basis Set: AUG-CC-PVTZ
    Blend: AUG-CC-PVTZ
  Basis Set: (AUG-CC-PVTZ AUX)
    Blend: AUG-CC-PVTZ-JKFIT

    Orbital Energies [Eh]
    ---------------------

    Doubly Occupied:

       1A    -91.992445     2A    -11.275952     3A    -11.262724
       4A    -11.245285     5A    -11.243167     6A     -8.992145
       7A     -6.673108     8A     -6.672590     9A     -6.672003
      10A     -1.160957    11A     -0.991459    12A     -0.970530
      13A     -0.769124    14A     -0.757692    15A     -0.696038
      16A     -0.583266    17A     -0.548238    18A     -0.522692
      19A     -0.517352    20A     -0.480368    21A     -0.349126
      22A     -0.314856

  @DF-RHF Final Energy:  -551.36269146607083

   => Energetics <=

    Nuclear Repulsion Energy =            200.9046420046922208
    One-Electron Energy =               -1155.1524322374330040
    Two-Electron Energy =                 402.8850987666698984
    Total Energy =                       -551.3626914660708280
  Basis Set: (AUG-CC-PVTZ AUX)
    Blend: AUG-CC-PVTZ-RI
    Molecular point group: c1

    Geometry (in Angstrom), charge = 0, multiplicity = 1:

       Center              X                  Y                   Z               Mass
    ------------   -----------------  -----------------  -----------------  -----------------
         S            1.161733230866    -0.000494163593    -0.000047768782    31.972071174400
         C           -1.303790769134     0.709520836407     0.000077231218    12.000000000000
         C           -1.402848069134    -0.707049963593     0.000033231218    12.000000000000
         C           -0.031707769134     1.234789836407     0.000022231218    12.000000000000
         C           -0.031708769134    -1.235778163593    -0.000018768782    12.000000000000
         H           -2.198767769134     1.322760836407     0.000133231218     1.007825032230
         H           -2.198768769134    -1.323748163593     0.000045231218     1.007825032230
         H            0.262741230866     2.276317836407     0.000028231218     1.007825032230
         H            0.262741230866    -2.277306163593    -0.000047768782     1.007825032230

  Basis Set: AUG-CC-PVTZ
    Blend: AUG-CC-PVTZ
  Basis Set: (AUG-CC-PVTZ AUX)
    Blend: AUG-CC-PVTZ-JKFIT
	 Reference Energy          =    -551.3626914660708280 [Eh]
	 Singles Energy            =      -0.0000000000000000 [Eh]
	 Same-Spin Energy          =      -0.2330996379338793 [Eh]
	 Opposite-Spin Energy      =      -0.7126123644278284 [Eh]
	 Correlation Energy        =      -0.9457120023617077 [Eh]
	 Total Energy              =    -552.3084034684325161 [Eh]

	 ================> DF-SCS-MP2 Energies <==================
	-----------------------------------------------------------
	 SCS Same-Spin Scale       =       0.3333333333333333 [-]
	 SCS Opposite-Spin Scale   =       1.2000000000000000 [-]
	 SCS Same-Spin Energy      =      -0.0776998793112931 [Eh]
	 SCS Opposite-Spin Energy  =      -0.8551348373133940 [Eh]
	 SCS Correlation Energy    =      -0.9328347166246871 [Eh]
	 SCS Total Energy          =    -552.2955261826955393 [Eh]
	-----------------------------------------------------------

  Dipole Moment: [D]
     X:    -0.3478      Y:     0.0295      Z:     0.0000     Total:     0.3491

*** Psi4 exiting successfully. Buy a developer a beer!
