                               Psi4 1.3.2 release

  ==> Input File <==

--------------------------------------------------------------------------
#psi4
#
memory 32 gb

molecule  {
0 1
  S        1.1915130     0.0000000    -0.0000490
  C       -1.2740110     0.7100150     0.0000760
  C       -1.2740120    -0.7100150     0.0000280
  C       -0.0019280     1.2352840     0.0000210
  C       -0.0019290    -1.2352840    -0.0000200
  H       -2.1689880     1.3232550     0.0001320
  H       -2.1689890    -1.3232540     0.0000440
  H        0.2653164     2.1805836     0.0000264
  H        0.2925210    -2.2768120    -0.0000490
units angstrom
no_reorient  #important for SAPT in psi4, default
symmetry c1  #important for SAPT in psi4, default
}

set PROPERTIES_ORIGIN ["COM"]
properties('MP2/aug-cc-pvtz', properties = ['dipole'])
--------------------------------------------------------------------------

    Molecular point group: c1
  Charge       = 0
  Multiplicity = 1
  Basis Set: AUG-CC-PVTZ
    Blend: AUG-CC-PVTZ
  Basis Set: (AUG-CC-PVTZ AUX)
    Blend: AUG-CC-PVTZ-JKFIT

    Orbital Energies [Eh]
    ---------------------

    Doubly Occupied:

       1A    -91.985658     2A    -11.264113     3A    -11.252982
       4A    -11.241046     5A    -11.239997     6A     -8.986049
       7A     -6.667049     8A     -6.666553     9A     -6.665856
      10A     -1.170924    11A     -0.987874    12A     -0.985001
      13A     -0.780661    14A     -0.753419    15A     -0.699662
      16A     -0.580574    17A     -0.555233    18A     -0.530114
      19A     -0.522747    20A     -0.475389    21A     -0.346844
      22A     -0.326032

  @DF-RHF Final Energy:  -551.37362374479324

   => Energetics <=

    Nuclear Repulsion Energy =            203.0081127172173581
    One-Electron Energy =               -1159.3959199320934204
    Two-Electron Energy =                 405.0141834700827417
    Total Energy =                       -551.3736237447933490
  Basis Set: (AUG-CC-PVTZ AUX)
    Blend: AUG-CC-PVTZ-RI
    Molecular point group: c1

    Geometry (in Angstrom), charge = 0, multiplicity = 1:

       Center              X                  Y                   Z               Mass
    ------------   -----------------  -----------------  -----------------  -----------------
         S            1.147909284218     0.001154482029    -0.000047190178    31.972071174400
         C           -1.317614715782     0.711169482029     0.000077809822    12.000000000000
         C           -1.317615715782    -0.708860517971     0.000029809822    12.000000000000
         C           -0.045531715782     1.236438482029     0.000022809822    12.000000000000
         C           -0.045532715782    -1.234129517971    -0.000018190178    12.000000000000
         H           -2.212591715782     1.324409482029     0.000133809822     1.007825032230
         H           -2.212592715782    -1.322099517971     0.000045809822     1.007825032230
         H            0.221712684218     2.181738082029     0.000028209822     1.007825032230
         H            0.248917284218    -2.275657517971    -0.000047190178     1.007825032230

  Basis Set: AUG-CC-PVTZ
    Blend: AUG-CC-PVTZ
  Basis Set: (AUG-CC-PVTZ AUX)
    Blend: AUG-CC-PVTZ-JKFIT
	 Reference Energy          =    -551.3736237447932353 [Eh]
	 Singles Energy            =      -0.0000000000000000 [Eh]
	 Same-Spin Energy          =      -0.2313397257518906 [Eh]
	 Opposite-Spin Energy      =      -0.7093200851833881 [Eh]
	 Correlation Energy        =      -0.9406598109352787 [Eh]
	 Total Energy              =    -552.3142835557284798 [Eh]

	 ================> DF-SCS-MP2 Energies <==================
	-----------------------------------------------------------
	 SCS Same-Spin Scale       =       0.3333333333333333 [-]
	 SCS Opposite-Spin Scale   =       1.2000000000000000 [-]
	 SCS Same-Spin Energy      =      -0.0771132419172969 [Eh]
	 SCS Opposite-Spin Energy  =      -0.8511841022200657 [Eh]
	 SCS Correlation Energy    =      -0.9282973441373625 [Eh]
	 SCS Total Energy          =    -552.3019210889306123 [Eh]
	-----------------------------------------------------------

  Dipole Moment: [D]
     X:    -0.4447      Y:    -0.0103      Z:     0.0000     Total:     0.4448

*** Psi4 exiting successfully. Buy a developer a beer!
