                               Psi4 1.4a3.dev225

  ==> Input File <==

--------------------------------------------------------------------------
#psi4
#
memory 32 gb

molecule  {
0 1
  S        1.1915130     0.0000000    -0.0000490
  C       -1.2740110     0.7100150     0.0000760
  C       -1.2740120    -0.7300150     0.0000273
  C       -0.0019280     1.2352840     0.0000210
  C       -0.0019290    -1.2352840    -0.0000200
  H       -2.1689880     1.3232550     0.0001320
  H       -2.1689890    -1.3232540     0.0000440
  H        0.2925210     2.2768120     0.0000270
  H        0.2925210    -2.2768120    -0.0000490
units angstrom
no_reorient  #important for SAPT in psi4, default
symmetry c1  #important for SAPT in psi4, default
}

set PROPERTIES_ORIGIN ["COM"]
properties('MP2/aug-cc-pvtz', properties = ['dipole'])
--------------------------------------------------------------------------

    Molecular point group: c1
  Charge       = 0
  Multiplicity = 1
  Basis Set: AUG-CC-PVTZ
    Blend: AUG-CC-PVTZ
  Basis Set: (AUG-CC-PVTZ AUX)
    Blend: AUG-CC-PVTZ-JKFIT

    Orbital Energies [Eh]
    ---------------------

    Doubly Occupied:

       1A    -91.985504     2A    -11.264205     3A    -11.263693
       4A    -11.242627     5A    -11.240768     6A     -8.985943
       7A     -6.666954     8A     -6.666435     9A     -6.665711
      10A     -1.168950    11A     -0.984885    12A     -0.981998
      13A     -0.765219    14A     -0.752105    15A     -0.696765
      16A     -0.576609    17A     -0.547335    18A     -0.530003
      19A     -0.522092    20A     -0.476040    21A     -0.345465
      22A     -0.328129

  @DF-RHF Final Energy:  -551.38003803333891

   => Energetics <=

    Nuclear Repulsion Energy =            202.2832591454555882
    One-Electron Energy =               -1158.0117211684344056
    Two-Electron Energy =                 404.3484239896399686
    Total Energy =                       -551.3800380333389057
  Basis Set: (AUG-CC-PVTZ AUX)
    Blend: AUG-CC-PVTZ-RI
    Molecular point group: c1

    Geometry (in Angstrom), charge = 0, multiplicity = 1:

       Center              X                  Y                   Z               Mass
    ------------   -----------------  -----------------  -----------------  -----------------
         S            1.147582898783     0.002857016194    -0.000047097381    31.972071174400
         C           -1.317941101217     0.712872016194     0.000077902619    12.000000000000
         C           -1.317942101217    -0.727157983806     0.000029202619    12.000000000000
         C           -0.045858101217     1.238141016194     0.000022902619    12.000000000000
         C           -0.045859101217    -1.232426983806    -0.000018097381    12.000000000000
         H           -2.212918101217     1.326112016194     0.000133902619     1.007825032230
         H           -2.212919101217    -1.320396983806     0.000045902619     1.007825032230
         H            0.248590898783     2.279669016194     0.000028902619     1.007825032230
         H            0.248590898783    -2.273954983806    -0.000047097381     1.007825032230

  Basis Set: AUG-CC-PVTZ
    Blend: AUG-CC-PVTZ
  Basis Set: (AUG-CC-PVTZ AUX)
    Blend: AUG-CC-PVTZ-JKFIT
	 Reference Energy          =    -551.3800380333389057 [Eh]
	 Singles Energy            =      -0.0000000000000000 [Eh]
	 Same-Spin Energy          =      -0.2310155604968047 [Eh]
	 Opposite-Spin Energy      =      -0.7092666309149258 [Eh]
	 Correlation Energy        =      -0.9402821914117305 [Eh]
	 Total Energy              =    -552.3203202247506169 [Eh]

	 ================> DF-SCS-MP2 Energies <==================
	-----------------------------------------------------------
	 SCS Same-Spin Scale       =       0.3333333333333333 [-]
	 SCS Opposite-Spin Scale   =       1.2000000000000000 [-]
	 SCS Same-Spin Energy      =      -0.0770051868322682 [Eh]
	 SCS Opposite-Spin Energy  =      -0.8511199570979110 [Eh]
	 SCS Correlation Energy    =      -0.9281251439301792 [Eh]
	 SCS Total Energy          =    -552.3081631772690798 [Eh]
	-----------------------------------------------------------

  Dipole Moment: [D]
     X:    -0.4492      Y:     0.0005      Z:     0.0000     Total:     0.4492

*** Psi4 exiting successfully. Buy a developer a beer!
