                               Psi4 1.3.2 release

  ==> Input File <==

--------------------------------------------------------------------------
#psi4
#
memory 32 gb

molecule  {
0 1
  S        1.1697726    -0.0206403    -0.0000482
  C       -1.2740110     0.7100150     0.0000760
  C       -1.2740120    -0.7100150     0.0000280
  C       -0.0019280     1.2352840     0.0000210
  C       -0.0019290    -1.2352840    -0.0000200
  H       -2.1689880     1.3232550     0.0001320
  H       -2.1689890    -1.3232540     0.0000440
  H        0.2925210     2.2768120     0.0000270
  H        0.2925210    -2.2768120    -0.0000490
units angstrom
no_reorient  #important for SAPT in psi4, default
symmetry c1  #important for SAPT in psi4, default
}

set PROPERTIES_ORIGIN ["COM"]
properties('MP2/aug-cc-pvtz', properties = ['dipole'])
--------------------------------------------------------------------------

    Molecular point group: c1
  Charge       = 0
  Multiplicity = 1
  Basis Set: AUG-CC-PVTZ
    Blend: AUG-CC-PVTZ
  Basis Set: (AUG-CC-PVTZ AUX)
    Blend: AUG-CC-PVTZ-JKFIT

    Orbital Energies [Eh]
    ---------------------

    Doubly Occupied:

       1A    -91.985224     2A    -11.263219     3A    -11.261668
       4A    -11.240858     5A    -11.239223     6A     -8.986252
       7A     -6.667271     8A     -6.666796     9A     -6.666048
      10A     -1.174592    11A     -0.988660    12A     -0.981304
      13A     -0.765421    14A     -0.751997    15A     -0.696592
      16A     -0.574905    17A     -0.551864    18A     -0.531532
      19A     -0.525741    20A     -0.474426    21A     -0.346328
      22A     -0.326572

  @DF-RHF Final Energy:  -551.37952682928517

   => Energetics <=

    Nuclear Repulsion Energy =            203.3704597079954226
    One-Electron Energy =               -1160.1669855995880880
    Two-Electron Energy =                 405.4169990623075250
    Total Energy =                       -551.3795268292851688
  Basis Set: (AUG-CC-PVTZ AUX)
    Blend: AUG-CC-PVTZ-RI
    Molecular point group: c1

    Geometry (in Angstrom), charge = 0, multiplicity = 1:

       Center              X                  Y                   Z               Mass
    ------------   -----------------  -----------------  -----------------  -----------------
         S            1.134116995454    -0.012784518469    -0.000046701860    31.972071174400
         C           -1.309666604546     0.717870781531     0.000077498140    12.000000000000
         C           -1.309667604546    -0.702159218469     0.000029498140    12.000000000000
         C           -0.037583604546     1.243139781531     0.000022498140    12.000000000000
         C           -0.037584604546    -1.227428218469    -0.000018501860    12.000000000000
         H           -2.204643604546     1.331110781531     0.000133498140     1.007825032230
         H           -2.204644604546    -1.315398218469     0.000045498140     1.007825032230
         H            0.256865395454     2.284667781531     0.000028498140     1.007825032230
         H            0.256865395454    -2.268956218469    -0.000047501860     1.007825032230

  Basis Set: AUG-CC-PVTZ
    Blend: AUG-CC-PVTZ
  Basis Set: (AUG-CC-PVTZ AUX)
    Blend: AUG-CC-PVTZ-JKFIT
	 Reference Energy          =    -551.3795268292851688 [Eh]
	 Singles Energy            =      -0.0000000000000000 [Eh]
	 Same-Spin Energy          =      -0.2318168412191877 [Eh]
	 Opposite-Spin Energy      =      -0.7094238748203306 [Eh]
	 Correlation Energy        =      -0.9412407160395184 [Eh]
	 Total Energy              =    -552.3207675453246566 [Eh]

	 ================> DF-SCS-MP2 Energies <==================
	-----------------------------------------------------------
	 SCS Same-Spin Scale       =       0.3333333333333333 [-]
	 SCS Opposite-Spin Scale   =       1.2000000000000000 [-]
	 SCS Same-Spin Energy      =      -0.0772722804063959 [Eh]
	 SCS Opposite-Spin Energy  =      -0.8513086497843968 [Eh]
	 SCS Correlation Energy    =      -0.9285809301907927 [Eh]
	 SCS Total Energy          =    -552.3081077594760018 [Eh]
	-----------------------------------------------------------

  Dipole Moment: [D]
     X:    -0.4179      Y:    -0.0044      Z:     0.0000     Total:     0.4179

*** Psi4 exiting successfully. Buy a developer a beer!
