                               Psi4 1.3.2 release

  ==> Input File <==

--------------------------------------------------------------------------
#psi4
#
memory 32 gb

molecule  {
0 1
  S        1.1024368    -0.0802411    -0.0000468
  C       -1.2740110     0.7100150     0.0000760
  C       -1.2740120    -0.7100150     0.0000280
  C       -0.0019280     1.2352840     0.0000210
  C       -0.0019290    -1.2352840    -0.0000200
  H       -2.1689880     1.3232550     0.0001320
  H       -2.1689890    -1.3232540     0.0000440
  H        0.2925210     2.2768120     0.0000270
  H        0.2925210    -2.2768120    -0.0000490
units angstrom
no_reorient  #important for SAPT in psi4, default
symmetry c1  #important for SAPT in psi4, default
}

set PROPERTIES_ORIGIN ["COM"]
properties('MP2/aug-cc-pvtz', properties = ['dipole'])
--------------------------------------------------------------------------

    Molecular point group: c1
  Charge       = 0
  Multiplicity = 1
  Basis Set: AUG-CC-PVTZ
    Blend: AUG-CC-PVTZ
  Basis Set: (AUG-CC-PVTZ AUX)
    Blend: AUG-CC-PVTZ-JKFIT

    Orbital Energies [Eh]
    ---------------------

    Doubly Occupied:

       1A    -91.981788     2A    -11.260279     3A    -11.254050
       4A    -11.240193     5A    -11.235061     6A     -8.985379
       7A     -6.666679     8A     -6.665852     9A     -6.665107
      10A     -1.189656    11A     -1.001296    12A     -0.977057
      13A     -0.763195    14A     -0.756187    15A     -0.697060
      16A     -0.580718    17A     -0.551592    18A     -0.538847
      19A     -0.535389    20A     -0.467995    21A     -0.347867
      22A     -0.324868

  @DF-RHF Final Energy:  -551.37075718992423

   => Energetics <=

    Nuclear Repulsion Energy =            206.2393641848321408
    One-Electron Energy =               -1165.8480104577179191
    Two-Electron Energy =                 408.2378890829616012
    Total Energy =                       -551.3707571899242339
  Basis Set: (AUG-CC-PVTZ AUX)
    Blend: AUG-CC-PVTZ-RI
    Molecular point group: c1

    Geometry (in Angstrom), charge = 0, multiplicity = 1:

       Center              X                  Y                   Z               Mass
    ------------   -----------------  -----------------  -----------------  -----------------
         S            1.092409511994    -0.049700978661    -0.000045834707    31.972071174400
         C           -1.284038288006     0.740555121339     0.000076965293    12.000000000000
         C           -1.284039288006    -0.679474878661     0.000028965293    12.000000000000
         C           -0.011955288006     1.265824121339     0.000021965293    12.000000000000
         C           -0.011956288006    -1.204743878661    -0.000019034707    12.000000000000
         H           -2.179015288006     1.353795121339     0.000132965293     1.007825032230
         H           -2.179016288006    -1.292713878661     0.000044965293     1.007825032230
         H            0.282493711994     2.307352121339     0.000027965293     1.007825032230
         H            0.282493711994    -2.246271878661    -0.000048034707     1.007825032230

  Basis Set: AUG-CC-PVTZ
    Blend: AUG-CC-PVTZ
  Basis Set: (AUG-CC-PVTZ AUX)
    Blend: AUG-CC-PVTZ-JKFIT
	 Reference Energy          =    -551.3707571899242339 [Eh]
	 Singles Energy            =      -0.0000000000000000 [Eh]
	 Same-Spin Energy          =      -0.2329555237703674 [Eh]
	 Opposite-Spin Energy      =      -0.7090422722206560 [Eh]
	 Correlation Energy        =      -0.9419977959910234 [Eh]
	 Total Energy              =    -552.3127549859152623 [Eh]

	 ================> DF-SCS-MP2 Energies <==================
	-----------------------------------------------------------
	 SCS Same-Spin Scale       =       0.3333333333333333 [-]
	 SCS Opposite-Spin Scale   =       1.2000000000000000 [-]
	 SCS Same-Spin Energy      =      -0.0776518412567891 [Eh]
	 SCS Opposite-Spin Energy  =      -0.8508507266647871 [Eh]
	 SCS Correlation Energy    =      -0.9285025679215763 [Eh]
	 SCS Total Energy          =    -552.2992597578457890 [Eh]
	-----------------------------------------------------------

  Dipole Moment: [D]
     X:    -0.3672      Y:    -0.0353      Z:     0.0000     Total:     0.3689

*** Psi4 exiting successfully. Buy a developer a beer!
