                               Psi4 1.3.2 release

  ==> Input File <==

--------------------------------------------------------------------------
#psi4
#
memory 32 gb

molecule  {
0 1
  S        1.1915130     0.0000000    -0.0000490
  C       -1.3219480     0.8458614     0.0000812
  C       -1.2740120    -0.7100150     0.0000280
  C       -0.0019280     1.2352840     0.0000210
  C       -0.0019290    -1.2352840    -0.0000200
  H       -2.1689880     1.3232550     0.0001320
  H       -2.1689890    -1.3232540     0.0000440
  H        0.2925210     2.2768120     0.0000270
  H        0.2925210    -2.2768120    -0.0000490
units angstrom
no_reorient  #important for SAPT in psi4, default
symmetry c1  #important for SAPT in psi4, default
}

set PROPERTIES_ORIGIN ["COM"]
properties('MP2/aug-cc-pvtz', properties = ['dipole'])
--------------------------------------------------------------------------

    Molecular point group: c1
  Charge       = 0
  Multiplicity = 1
  Basis Set: AUG-CC-PVTZ
    Blend: AUG-CC-PVTZ
  Basis Set: (AUG-CC-PVTZ AUX)
    Blend: AUG-CC-PVTZ-JKFIT

    Orbital Energies [Eh]
    ---------------------

    Doubly Occupied:

       1A    -91.985649     2A    -11.269214     3A    -11.264482
       4A    -11.251607     5A    -11.244376     6A     -8.986210
       7A     -6.667319     8A     -6.666642     9A     -6.665885
      10A     -1.157254    11A     -0.990600    12A     -0.972427
      13A     -0.774594    14A     -0.755914    15A     -0.698390
      16A     -0.594028    17A     -0.539576    18A     -0.515087
      19A     -0.514693    20A     -0.477650    21A     -0.339401
      22A     -0.332989

  @DF-RHF Final Energy:  -551.35659197691848

   => Energetics <=

    Nuclear Repulsion Energy =            200.4589206039700855
    One-Electron Energy =               -1154.3030494743468353
    Two-Electron Energy =                 402.4875368934582411
    Total Energy =                       -551.3565919769184802
  Basis Set: (AUG-CC-PVTZ AUX)
    Blend: AUG-CC-PVTZ-RI
    Molecular point group: c1

    Geometry (in Angstrom), charge = 0, multiplicity = 1:

       Center              X                  Y                   Z               Mass
    ------------   -----------------  -----------------  -----------------  -----------------
         S            1.154430766804    -0.019405861724    -0.000047940204    31.972071174400
         C           -1.359030233196     0.826455538276     0.000082259796    12.000000000000
         C           -1.311094233196    -0.729420861724     0.000029059796    12.000000000000
         C           -0.039010233196     1.215878138276     0.000022059796    12.000000000000
         C           -0.039011233196    -1.254689861724    -0.000018940204    12.000000000000
         H           -2.206070233196     1.303849138276     0.000133059796     1.007825032230
         H           -2.206071233196    -1.342659861724     0.000045059796     1.007825032230
         H            0.255438766804     2.257406138276     0.000028059796     1.007825032230
         H            0.255438766804    -2.296217861724    -0.000047940204     1.007825032230

  Basis Set: AUG-CC-PVTZ
    Blend: AUG-CC-PVTZ
  Basis Set: (AUG-CC-PVTZ AUX)
    Blend: AUG-CC-PVTZ-JKFIT
	 Reference Energy          =    -551.3565919769184802 [Eh]
	 Singles Energy            =      -0.0000000000000000 [Eh]
	 Same-Spin Energy          =      -0.2295545527638131 [Eh]
	 Opposite-Spin Energy      =      -0.7097542375843316 [Eh]
	 Correlation Energy        =      -0.9393087903481447 [Eh]
	 Total Energy              =    -552.2959007672666303 [Eh]

	 ================> DF-SCS-MP2 Energies <==================
	-----------------------------------------------------------
	 SCS Same-Spin Scale       =       0.3333333333333333 [-]
	 SCS Opposite-Spin Scale   =       1.2000000000000000 [-]
	 SCS Same-Spin Energy      =      -0.0765181842546044 [Eh]
	 SCS Opposite-Spin Energy  =      -0.8517050851011979 [Eh]
	 SCS Correlation Energy    =      -0.9282232693558022 [Eh]
	 SCS Total Energy          =    -552.2848152462743201 [Eh]
	-----------------------------------------------------------

  Dipole Moment: [D]
     X:    -0.4413      Y:    -0.0328      Z:     0.0000     Total:     0.4425

*** Psi4 exiting successfully. Buy a developer a beer!
