                               Psi4 1.3.2 release

  ==> Input File <==

--------------------------------------------------------------------------
#psi4
#
memory 32 gb

molecule  {
0 1
  S        1.1915130     0.0000000    -0.0000490
  C       -1.2740110     0.7100150     0.0000760
  C       -1.2740120    -0.7100150     0.0000280
  C       -0.0019280     1.2352840     0.0000210
  C       -0.0019290    -1.2352840    -0.0000200
  H       -2.1689880     1.3232550     0.0001320
  H       -2.1689890    -1.3232540     0.0000440
  H        0.2925210     2.2768120     0.0000270
  H        0.2925210    -2.2768120    -0.0000490
units angstrom
no_reorient  #important for SAPT in psi4, default
symmetry c1  #important for SAPT in psi4, default
}

set PROPERTIES_ORIGIN ["COM"]
properties('MP2/aug-cc-pvtz', properties = ['dipole'])
--------------------------------------------------------------------------

    Molecular point group: c1
  Charge       = 0
  Multiplicity = 1
  Basis Set: AUG-CC-PVTZ
    Blend: AUG-CC-PVTZ
  Basis Set: (AUG-CC-PVTZ AUX)
    Blend: AUG-CC-PVTZ-JKFIT

    Orbital Energies [Eh]
    ---------------------

    Doubly Occupied:

       1A    -91.986181     2A    -11.264131     3A    -11.264101
       4A    -11.241360     5A    -11.240313     6A     -8.986530
       7A     -6.667520     8A     -6.667027     9A     -6.666320
      10A     -1.170437    11A     -0.986217    12A     -0.981187
      13A     -0.766340    14A     -0.750574    15A     -0.696386
      16A     -0.573825    17A     -0.552268    18A     -0.528157
      19A     -0.523001    20A     -0.475784    21A     -0.347107
      22A     -0.326002

  @DF-RHF Final Energy:  -551.37978075546766

   => Energetics <=

    Nuclear Repulsion Energy =            202.4724807395181188
    One-Electron Energy =               -1158.3829932807275327
    Two-Electron Energy =                 404.5307317857416933
    Total Energy =                       -551.3797807554676638
  Basis Set: (AUG-CC-PVTZ AUX)
    Blend: AUG-CC-PVTZ-RI
    Molecular point group: c1

    Geometry (in Angstrom), charge = 0, multiplicity = 1:

       Center              X                  Y                   Z               Mass
    ------------   -----------------  -----------------  -----------------  -----------------
         S            1.147582898783    -0.000000011997    -0.000047197377    31.972071174400
         C           -1.317941101217     0.710014988003     0.000077802623    12.000000000000
         C           -1.317942101217    -0.710015011997     0.000029802623    12.000000000000
         C           -0.045858101217     1.235283988003     0.000022802623    12.000000000000
         C           -0.045859101217    -1.235284011997    -0.000018197377    12.000000000000
         H           -2.212918101217     1.323254988003     0.000133802623     1.007825032230
         H           -2.212919101217    -1.323254011997     0.000045802623     1.007825032230
         H            0.248590898783     2.276811988003     0.000028802623     1.007825032230
         H            0.248590898783    -2.276812011997    -0.000047197377     1.007825032230

  Basis Set: AUG-CC-PVTZ
    Blend: AUG-CC-PVTZ
  Basis Set: (AUG-CC-PVTZ AUX)
    Blend: AUG-CC-PVTZ-JKFIT
	 Reference Energy          =    -551.3797807554676638 [Eh]
	 Singles Energy            =      -0.0000000000000000 [Eh]
	 Same-Spin Energy          =      -0.2314930089888457 [Eh]
	 Opposite-Spin Energy      =      -0.7096514668515166 [Eh]
	 Correlation Energy        =      -0.9411444758403622 [Eh]
	 Total Energy              =    -552.3209252313080242 [Eh]

	 ================> DF-SCS-MP2 Energies <==================
	-----------------------------------------------------------
	 SCS Same-Spin Scale       =       0.3333333333333333 [-]
	 SCS Opposite-Spin Scale   =       1.2000000000000000 [-]
	 SCS Same-Spin Energy      =      -0.0771643363296152 [Eh]
	 SCS Opposite-Spin Energy  =      -0.8515817602218199 [Eh]
	 SCS Correlation Energy    =      -0.9287460965514351 [Eh]
	 SCS Total Energy          =    -552.3085268520190994 [Eh]
	-----------------------------------------------------------

  Dipole Moment: [D]
     X:    -0.4385      Y:     0.0000      Z:     0.0000     Total:     0.4385

*** Psi4 exiting successfully. Buy a developer a beer!
