                               Psi4 1.4a3.dev225

  ==> Input File <==

--------------------------------------------------------------------------
#psi4
#
memory 32 gb

molecule  {
0 1
  S        1.1915130     0.0000000    -0.0000490
  C       -1.2740110     0.7100150     0.0000760
  C       -1.2740120    -0.7100150     0.0000280
  C       -0.0019280     1.2352840     0.0000210
  C       -0.0019290    -1.2352840    -0.0000200
  H       -2.2102343     1.3515170     0.0001346
  H       -2.1689890    -1.3232540     0.0000440
  H        0.2925210     2.2768120     0.0000270
  H        0.2925210    -2.2768120    -0.0000490
units angstrom
no_reorient  #important for SAPT in psi4, default
symmetry c1  #important for SAPT in psi4, default
}

set PROPERTIES_ORIGIN ["COM"]
properties('MP2/aug-cc-pvtz', properties = ['dipole'])
--------------------------------------------------------------------------

    Molecular point group: c1
  Charge       = 0
  Multiplicity = 1
  Basis Set: AUG-CC-PVTZ
    Blend: AUG-CC-PVTZ
  Basis Set: (AUG-CC-PVTZ AUX)
    Blend: AUG-CC-PVTZ-JKFIT

    Orbital Energies [Eh]
    ---------------------

    Doubly Occupied:

       1A    -91.986510     2A    -11.264476     3A    -11.264444
       4A    -11.246497     5A    -11.241302     6A     -8.986850
       7A     -6.667839     8A     -6.667346     9A     -6.666635
      10A     -1.170563    11A     -0.985369    12A     -0.980377
      13A     -0.766370    14A     -0.746916    15A     -0.691895
      16A     -0.571673    17A     -0.551021    18A     -0.526209
      19A     -0.523343    20A     -0.475362    21A     -0.347375
      22A     -0.326269

  @DF-RHF Final Energy:  -551.37732712867728

   => Energetics <=

    Nuclear Repulsion Energy =            202.2382644241939431
    One-Electron Energy =               -1157.9218975142432555
    Two-Electron Energy =                 404.3063059613720611
    Total Energy =                       -551.3773271286772797
  Basis Set: (AUG-CC-PVTZ AUX)
    Blend: AUG-CC-PVTZ-RI
    Molecular point group: c1

    Geometry (in Angstrom), charge = 0, multiplicity = 1:

       Center              X                  Y                   Z               Mass
    ------------   -----------------  -----------------  -----------------  -----------------
         S            1.148077748609    -0.000339083521    -0.000047228570    31.972071174400
         C           -1.317446251391     0.709675916479     0.000077771430    12.000000000000
         C           -1.317447251391    -0.710354083521     0.000029771430    12.000000000000
         C           -0.045363251391     1.234944916479     0.000022771430    12.000000000000
         C           -0.045364251391    -1.235623083521    -0.000018228570    12.000000000000
         H           -2.253669551391     1.351177916479     0.000136371430     1.007825032230
         H           -2.212424251391    -1.323593083521     0.000045771430     1.007825032230
         H            0.249085748609     2.276472916479     0.000028771430     1.007825032230
         H            0.249085748609    -2.277151083521    -0.000047228570     1.007825032230

  Basis Set: AUG-CC-PVTZ
    Blend: AUG-CC-PVTZ
  Basis Set: (AUG-CC-PVTZ AUX)
    Blend: AUG-CC-PVTZ-JKFIT
	 Reference Energy          =    -551.3773271286772797 [Eh]
	 Singles Energy            =      -0.0000000000000000 [Eh]
	 Same-Spin Energy          =      -0.2315822403275921 [Eh]
	 Opposite-Spin Energy      =      -0.7099941755456343 [Eh]
	 Correlation Energy        =      -0.9415764158732264 [Eh]
	 Total Energy              =    -552.3189035445504942 [Eh]

	 ================> DF-SCS-MP2 Energies <==================
	-----------------------------------------------------------
	 SCS Same-Spin Scale       =       0.3333333333333333 [-]
	 SCS Opposite-Spin Scale   =       1.2000000000000000 [-]
	 SCS Same-Spin Energy      =      -0.0771940801091974 [Eh]
	 SCS Opposite-Spin Energy  =      -0.8519930106547611 [Eh]
	 SCS Correlation Energy    =      -0.9291870907639584 [Eh]
	 SCS Total Energy          =    -552.3065142194412829 [Eh]
	-----------------------------------------------------------

  Dipole Moment: [D]
     X:    -0.4275      Y:    -0.0094      Z:     0.0000     Total:     0.4276

*** Psi4 exiting successfully. Buy a developer a beer!
