                               Psi4 1.4a3.dev225

  ==> Input File <==

--------------------------------------------------------------------------
#psi4
#
memory 32 gb

molecule  {
0 1
  S        1.1915130     0.0000000    -0.0000490
  C       -1.2740110     0.7100150     0.0000760
  C       -1.2740120    -0.7100150     0.0000280
  C       -0.0481431     1.2162009     0.0000230
  C       -0.0019290    -1.2352840    -0.0000200
  H       -2.1689880     1.3232550     0.0001320
  H       -2.1689890    -1.3232540     0.0000440
  H        0.2925210     2.2768120     0.0000270
  H        0.2925210    -2.2768120    -0.0000490
units angstrom
no_reorient  #important for SAPT in psi4, default
symmetry c1  #important for SAPT in psi4, default
}

set PROPERTIES_ORIGIN ["COM"]
properties('MP2/aug-cc-pvtz', properties = ['dipole'])
--------------------------------------------------------------------------

    Molecular point group: c1
  Charge       = 0
  Multiplicity = 1
  Basis Set: AUG-CC-PVTZ
    Blend: AUG-CC-PVTZ
  Basis Set: (AUG-CC-PVTZ AUX)
    Blend: AUG-CC-PVTZ-JKFIT

    Orbital Energies [Eh]
    ---------------------

    Doubly Occupied:

       1A    -91.983365     2A    -11.264144     3A    -11.261872
       4A    -11.240171     5A    -11.234903     6A     -8.983738
       7A     -6.664736     8A     -6.664167     9A     -6.663457
      10A     -1.174285    11A     -0.991646    12A     -0.979129
      13A     -0.765378    14A     -0.747201    15A     -0.698093
      16A     -0.575381    17A     -0.553141    18A     -0.525165
      19A     -0.519538    20A     -0.475573    21A     -0.349818
      22A     -0.329131

  @DF-RHF Final Energy:  -551.37829924704818

   => Energetics <=

    Nuclear Repulsion Energy =            202.8411646543428333
    One-Electron Energy =               -1159.1508599926698935
    Two-Electron Energy =                 404.9313960912788843
    Total Energy =                       -551.3782992470481759
  Basis Set: (AUG-CC-PVTZ AUX)
    Blend: AUG-CC-PVTZ-RI
    Molecular point group: c1

    Geometry (in Angstrom), charge = 0, multiplicity = 1:

       Center              X                  Y                   Z               Mass
    ------------   -----------------  -----------------  -----------------  -----------------
         S            1.154184790962     0.002726035737    -0.000047483080    31.972071174400
         C           -1.311339209038     0.712741035737     0.000077516920    12.000000000000
         C           -1.311340209038    -0.707288964263     0.000029516920    12.000000000000
         C           -0.085471309038     1.218926935737     0.000024516920    12.000000000000
         C           -0.039257209038    -1.232557964263    -0.000018483080    12.000000000000
         H           -2.206316209038     1.325981035737     0.000133516920     1.007825032230
         H           -2.206317209038    -1.320527964263     0.000045516920     1.007825032230
         H            0.255192790962     2.279538035737     0.000028516920     1.007825032230
         H            0.255192790962    -2.274085964263    -0.000047483080     1.007825032230

  Basis Set: AUG-CC-PVTZ
    Blend: AUG-CC-PVTZ
  Basis Set: (AUG-CC-PVTZ AUX)
    Blend: AUG-CC-PVTZ-JKFIT
	 Reference Energy          =    -551.3782992470481759 [Eh]
	 Singles Energy            =      -0.0000000000000000 [Eh]
	 Same-Spin Energy          =      -0.2306781366899239 [Eh]
	 Opposite-Spin Energy      =      -0.7087827620533940 [Eh]
	 Correlation Energy        =      -0.9394608987433178 [Eh]
	 Total Energy              =    -552.3177601457914534 [Eh]

	 ================> DF-SCS-MP2 Energies <==================
	-----------------------------------------------------------
	 SCS Same-Spin Scale       =       0.3333333333333333 [-]
	 SCS Opposite-Spin Scale   =       1.2000000000000000 [-]
	 SCS Same-Spin Energy      =      -0.0768927122299746 [Eh]
	 SCS Opposite-Spin Energy  =      -0.8505393144640727 [Eh]
	 SCS Correlation Energy    =      -0.9274320266940473 [Eh]
	 SCS Total Energy          =    -552.3057312737422535 [Eh]
	-----------------------------------------------------------

  Dipole Moment: [D]
     X:    -0.4776      Y:     0.0349      Z:     0.0000     Total:     0.4788

*** Psi4 exiting successfully. Buy a developer a beer!
