                               Psi4 1.3.2 release

  ==> Input File <==

--------------------------------------------------------------------------
#psi4
#
memory 32 gb

molecule  {
0 1
  S        1.1915130     0.0000000    -0.0000490
  C       -1.2740110     0.7100150     0.0000760
  C       -1.2740120    -0.7100150     0.0000280
  C        0.1829323     1.3116166     0.0000130
  C       -0.0019290    -1.2352840    -0.0000200
  H       -2.1689880     1.3232550     0.0001320
  H       -2.1689890    -1.3232540     0.0000440
  H        0.2925210     2.2768120     0.0000270
  H        0.2925210    -2.2768120    -0.0000490
units angstrom
no_reorient  #important for SAPT in psi4, default
symmetry c1  #important for SAPT in psi4, default
}

set PROPERTIES_ORIGIN ["COM"]
properties('MP2/aug-cc-pvtz', properties = ['dipole'])
--------------------------------------------------------------------------

    Molecular point group: c1
  Charge       = 0
  Multiplicity = 1
  Basis Set: AUG-CC-PVTZ
    Blend: AUG-CC-PVTZ
  Basis Set: (AUG-CC-PVTZ AUX)
    Blend: AUG-CC-PVTZ-JKFIT

    Orbital Energies [Eh]
    ---------------------

    Doubly Occupied:

       1A    -91.999538     2A    -11.271622     3A    -11.264229
       4A    -11.258463     5A    -11.244766     6A     -8.999294
       7A     -6.680360     8A     -6.679918     9A     -6.679370
      10A     -1.162539    11A     -1.003546    12A     -0.958953
      13A     -0.791315    14A     -0.747651    15A     -0.687974
      16A     -0.593204    17A     -0.557350    18A     -0.526168
      19A     -0.519522    20A     -0.462187    21A     -0.354786
      22A     -0.303138

  @DF-RHF Final Energy:  -551.33184574714983

   => Energetics <=

    Nuclear Repulsion Energy =            201.1980221665357362
    One-Electron Energy =               -1155.5679489422029746
    Two-Electron Energy =                 403.0380810285172970
    Total Energy =                       -551.3318457471498277
  Basis Set: (AUG-CC-PVTZ AUX)
    Blend: AUG-CC-PVTZ-RI
    Molecular point group: c1

    Geometry (in Angstrom), charge = 0, multiplicity = 1:

       Center              X                  Y                   Z               Mass
    ------------   -----------------  -----------------  -----------------  -----------------
         S            1.121175344353    -0.010904231504    -0.000046054565    31.972071174400
         C           -1.344348655647     0.699110768496     0.000078945435    12.000000000000
         C           -1.344349655647    -0.720919231504     0.000030945435    12.000000000000
         C            0.112594644353     1.300712368496     0.000015945435    12.000000000000
         C           -0.072266655647    -1.246188231504    -0.000017054565    12.000000000000
         H           -2.239325655647     1.312350768496     0.000134945435     1.007825032230
         H           -2.239326655647    -1.334158231504     0.000046945435     1.007825032230
         H            0.222183344353     2.265907768496     0.000029945435     1.007825032230
         H            0.222183344353    -2.287716231504    -0.000046054565     1.007825032230

  Basis Set: AUG-CC-PVTZ
    Blend: AUG-CC-PVTZ
  Basis Set: (AUG-CC-PVTZ AUX)
    Blend: AUG-CC-PVTZ-JKFIT
	 Reference Energy          =    -551.3318457471498277 [Eh]
	 Singles Energy            =      -0.0000000000000000 [Eh]
	 Same-Spin Energy          =      -0.2354580345854583 [Eh]
	 Opposite-Spin Energy      =      -0.7158938336809564 [Eh]
	 Correlation Energy        =      -0.9513518682664146 [Eh]
	 Total Energy              =    -552.2831976154162703 [Eh]

	 ================> DF-SCS-MP2 Energies <==================
	-----------------------------------------------------------
	 SCS Same-Spin Scale       =       0.3333333333333333 [-]
	 SCS Opposite-Spin Scale   =       1.2000000000000000 [-]
	 SCS Same-Spin Energy      =      -0.0784860115284861 [Eh]
	 SCS Opposite-Spin Energy  =      -0.8590726004171476 [Eh]
	 SCS Correlation Energy    =      -0.9375586119456337 [Eh]
	 SCS Total Energy          =    -552.2694043590954607 [Eh]
	-----------------------------------------------------------

  Dipole Moment: [D]
     X:    -0.4044      Y:    -0.1667      Z:     0.0000     Total:     0.4374

*** Psi4 exiting successfully. Buy a developer a beer!
