                               Psi4 1.4a3.dev225

  ==> Input File <==

--------------------------------------------------------------------------
#psi4
#
memory 32 gb

molecule  {
0 1
  S        1.1915130     0.0000000    -0.0000490
  C       -1.2740110     0.7100150     0.0000760
  C       -1.2740120    -0.7600150     0.0000263
  C       -0.0019280     1.2352840     0.0000210
  C       -0.0019290    -1.2352840    -0.0000200
  H       -2.1689880     1.3232550     0.0001320
  H       -2.1689890    -1.3232540     0.0000440
  H        0.2925210     2.2768120     0.0000270
  H        0.2925210    -2.2768120    -0.0000490
units angstrom
no_reorient  #important for SAPT in psi4, default
symmetry c1  #important for SAPT in psi4, default
}

set PROPERTIES_ORIGIN ["COM"]
properties('MP2/aug-cc-pvtz', properties = ['dipole'])
--------------------------------------------------------------------------

    Molecular point group: c1
  Charge       = 0
  Multiplicity = 1
  Basis Set: AUG-CC-PVTZ
    Blend: AUG-CC-PVTZ
  Basis Set: (AUG-CC-PVTZ AUX)
    Blend: AUG-CC-PVTZ-JKFIT

    Orbital Energies [Eh]
    ---------------------

    Doubly Occupied:

       1A    -91.984600     2A    -11.264338     3A    -11.263116
       4A    -11.244837     5A    -11.240968     6A     -8.985161
       7A     -6.666202     8A     -6.665645     9A     -6.664897
      10A     -1.166906    11A     -0.987231    12A     -0.979106
      13A     -0.763763    14A     -0.754407    15A     -0.697368
      16A     -0.580958    17A     -0.540050    18A     -0.532011
      19A     -0.520859    20A     -0.476182    21A     -0.343512
      22A     -0.330985

  @DF-RHF Final Energy:  -551.37873385115336

   => Energetics <=

    Nuclear Repulsion Energy =            202.0054834235178305
    One-Electron Energy =               -1157.4622309466722072
    Two-Electron Energy =                 404.0780136720010205
    Total Energy =                       -551.3787338511533562
  Basis Set: (AUG-CC-PVTZ AUX)
    Blend: AUG-CC-PVTZ-RI
    Molecular point group: c1

    Geometry (in Angstrom), charge = 0, multiplicity = 1:

       Center              X                  Y                   Z               Mass
    ------------   -----------------  -----------------  -----------------  -----------------
         S            1.147582898783     0.007142558481    -0.000046954529    31.972071174400
         C           -1.317941101217     0.717157558481     0.000078045471    12.000000000000
         C           -1.317942101217    -0.752872441519     0.000028345471    12.000000000000
         C           -0.045858101217     1.242426558481     0.000023045471    12.000000000000
         C           -0.045859101217    -1.228141441519    -0.000017954529    12.000000000000
         H           -2.212918101217     1.330397558481     0.000134045471     1.007825032230
         H           -2.212919101217    -1.316111441519     0.000046045471     1.007825032230
         H            0.248590898783     2.283954558481     0.000029045471     1.007825032230
         H            0.248590898783    -2.269669441519    -0.000046954529     1.007825032230

  Basis Set: AUG-CC-PVTZ
    Blend: AUG-CC-PVTZ
  Basis Set: (AUG-CC-PVTZ AUX)
    Blend: AUG-CC-PVTZ-JKFIT
	 Reference Energy          =    -551.3787338511533562 [Eh]
	 Singles Energy            =      -0.0000000000000000 [Eh]
	 Same-Spin Energy          =      -0.2303527976318510 [Eh]
	 Opposite-Spin Energy      =      -0.7088106282635690 [Eh]
	 Correlation Energy        =      -0.9391634258954200 [Eh]
	 Total Energy              =    -552.3178972770488144 [Eh]

	 ================> DF-SCS-MP2 Energies <==================
	-----------------------------------------------------------
	 SCS Same-Spin Scale       =       0.3333333333333333 [-]
	 SCS Opposite-Spin Scale   =       1.2000000000000000 [-]
	 SCS Same-Spin Energy      =      -0.0767842658772837 [Eh]
	 SCS Opposite-Spin Energy  =      -0.8505727539162827 [Eh]
	 SCS Correlation Energy    =      -0.9273570197935664 [Eh]
	 SCS Total Energy          =    -552.3060908709469459 [Eh]
	-----------------------------------------------------------

  Dipole Moment: [D]
     X:    -0.4655      Y:     0.0020      Z:     0.0000     Total:     0.4655

*** Psi4 exiting successfully. Buy a developer a beer!
