                               Psi4 1.3.2 release

  ==> Input File <==

--------------------------------------------------------------------------
#psi4
#
memory 32 gb

molecule  {
0 1
  S        1.2338968     0.0424030    -0.0000506
  C       -1.2740110     0.7100150     0.0000760
  C       -1.2740120    -0.7100150     0.0000280
  C       -0.0019280     1.2352840     0.0000210
  C       -0.0019290    -1.2352840    -0.0000200
  H       -2.1689880     1.3232550     0.0001320
  H       -2.1689890    -1.3232540     0.0000440
  H        0.2925210     2.2768120     0.0000270
  H        0.2925210    -2.2768120    -0.0000490
units angstrom
no_reorient  #important for SAPT in psi4, default
symmetry c1  #important for SAPT in psi4, default
}

set PROPERTIES_ORIGIN ["COM"]
properties('MP2/aug-cc-pvtz', properties = ['dipole'])
--------------------------------------------------------------------------

    Molecular point group: c1
  Charge       = 0
  Multiplicity = 1
  Basis Set: AUG-CC-PVTZ
    Blend: AUG-CC-PVTZ
  Basis Set: (AUG-CC-PVTZ AUX)
    Blend: AUG-CC-PVTZ-JKFIT

    Orbital Energies [Eh]
    ---------------------

    Doubly Occupied:

       1A    -91.987837     2A    -11.268871     3A    -11.265809
       4A    -11.243760     5A    -11.241053     6A     -8.987045
       7A     -6.668019     8A     -6.667400     9A     -6.666792
      10A     -1.163243    11A     -0.987598    12A     -0.975173
      13A     -0.768329    14A     -0.747765    15A     -0.695955
      16A     -0.572631    17A     -0.553374    18A     -0.520859
      19A     -0.518134    20A     -0.477085    21A     -0.349906
      22A     -0.323828

  @DF-RHF Final Energy:  -551.37721643227349

   => Energetics <=

    Nuclear Repulsion Energy =            200.7580086589634618
    One-Electron Energy =               -1154.9695195023768974
    Two-Electron Energy =                 402.8342944111399220
    Total Energy =                       -551.3772164322734852
  Basis Set: (AUG-CC-PVTZ AUX)
    Blend: AUG-CC-PVTZ-RI
    Molecular point group: c1

    Geometry (in Angstrom), charge = 0, multiplicity = 1:

       Center              X                  Y                   Z               Mass
    ------------   -----------------  -----------------  -----------------  -----------------
         S            1.173835228710     0.026264210321    -0.000048188409    31.972071174400
         C           -1.334072571290     0.693876210321     0.000078411591    12.000000000000
         C           -1.334073571290    -0.726153789679     0.000030411591    12.000000000000
         C           -0.061989571290     1.219145210321     0.000023411591    12.000000000000
         C           -0.061990571290    -1.251422789679    -0.000017588409    12.000000000000
         H           -2.229049571290     1.307116210321     0.000134411591     1.007825032230
         H           -2.229050571290    -1.339392789679     0.000046411591     1.007825032230
         H            0.232459428710     2.260673210321     0.000029411591     1.007825032230
         H            0.232459428710    -2.292950789679    -0.000046588409     1.007825032230

  Basis Set: AUG-CC-PVTZ
    Blend: AUG-CC-PVTZ
  Basis Set: (AUG-CC-PVTZ AUX)
    Blend: AUG-CC-PVTZ-JKFIT
	 Reference Energy          =    -551.3772164322734852 [Eh]
	 Singles Energy            =      -0.0000000000000000 [Eh]
	 Same-Spin Energy          =      -0.2309350020317679 [Eh]
	 Opposite-Spin Energy      =      -0.7102492004978341 [Eh]
	 Correlation Energy        =      -0.9411842025296020 [Eh]
	 Total Energy              =    -552.3184006348030834 [Eh]

	 ================> DF-SCS-MP2 Energies <==================
	-----------------------------------------------------------
	 SCS Same-Spin Scale       =       0.3333333333333333 [-]
	 SCS Opposite-Spin Scale   =       1.2000000000000000 [-]
	 SCS Same-Spin Energy      =      -0.0769783340105893 [Eh]
	 SCS Opposite-Spin Energy  =      -0.8522990405974009 [Eh]
	 SCS Correlation Energy    =      -0.9292773746079902 [Eh]
	 SCS Total Energy          =    -552.3064938068814627 [Eh]
	-----------------------------------------------------------

  Dipole Moment: [D]
     X:    -0.4843      Y:     0.0008      Z:     0.0000     Total:     0.4843

*** Psi4 exiting successfully. Buy a developer a beer!
