                               Psi4 1.3.2 release

  ==> Input File <==

--------------------------------------------------------------------------
#psi4
#
memory 32 gb

molecule  {
0 1
  S        1.1915130     0.0000000    -0.0000490
  C       -1.2740110     0.7100150     0.0000760
  C       -1.2740120    -0.7100150     0.0000280
  C       -0.0019280     1.2352840     0.0000210
  C       -0.0019290    -1.2352840    -0.0000200
  H       -2.0864954     1.2667309     0.0001268
  H       -2.1689890    -1.3232540     0.0000440
  H        0.2925210     2.2768120     0.0000270
  H        0.2925210    -2.2768120    -0.0000490
units angstrom
no_reorient  #important for SAPT in psi4, default
symmetry c1  #important for SAPT in psi4, default
}

set PROPERTIES_ORIGIN ["COM"]
properties('MP2/aug-cc-pvtz', properties = ['dipole'])
--------------------------------------------------------------------------

    Molecular point group: c1
  Charge       = 0
  Multiplicity = 1
  Basis Set: AUG-CC-PVTZ
    Blend: AUG-CC-PVTZ
  Basis Set: (AUG-CC-PVTZ AUX)
    Blend: AUG-CC-PVTZ-JKFIT

    Orbital Energies [Eh]
    ---------------------

    Doubly Occupied:

       1A    -91.985684     2A    -11.263673     3A    -11.263527
       4A    -11.240017     5A    -11.229105     6A     -8.986044
       7A     -6.667036     8A     -6.666544     9A     -6.665844
      10A     -1.170527    11A     -0.990664    12A     -0.981789
      13A     -0.768304    14A     -0.760171    15A     -0.704376
      16A     -0.579134    17A     -0.554075    18A     -0.530645
      19A     -0.522473    20A     -0.476347    21A     -0.346745
      22A     -0.325611

  @DF-RHF Final Energy:  -551.37372188842903

   => Energetics <=

    Nuclear Repulsion Energy =            202.9891866470138382
    One-Electron Energy =               -1159.3691495986927293
    Two-Electron Energy =                 405.0062410632497745
    Total Energy =                       -551.3737218884291451
  Basis Set: (AUG-CC-PVTZ AUX)
    Blend: AUG-CC-PVTZ-RI
    Molecular point group: c1

    Geometry (in Angstrom), charge = 0, multiplicity = 1:

       Center              X                  Y                   Z               Mass
    ------------   -----------------  -----------------  -----------------  -----------------
         S            1.146593199132     0.000678132249    -0.000047134990    31.972071174400
         C           -1.318930800868     0.710693132249     0.000077865010    12.000000000000
         C           -1.318931800868    -0.709336867751     0.000029865010    12.000000000000
         C           -0.046847800868     1.235962132249     0.000022865010    12.000000000000
         C           -0.046848800868    -1.234605867751    -0.000018134990    12.000000000000
         H           -2.131415200868     1.267409032249     0.000128665010     1.007825032230
         H           -2.213908800868    -1.322575867751     0.000045865010     1.007825032230
         H            0.247601199132     2.277490132249     0.000028865010     1.007825032230
         H            0.247601199132    -2.276133867751    -0.000047134990     1.007825032230

  Basis Set: AUG-CC-PVTZ
    Blend: AUG-CC-PVTZ
  Basis Set: (AUG-CC-PVTZ AUX)
    Blend: AUG-CC-PVTZ-JKFIT
	 Reference Energy          =    -551.3737218884290314 [Eh]
	 Singles Energy            =      -0.0000000000000000 [Eh]
	 Same-Spin Energy          =      -0.2313741561878902 [Eh]
	 Opposite-Spin Energy      =      -0.7093236481434499 [Eh]
	 Correlation Energy        =      -0.9406978043313401 [Eh]
	 Total Energy              =    -552.3144196927603389 [Eh]

	 ================> DF-SCS-MP2 Energies <==================
	-----------------------------------------------------------
	 SCS Same-Spin Scale       =       0.3333333333333333 [-]
	 SCS Opposite-Spin Scale   =       1.2000000000000000 [-]
	 SCS Same-Spin Energy      =      -0.0771247187292967 [Eh]
	 SCS Opposite-Spin Energy  =      -0.8511883777721400 [Eh]
	 SCS Correlation Energy    =      -0.9283130965014367 [Eh]
	 SCS Total Energy          =    -552.3020349849305148 [Eh]
	-----------------------------------------------------------

  Dipole Moment: [D]
     X:    -0.4511      Y:     0.0126      Z:     0.0000     Total:     0.4513

*** Psi4 exiting successfully. Buy a developer a beer!
