                               Psi4 1.3.2 release

  ==> Input File <==

--------------------------------------------------------------------------
#psi4
#
memory 32 gb

molecule  {
0 1
  S        1.1915130     0.0000000    -0.0000490
  C       -1.2740110     0.7100150     0.0000760
  C       -1.2740120    -0.7100150     0.0000280
  C       -0.0714101     1.3072022     0.0000251
  C       -0.0019290    -1.2352840    -0.0000200
  H       -2.1689880     1.3232550     0.0001320
  H       -2.1689890    -1.3232540     0.0000440
  H        0.2925210     2.2768120     0.0000270
  H        0.2925210    -2.2768120    -0.0000490
units angstrom
no_reorient  #important for SAPT in psi4, default
symmetry c1  #important for SAPT in psi4, default
}

set PROPERTIES_ORIGIN ["COM"]
properties('MP2/aug-cc-pvtz', properties = ['dipole'])
--------------------------------------------------------------------------

    Molecular point group: c1
  Charge       = 0
  Multiplicity = 1
  Basis Set: AUG-CC-PVTZ
    Blend: AUG-CC-PVTZ
  Basis Set: (AUG-CC-PVTZ AUX)
    Blend: AUG-CC-PVTZ-JKFIT

    Orbital Energies [Eh]
    ---------------------

    Doubly Occupied:

       1A    -91.981140     2A    -11.269226     3A    -11.265191
       4A    -11.242519     5A    -11.241150     6A     -8.980378
       7A     -6.661348     8A     -6.660732     9A     -6.660140
      10A     -1.164188    11A     -0.993757    12A     -0.973300
      13A     -0.775993    14A     -0.752708    15A     -0.697640
      16A     -0.588815    17A     -0.562136    18A     -0.518240
      19A     -0.516104    20A     -0.458978    21A     -0.350522
      22A     -0.327674

  @DF-RHF Final Energy:  -551.37348270419875

   => Energetics <=

    Nuclear Repulsion Energy =            201.0450297273200135
    One-Electron Energy =               -1155.5532643543399445
    Two-Electron Energy =                 403.1347519228211240
    Total Energy =                       -551.3734827041987501
  Basis Set: (AUG-CC-PVTZ AUX)
    Blend: AUG-CC-PVTZ-RI
    Molecular point group: c1

    Geometry (in Angstrom), charge = 0, multiplicity = 1:

       Center              X                  Y                   Z               Mass
    ------------   -----------------  -----------------  -----------------  -----------------
         S            1.157508514709    -0.010273628242    -0.000047783068    31.972071174400
         C           -1.308015485291     0.699741371758     0.000077216932    12.000000000000
         C           -1.308016485291    -0.720288628242     0.000029216932    12.000000000000
         C           -0.105414585291     1.296928571758     0.000026316932    12.000000000000
         C           -0.035933485291    -1.245557628242    -0.000018783068    12.000000000000
         H           -2.202992485291     1.312981371758     0.000133216932     1.007825032230
         H           -2.202993485291    -1.333527628242     0.000045216932     1.007825032230
         H            0.258516514709     2.266538371758     0.000028216932     1.007825032230
         H            0.258516514709    -2.287085628242    -0.000047783068     1.007825032230

  Basis Set: AUG-CC-PVTZ
    Blend: AUG-CC-PVTZ
  Basis Set: (AUG-CC-PVTZ AUX)
    Blend: AUG-CC-PVTZ-JKFIT
	 Reference Energy          =    -551.3734827041987501 [Eh]
	 Singles Energy            =      -0.0000000000000000 [Eh]
	 Same-Spin Energy          =      -0.2302843274625565 [Eh]
	 Opposite-Spin Energy      =      -0.7093509881365601 [Eh]
	 Correlation Energy        =      -0.9396353155991166 [Eh]
	 Total Energy              =    -552.3131180197979120 [Eh]

	 ================> DF-SCS-MP2 Energies <==================
	-----------------------------------------------------------
	 SCS Same-Spin Scale       =       0.3333333333333333 [-]
	 SCS Opposite-Spin Scale   =       1.2000000000000000 [-]
	 SCS Same-Spin Energy      =      -0.0767614424875188 [Eh]
	 SCS Opposite-Spin Energy  =      -0.8512211857638721 [Eh]
	 SCS Correlation Energy    =      -0.9279826282513909 [Eh]
	 SCS Total Energy          =    -552.3014653324501069 [Eh]
	-----------------------------------------------------------

  Dipole Moment: [D]
     X:    -0.5986      Y:     0.0416      Z:     0.0000     Total:     0.6001

*** Psi4 exiting successfully. Buy a developer a beer!
