                               Psi4 1.3.2 release

  ==> Input File <==

--------------------------------------------------------------------------
#psi4
#
memory 32 gb

molecule  {
0 1
  S        1.1915130     0.0000000    -0.0000490
  C       -1.2740110     0.7100150     0.0000760
  C       -1.2740120    -0.7100150     0.0000280
  C        0.0156287     1.1905690     0.0000193
  C       -0.0019290    -1.2352840    -0.0000200
  H       -2.1689880     1.3232550     0.0001320
  H       -2.1689890    -1.3232540     0.0000440
  H        0.2925210     2.2768120     0.0000270
  H        0.2925210    -2.2768120    -0.0000490
units angstrom
no_reorient  #important for SAPT in psi4, default
symmetry c1  #important for SAPT in psi4, default
}

set PROPERTIES_ORIGIN ["COM"]
properties('MP2/aug-cc-pvtz', properties = ['dipole'])
--------------------------------------------------------------------------

    Molecular point group: c1
  Charge       = 0
  Multiplicity = 1
  Basis Set: AUG-CC-PVTZ
    Blend: AUG-CC-PVTZ
  Basis Set: (AUG-CC-PVTZ AUX)
    Blend: AUG-CC-PVTZ-JKFIT

    Orbital Energies [Eh]
    ---------------------

    Doubly Occupied:

       1A    -91.987122     2A    -11.263471     3A    -11.261301
       4A    -11.240432     5A    -11.238398     6A     -8.988365
       7A     -6.669426     8A     -6.668842     9A     -6.668106
      10A     -1.176190    11A     -0.991635    12A     -0.977988
      13A     -0.761717    14A     -0.748800    15A     -0.696244
      16A     -0.569056    17A     -0.544346    18A     -0.531772
      19A     -0.526953    20A     -0.482014    21A     -0.348153
      22A     -0.324682

  @DF-RHF Final Energy:  -551.37681297257473

   => Energetics <=

    Nuclear Repulsion Energy =            203.3986577478351876
    One-Electron Energy =               -1160.2209124048119975
    Two-Electron Energy =                 405.4454416844021125
    Total Energy =                       -551.3768129725747258
  Basis Set: (AUG-CC-PVTZ AUX)
    Blend: AUG-CC-PVTZ-RI
    Molecular point group: c1

    Geometry (in Angstrom), charge = 0, multiplicity = 1:

       Center              X                  Y                   Z               Mass
    ------------   -----------------  -----------------  -----------------  -----------------
         S            1.145074899441     0.006387588782    -0.000046954529    31.972071174400
         C           -1.320449100559     0.716402588782     0.000078045471    12.000000000000
         C           -1.320450100559    -0.703627411218     0.000030045471    12.000000000000
         C           -0.030809400559     1.196956588782     0.000021345471    12.000000000000
         C           -0.048367100559    -1.228896411218    -0.000017954529    12.000000000000
         H           -2.215426100559     1.329642588782     0.000134045471     1.007825032230
         H           -2.215427100559    -1.316866411218     0.000046045471     1.007825032230
         H            0.246082899441     2.283199588782     0.000029045471     1.007825032230
         H            0.246082899441    -2.270424411218    -0.000046954529     1.007825032230

  Basis Set: AUG-CC-PVTZ
    Blend: AUG-CC-PVTZ
  Basis Set: (AUG-CC-PVTZ AUX)
    Blend: AUG-CC-PVTZ-JKFIT
	 Reference Energy          =    -551.3768129725747258 [Eh]
	 Singles Energy            =      -0.0000000000000000 [Eh]
	 Same-Spin Energy          =      -0.2320285252036313 [Eh]
	 Opposite-Spin Energy      =      -0.7098163213404480 [Eh]
	 Correlation Energy        =      -0.9418448465440793 [Eh]
	 Total Energy              =    -552.3186578191188119 [Eh]

	 ================> DF-SCS-MP2 Energies <==================
	-----------------------------------------------------------
	 SCS Same-Spin Scale       =       0.3333333333333333 [-]
	 SCS Opposite-Spin Scale   =       1.2000000000000000 [-]
	 SCS Same-Spin Energy      =      -0.0773428417345438 [Eh]
	 SCS Opposite-Spin Energy  =      -0.8517795856085376 [Eh]
	 SCS Correlation Energy    =      -0.9291224273430814 [Eh]
	 SCS Total Energy          =    -552.3059353999177574 [Eh]
	-----------------------------------------------------------

  Dipole Moment: [D]
     X:    -0.3751      Y:     0.0011      Z:     0.0000     Total:     0.3751

*** Psi4 exiting successfully. Buy a developer a beer!
