                               Psi4 1.3.2 release

  ==> Input File <==

--------------------------------------------------------------------------
#psi4
#
memory 32 gb

molecule  {
0 1
  S        1.1915130     0.0000000    -0.0000490
  C       -1.2646500     0.6878941     0.0000751
  C       -1.2740120    -0.7100150     0.0000280
  C       -0.0019280     1.2352840     0.0000210
  C       -0.0019290    -1.2352840    -0.0000200
  H       -2.1689880     1.3232550     0.0001320
  H       -2.1689890    -1.3232540     0.0000440
  H        0.2925210     2.2768120     0.0000270
  H        0.2925210    -2.2768120    -0.0000490
units angstrom
no_reorient  #important for SAPT in psi4, default
symmetry c1  #important for SAPT in psi4, default
}

set PROPERTIES_ORIGIN ["COM"]
properties('MP2/aug-cc-pvtz', properties = ['dipole'])
--------------------------------------------------------------------------

    Molecular point group: c1
  Charge       = 0
  Multiplicity = 1
  Basis Set: AUG-CC-PVTZ
    Blend: AUG-CC-PVTZ
  Basis Set: (AUG-CC-PVTZ AUX)
    Blend: AUG-CC-PVTZ-JKFIT

    Orbital Energies [Eh]
    ---------------------

    Doubly Occupied:

       1A    -91.986439     2A    -11.264183     3A    -11.263495
       4A    -11.240579     5A    -11.238564     6A     -8.986744
       7A     -6.667711     8A     -6.667251     9A     -6.666552
      10A     -1.173278    11A     -0.988671    12A     -0.980163
      13A     -0.767952    14A     -0.748234    15A     -0.695748
      16A     -0.572190    17A     -0.556651    18A     -0.525338
      19A     -0.524761    20A     -0.474725    21A     -0.349028
      22A     -0.324612

  @DF-RHF Final Energy:  -551.37854622786983

   => Energetics <=

    Nuclear Repulsion Energy =            202.8431962470697840
    One-Electron Energy =               -1159.1177422578678033
    Two-Electron Energy =                 404.8959997829281861
    Total Energy =                       -551.3785462278699470
  Basis Set: (AUG-CC-PVTZ AUX)
    Blend: AUG-CC-PVTZ-RI
    Molecular point group: c1

    Geometry (in Angstrom), charge = 0, multiplicity = 1:

       Center              X                  Y                   Z               Mass
    ------------   -----------------  -----------------  -----------------  -----------------
         S            1.146245666738     0.003159989749    -0.000047068810    31.972071174400
         C           -1.309917333262     0.691054089749     0.000077031190    12.000000000000
         C           -1.319279333262    -0.706855010251     0.000029931190    12.000000000000
         C           -0.047195333262     1.238443989749     0.000022931190    12.000000000000
         C           -0.047196333262    -1.232124010251    -0.000018068810    12.000000000000
         H           -2.214255333262     1.326414989749     0.000133931190     1.007825032230
         H           -2.214256333262    -1.320094010251     0.000045931190     1.007825032230
         H            0.247253666738     2.279971989749     0.000028931190     1.007825032230
         H            0.247253666738    -2.273652010251    -0.000047068810     1.007825032230

  Basis Set: AUG-CC-PVTZ
    Blend: AUG-CC-PVTZ
  Basis Set: (AUG-CC-PVTZ AUX)
    Blend: AUG-CC-PVTZ-JKFIT
	 Reference Energy          =    -551.3785462278698333 [Eh]
	 Singles Energy            =      -0.0000000000000000 [Eh]
	 Same-Spin Energy          =      -0.2319298235783995 [Eh]
	 Opposite-Spin Energy      =      -0.7099481114076289 [Eh]
	 Correlation Energy        =      -0.9418779349860285 [Eh]
	 Total Energy              =    -552.3204241628558293 [Eh]

	 ================> DF-SCS-MP2 Energies <==================
	-----------------------------------------------------------
	 SCS Same-Spin Scale       =       0.3333333333333333 [-]
	 SCS Opposite-Spin Scale   =       1.2000000000000000 [-]
	 SCS Same-Spin Energy      =      -0.0773099411927998 [Eh]
	 SCS Opposite-Spin Energy  =      -0.8519377336891547 [Eh]
	 SCS Correlation Energy    =      -0.9292476748819545 [Eh]
	 SCS Total Energy          =    -552.3077939027517687 [Eh]
	-----------------------------------------------------------

  Dipole Moment: [D]
     X:    -0.4339      Y:     0.0010      Z:     0.0000     Total:     0.4339

*** Psi4 exiting successfully. Buy a developer a beer!
