                               Psi4 1.3.2 release

  ==> Input File <==

--------------------------------------------------------------------------
#psi4
#
memory 32 gb

molecule  {
0 1
  S        1.1915130     0.0000000    -0.0000490
  C       -1.2740110     0.7100150     0.0000760
  C       -1.2740120    -0.7100150     0.0000280
  C       -0.1408923     1.3791205     0.0000292
  C       -0.0019290    -1.2352840    -0.0000200
  H       -2.1689880     1.3232550     0.0001320
  H       -2.1689890    -1.3232540     0.0000440
  H        0.2925210     2.2768120     0.0000270
  H        0.2925210    -2.2768120    -0.0000490
units angstrom
no_reorient  #important for SAPT in psi4, default
symmetry c1  #important for SAPT in psi4, default
}

set PROPERTIES_ORIGIN ["COM"]
properties('MP2/aug-cc-pvtz', properties = ['dipole'])
--------------------------------------------------------------------------

    Molecular point group: c1
  Charge       = 0
  Multiplicity = 1
  Basis Set: AUG-CC-PVTZ
    Blend: AUG-CC-PVTZ
  Basis Set: (AUG-CC-PVTZ AUX)
    Blend: AUG-CC-PVTZ-JKFIT

    Orbital Energies [Eh]
    ---------------------

    Doubly Occupied:

       1A    -91.974370     2A    -11.273796     3A    -11.268982
       4A    -11.245801     5A    -11.241834     6A     -8.973178
       7A     -6.654146     8A     -6.653370     9A     -6.652864
      10A     -1.160368    11A     -1.004890    12A     -0.964071
      13A     -0.786611    14A     -0.757430    15A     -0.698106
      16A     -0.604304    17A     -0.567216    18A     -0.515244
      19A     -0.507486    20A     -0.436066    21A     -0.358650
      22A     -0.324917

  @DF-RHF Final Energy:  -551.35351039618877

   => Energetics <=

    Nuclear Repulsion Energy =            199.7144202851748958
    One-Electron Energy =               -1152.8884633322486479
    Two-Electron Energy =                 401.8205326508849566
    Total Energy =                       -551.3535103961887671
  Basis Set: (AUG-CC-PVTZ AUX)
    Blend: AUG-CC-PVTZ-RI
    Molecular point group: c1

    Geometry (in Angstrom), charge = 0, multiplicity = 1:

       Center              X                  Y                   Z               Mass
    ------------   -----------------  -----------------  -----------------  -----------------
         S            1.167434144919    -0.020547258771    -0.000048368758    31.972071174400
         C           -1.298089855081     0.689467741229     0.000076631242    12.000000000000
         C           -1.298090855081    -0.730562258771     0.000028631242    12.000000000000
         C           -0.164971155081     1.358573241229     0.000029831242    12.000000000000
         C           -0.026007855081    -1.255831258771    -0.000019368758    12.000000000000
         H           -2.193066855081     1.302707741229     0.000132631242     1.007825032230
         H           -2.193067855081    -1.343801258771     0.000044631242     1.007825032230
         H            0.268442144919     2.256264741229     0.000027631242     1.007825032230
         H            0.268442144919    -2.297359258771    -0.000048368758     1.007825032230

  Basis Set: AUG-CC-PVTZ
    Blend: AUG-CC-PVTZ
  Basis Set: (AUG-CC-PVTZ AUX)
    Blend: AUG-CC-PVTZ-JKFIT
	 Reference Energy          =    -551.3535103961887671 [Eh]
	 Singles Energy            =      -0.0000000000000000 [Eh]
	 Same-Spin Energy          =      -0.2297453681922668 [Eh]
	 Opposite-Spin Energy      =      -0.7099050010797920 [Eh]
	 Correlation Energy        =      -0.9396503692720588 [Eh]
	 Total Energy              =    -552.2931607654608115 [Eh]

	 ================> DF-SCS-MP2 Energies <==================
	-----------------------------------------------------------
	 SCS Same-Spin Scale       =       0.3333333333333333 [-]
	 SCS Opposite-Spin Scale   =       1.2000000000000000 [-]
	 SCS Same-Spin Energy      =      -0.0765817893974223 [Eh]
	 SCS Opposite-Spin Energy  =      -0.8518860012957504 [Eh]
	 SCS Correlation Energy    =      -0.9284677906931726 [Eh]
	 SCS Total Energy          =    -552.2819781868819291 [Eh]
	-----------------------------------------------------------

  Dipole Moment: [D]
     X:    -0.7765      Y:     0.1126      Z:     0.0000     Total:     0.7847

*** Psi4 exiting successfully. Buy a developer a beer!
