                               Psi4 1.4a3.dev225

  ==> Input File <==

--------------------------------------------------------------------------
#psi4
#
memory 32 gb

molecule  {
0 1
  S        1.1915130     0.0000000    -0.0000490
  C       -1.2740110     0.7100150     0.0000760
  C       -1.2740120    -0.6900150     0.0000287
  C       -0.0019280     1.2352840     0.0000210
  C       -0.0019290    -1.2352840    -0.0000200
  H       -2.1689880     1.3232550     0.0001320
  H       -2.1689890    -1.3232540     0.0000440
  H        0.2925210     2.2768120     0.0000270
  H        0.2925210    -2.2768120    -0.0000490
units angstrom
no_reorient  #important for SAPT in psi4, default
symmetry c1  #important for SAPT in psi4, default
}

set PROPERTIES_ORIGIN ["COM"]
properties('MP2/aug-cc-pvtz', properties = ['dipole'])
--------------------------------------------------------------------------

    Molecular point group: c1
  Charge       = 0
  Multiplicity = 1
  Basis Set: AUG-CC-PVTZ
    Blend: AUG-CC-PVTZ
  Basis Set: (AUG-CC-PVTZ AUX)
    Blend: AUG-CC-PVTZ-JKFIT

    Orbital Energies [Eh]
    ---------------------

    Doubly Occupied:

       1A    -91.986918     2A    -11.264561     3A    -11.264030
       4A    -11.240947     5A    -11.238899     6A     -8.987170
       7A     -6.668137     8A     -6.667671     9A     -6.666982
      10A     -1.172033    11A     -0.988833    12A     -0.979218
      13A     -0.767542    14A     -0.749061    15A     -0.696038
      16A     -0.571304    17A     -0.556912    18A     -0.526085
      19A     -0.523983    20A     -0.475394    21A     -0.348947
      22A     -0.323780

  @DF-RHF Final Energy:  -551.37855897689428

   => Energetics <=

    Nuclear Repulsion Energy =            202.6653584820785738
    One-Electron Energy =               -1158.7589409731479009
    Two-Electron Energy =                 404.7150235141751295
    Total Energy =                       -551.3785589768942828
  Basis Set: (AUG-CC-PVTZ AUX)
    Blend: AUG-CC-PVTZ-RI
    Molecular point group: c1

    Geometry (in Angstrom), charge = 0, multiplicity = 1:

       Center              X                  Y                   Z               Mass
    ------------   -----------------  -----------------  -----------------  -----------------
         S            1.147582898783    -0.002857040189    -0.000047297373    31.972071174400
         C           -1.317941101217     0.707157959811     0.000077702627    12.000000000000
         C           -1.317942101217    -0.692872040189     0.000030402627    12.000000000000
         C           -0.045858101217     1.232426959811     0.000022702627    12.000000000000
         C           -0.045859101217    -1.238141040189    -0.000018297373    12.000000000000
         H           -2.212918101217     1.320397959811     0.000133702627     1.007825032230
         H           -2.212919101217    -1.326111040189     0.000045702627     1.007825032230
         H            0.248590898783     2.273954959811     0.000028702627     1.007825032230
         H            0.248590898783    -2.279669040189    -0.000047297373     1.007825032230

  Basis Set: AUG-CC-PVTZ
    Blend: AUG-CC-PVTZ
  Basis Set: (AUG-CC-PVTZ AUX)
    Blend: AUG-CC-PVTZ-JKFIT
	 Reference Energy          =    -551.3785589768942828 [Eh]
	 Singles Energy            =      -0.0000000000000000 [Eh]
	 Same-Spin Energy          =      -0.2319962974296033 [Eh]
	 Opposite-Spin Energy      =      -0.7101009095200002 [Eh]
	 Correlation Energy        =      -0.9420972069496035 [Eh]
	 Total Energy              =    -552.3206561838438802 [Eh]

	 ================> DF-SCS-MP2 Energies <==================
	-----------------------------------------------------------
	 SCS Same-Spin Scale       =       0.3333333333333333 [-]
	 SCS Opposite-Spin Scale   =       1.2000000000000000 [-]
	 SCS Same-Spin Energy      =      -0.0773320991432011 [Eh]
	 SCS Opposite-Spin Energy  =      -0.8521210914240002 [Eh]
	 SCS Correlation Energy    =      -0.9294531905672013 [Eh]
	 SCS Total Energy          =    -552.3080121674614702 [Eh]
	-----------------------------------------------------------

  Dipole Moment: [D]
     X:    -0.4279      Y:    -0.0001      Z:     0.0000     Total:     0.4279

*** Psi4 exiting successfully. Buy a developer a beer!
