                               Psi4 1.3.2 release

  ==> Input File <==

--------------------------------------------------------------------------
#psi4
#
memory 32 gb

molecule  {
0 1
  S        1.1915130     0.0000000    -0.0000490
  C       -1.2740110     0.7100150     0.0000760
  C       -1.2740120    -0.7100150     0.0000280
  C        0.1337321     1.3532655     0.0000173
  C       -0.0019290    -1.2352840    -0.0000200
  H       -2.1689880     1.3232550     0.0001320
  H       -2.1689890    -1.3232540     0.0000440
  H        0.2925210     2.2768120     0.0000270
  H        0.2925210    -2.2768120    -0.0000490
units angstrom
no_reorient  #important for SAPT in psi4, default
symmetry c1  #important for SAPT in psi4, default
}

set PROPERTIES_ORIGIN ["COM"]
properties('MP2/aug-cc-pvtz', properties = ['dipole'])
--------------------------------------------------------------------------

    Molecular point group: c1
  Charge       = 0
  Multiplicity = 1
  Basis Set: AUG-CC-PVTZ
    Blend: AUG-CC-PVTZ
  Basis Set: (AUG-CC-PVTZ AUX)
    Blend: AUG-CC-PVTZ-JKFIT

    Orbital Energies [Eh]
    ---------------------

    Doubly Occupied:

       1A    -91.996869     2A    -11.271418     3A    -11.268420
       4A    -11.260342     5A    -11.245217     6A     -8.995634
       7A     -6.676518     8A     -6.676323     9A     -6.675698
      10A     -1.157086    11A     -0.995760    12A     -0.965808
      13A     -0.800798    14A     -0.746603    15A     -0.689111
      16A     -0.595700    17A     -0.559355    18A     -0.526263
      19A     -0.515474    20A     -0.460309    21A     -0.350203
      22A     -0.308957

  @DF-RHF Final Energy:  -551.33096117238290

   => Energetics <=

    Nuclear Repulsion Energy =            200.3028304292365362
    One-Electron Energy =               -1153.7918479856934937
    Two-Electron Energy =                 402.1580563840740297
    Total Energy =                       -551.3309611723828993
  Basis Set: (AUG-CC-PVTZ AUX)
    Blend: AUG-CC-PVTZ-RI
    Molecular point group: c1

    Geometry (in Angstrom), charge = 0, multiplicity = 1:

       Center              X                  Y                   Z               Mass
    ------------   -----------------  -----------------  -----------------  -----------------
         S            1.128203662275    -0.016853835577    -0.000046668827    31.972071174400
         C           -1.337320337725     0.693161164423     0.000078331173    12.000000000000
         C           -1.337321337725    -0.726868835577     0.000030331173    12.000000000000
         C            0.070422762275     1.336411664423     0.000019631173    12.000000000000
         C           -0.065238337725    -1.252137835577    -0.000017668827    12.000000000000
         H           -2.232297337725     1.306401164423     0.000134331173     1.007825032230
         H           -2.232298337725    -1.340107835577     0.000046331173     1.007825032230
         H            0.229211662275     2.259958164423     0.000029331173     1.007825032230
         H            0.229211662275    -2.293665835577    -0.000046668827     1.007825032230

  Basis Set: AUG-CC-PVTZ
    Blend: AUG-CC-PVTZ
  Basis Set: (AUG-CC-PVTZ AUX)
    Blend: AUG-CC-PVTZ-JKFIT
	 Reference Energy          =    -551.3309611723828993 [Eh]
	 Singles Energy            =      -0.0000000000000000 [Eh]
	 Same-Spin Energy          =      -0.2344290204219016 [Eh]
	 Opposite-Spin Energy      =      -0.7154632919606679 [Eh]
	 Correlation Energy        =      -0.9498923123825695 [Eh]
	 Total Energy              =    -552.2808534847654300 [Eh]

	 ================> DF-SCS-MP2 Energies <==================
	-----------------------------------------------------------
	 SCS Same-Spin Scale       =       0.3333333333333333 [-]
	 SCS Opposite-Spin Scale   =       1.2000000000000000 [-]
	 SCS Same-Spin Energy      =      -0.0781430068073005 [Eh]
	 SCS Opposite-Spin Energy  =      -0.8585559503528015 [Eh]
	 SCS Correlation Energy    =      -0.9366989571601021 [Eh]
	 SCS Total Energy          =    -552.2676601295429464 [Eh]
	-----------------------------------------------------------

  Dipole Moment: [D]
     X:    -0.4579      Y:    -0.1801      Z:     0.0000     Total:     0.4920

*** Psi4 exiting successfully. Buy a developer a beer!
