                               Psi4 1.3.2 release

  ==> Input File <==

--------------------------------------------------------------------------
#psi4
#
memory 32 gb

molecule  {
0 1
  S        1.1915130     0.0000000    -0.0000490
  C       -1.2740110     0.7100150     0.0000760
  C       -1.2740120    -0.7100150     0.0000280
  C        0.0871482     1.3155251     0.0000186
  C       -0.0019290    -1.2352840    -0.0000200
  H       -2.1689880     1.3232550     0.0001320
  H       -2.1689890    -1.3232540     0.0000440
  H        0.2925210     2.2768120     0.0000270
  H        0.2925210    -2.2768120    -0.0000490
units angstrom
no_reorient  #important for SAPT in psi4, default
symmetry c1  #important for SAPT in psi4, default
}

set PROPERTIES_ORIGIN ["COM"]
properties('MP2/aug-cc-pvtz', properties = ['dipole'])
--------------------------------------------------------------------------

    Molecular point group: c1
  Charge       = 0
  Multiplicity = 1
  Basis Set: AUG-CC-PVTZ
    Blend: AUG-CC-PVTZ
  Basis Set: (AUG-CC-PVTZ AUX)
    Blend: AUG-CC-PVTZ-JKFIT

    Orbital Energies [Eh]
    ---------------------

    Doubly Occupied:

       1A    -91.992793     2A    -11.269176     3A    -11.266910
       4A    -11.254518     5A    -11.243594     6A     -8.992158
       7A     -6.673081     8A     -6.672786     9A     -6.672133
      10A     -1.160507    11A     -0.991961    12A     -0.969999
      13A     -0.787692    14A     -0.748527    15A     -0.691703
      16A     -0.585992    17A     -0.558382    18A     -0.529357
      19A     -0.517282    20A     -0.466404    21A     -0.348184
      22A     -0.314802

  @DF-RHF Final Energy:  -551.35639788334163

   => Energetics <=

    Nuclear Repulsion Energy =            200.9698694509276038
    One-Electron Energy =               -1155.2366495853664219
    Two-Electron Energy =                 402.9103822510971895
    Total Energy =                       -551.3563978833416286
  Basis Set: (AUG-CC-PVTZ AUX)
    Blend: AUG-CC-PVTZ-RI
    Molecular point group: c1

    Geometry (in Angstrom), charge = 0, multiplicity = 1:

       Center              X                  Y                   Z               Mass
    ------------   -----------------  -----------------  -----------------  -----------------
         S            1.134858238054    -0.011462566239    -0.000046854533    31.972071174400
         C           -1.330665761946     0.698552433761     0.000078145467    12.000000000000
         C           -1.330666761946    -0.721477566239     0.000030145467    12.000000000000
         C            0.030493438054     1.304062533761     0.000020745467    12.000000000000
         C           -0.058583761946    -1.246746566239    -0.000017854533    12.000000000000
         H           -2.225642761946     1.311792433761     0.000134145467     1.007825032230
         H           -2.225643761946    -1.334716566239     0.000046145467     1.007825032230
         H            0.235866238054     2.265349433761     0.000029145467     1.007825032230
         H            0.235866238054    -2.288274566239    -0.000046854533     1.007825032230

  Basis Set: AUG-CC-PVTZ
    Blend: AUG-CC-PVTZ
  Basis Set: (AUG-CC-PVTZ AUX)
    Blend: AUG-CC-PVTZ-JKFIT
	 Reference Energy          =    -551.3563978833416286 [Eh]
	 Singles Energy            =      -0.0000000000000000 [Eh]
	 Same-Spin Energy          =      -0.2333110108839780 [Eh]
	 Opposite-Spin Energy      =      -0.7130163796047118 [Eh]
	 Correlation Energy        =      -0.9463273904886897 [Eh]
	 Total Energy              =    -552.3027252738303332 [Eh]

	 ================> DF-SCS-MP2 Energies <==================
	-----------------------------------------------------------
	 SCS Same-Spin Scale       =       0.3333333333333333 [-]
	 SCS Opposite-Spin Scale   =       1.2000000000000000 [-]
	 SCS Same-Spin Energy      =      -0.0777703369613260 [Eh]
	 SCS Opposite-Spin Energy  =      -0.8556196555256541 [Eh]
	 SCS Correlation Energy    =      -0.9333899924869801 [Eh]
	 SCS Total Energy          =    -552.2897878758286652 [Eh]
	-----------------------------------------------------------

  Dipole Moment: [D]
     X:    -0.4434      Y:    -0.1099      Z:     0.0000     Total:     0.4568

*** Psi4 exiting successfully. Buy a developer a beer!
