                               Psi4 1.4a3.dev225

  ==> Input File <==

--------------------------------------------------------------------------
#psi4
#
memory 32 gb

molecule  {
0 1
  S        1.1915130     0.0000000    -0.0000490
  C       -1.2740110     0.7100150     0.0000760
  C       -1.2740120    -0.7100150     0.0000280
  C        0.0165580     1.2429173     0.0000202
  C       -0.0019290    -1.2352840    -0.0000200
  H       -2.1689880     1.3232550     0.0001320
  H       -2.1689890    -1.3232540     0.0000440
  H        0.2925210     2.2768120     0.0000270
  H        0.2925210    -2.2768120    -0.0000490
units angstrom
no_reorient  #important for SAPT in psi4, default
symmetry c1  #important for SAPT in psi4, default
}

set PROPERTIES_ORIGIN ["COM"]
properties('MP2/aug-cc-pvtz', properties = ['dipole'])
--------------------------------------------------------------------------

    Molecular point group: c1
  Charge       = 0
  Multiplicity = 1
  Basis Set: AUG-CC-PVTZ
    Blend: AUG-CC-PVTZ
  Basis Set: (AUG-CC-PVTZ AUX)
    Blend: AUG-CC-PVTZ-JKFIT

    Orbital Energies [Eh]
    ---------------------

    Doubly Occupied:

       1A    -91.987368     2A    -11.264960     3A    -11.264116
       4A    -11.243161     5A    -11.241028     6A     -8.987695
       7A     -6.668683     8A     -6.668217     9A     -6.667513
      10A     -1.169166    11A     -0.987326    12A     -0.978961
      13A     -0.767759    14A     -0.751001    15A     -0.695639
      16A     -0.573666    17A     -0.552487    18A     -0.530593
      19A     -0.522326    20A     -0.475424    21A     -0.346968
      22A     -0.324031

  @DF-RHF Final Energy:  -551.37853742714583

   => Energetics <=

    Nuclear Repulsion Energy =            202.3326684179032782
    One-Electron Energy =               -1158.0862346770898057
    Two-Electron Energy =                 404.3750288320406412
    Total Energy =                       -551.3785374271458295
  Basis Set: (AUG-CC-PVTZ AUX)
    Blend: AUG-CC-PVTZ-RI
    Molecular point group: c1

    Geometry (in Angstrom), charge = 0, multiplicity = 1:

       Center              X                  Y                   Z               Mass
    ------------   -----------------  -----------------  -----------------  -----------------
         S            1.144942147626    -0.001090439662    -0.000047083096    31.972071174400
         C           -1.320581852374     0.708924560338     0.000077916904    12.000000000000
         C           -1.320582852374    -0.711105439662     0.000029916904    12.000000000000
         C           -0.030012852374     1.241826860338     0.000022116904    12.000000000000
         C           -0.048499852374    -1.236374439662    -0.000018083096    12.000000000000
         H           -2.215558852374     1.322164560338     0.000133916904     1.007825032230
         H           -2.215559852374    -1.324344439662     0.000045916904     1.007825032230
         H            0.245950147626     2.275721560338     0.000028916904     1.007825032230
         H            0.245950147626    -2.277902439662    -0.000047083096     1.007825032230

  Basis Set: AUG-CC-PVTZ
    Blend: AUG-CC-PVTZ
  Basis Set: (AUG-CC-PVTZ AUX)
    Blend: AUG-CC-PVTZ-JKFIT
	 Reference Energy          =    -551.3785374271458295 [Eh]
	 Singles Energy            =      -0.0000000000000000 [Eh]
	 Same-Spin Energy          =      -0.2318472449699538 [Eh]
	 Opposite-Spin Energy      =      -0.7100824835015098 [Eh]
	 Correlation Energy        =      -0.9419297284714636 [Eh]
	 Total Energy              =    -552.3204671556172798 [Eh]

	 ================> DF-SCS-MP2 Energies <==================
	-----------------------------------------------------------
	 SCS Same-Spin Scale       =       0.3333333333333333 [-]
	 SCS Opposite-Spin Scale   =       1.2000000000000000 [-]
	 SCS Same-Spin Energy      =      -0.0772824149899846 [Eh]
	 SCS Opposite-Spin Energy  =      -0.8520989802018117 [Eh]
	 SCS Correlation Energy    =      -0.9293813951917963 [Eh]
	 SCS Total Energy          =    -552.3079188223375695 [Eh]
	-----------------------------------------------------------

  Dipole Moment: [D]
     X:    -0.4263      Y:    -0.0149      Z:     0.0000     Total:     0.4266

*** Psi4 exiting successfully. Buy a developer a beer!
