                               Psi4 1.4a3.dev225

  ==> Input File <==

--------------------------------------------------------------------------
#psi4
#
memory 32 gb

molecule  {
0 1
  S        1.1915130     0.0000000    -0.0000490
  C       -1.2740110     0.7100150     0.0000760
  C       -1.2740120    -0.7100150     0.0000280
  C       -0.0019280     1.2352840     0.0000210
  C       -0.0019290    -1.2352840    -0.0000200
  H       -2.1689880     1.3232550     0.0001320
  H       -2.1689890    -1.3232540     0.0000440
  H        0.2979619     2.2960577     0.0000271
  H        0.2925210    -2.2768120    -0.0000490
units angstrom
no_reorient  #important for SAPT in psi4, default
symmetry c1  #important for SAPT in psi4, default
}

set PROPERTIES_ORIGIN ["COM"]
properties('MP2/aug-cc-pvtz', properties = ['dipole'])
--------------------------------------------------------------------------

    Molecular point group: c1
  Charge       = 0
  Multiplicity = 1
  Basis Set: AUG-CC-PVTZ
    Blend: AUG-CC-PVTZ
  Basis Set: (AUG-CC-PVTZ AUX)
    Blend: AUG-CC-PVTZ-JKFIT

    Orbital Energies [Eh]
    ---------------------

    Doubly Occupied:

       1A    -91.986312     2A    -11.266261     3A    -11.264140
       4A    -11.241445     5A    -11.240398     6A     -8.986650
       7A     -6.667637     8A     -6.667145     9A     -6.666436
      10A     -1.170395    11A     -0.986256    12A     -0.980338
      13A     -0.764539    14A     -0.749543    15A     -0.695617
      16A     -0.572653    17A     -0.551462    18A     -0.527570
      19A     -0.523072    20A     -0.475879    21A     -0.347173
      22A     -0.326024

  @DF-RHF Final Energy:  -551.37913032857148

   => Energetics <=

    Nuclear Repulsion Energy =            202.3733244569771159
    One-Electron Energy =               -1158.1910212757131831
    Two-Electron Energy =                 404.4385664901645896
    Total Energy =                       -551.3791303285714775
  Basis Set: (AUG-CC-PVTZ AUX)
    Blend: AUG-CC-PVTZ-RI
    Molecular point group: c1

    Geometry (in Angstrom), charge = 0, multiplicity = 1:

       Center              X                  Y                   Z               Mass
    ------------   -----------------  -----------------  -----------------  -----------------
         S            1.147517621936    -0.000230911043    -0.000047198576    31.972071174400
         C           -1.318006378064     0.709784088957     0.000077801424    12.000000000000
         C           -1.318007378064    -0.710245911043     0.000029801424    12.000000000000
         C           -0.045923378064     1.235053088957     0.000022801424    12.000000000000
         C           -0.045924378064    -1.235514911043    -0.000018198576    12.000000000000
         H           -2.212983378064     1.323024088957     0.000133801424     1.007825032230
         H           -2.212984378064    -1.323484911043     0.000045801424     1.007825032230
         H            0.253966521936     2.295826788957     0.000028901424     1.007825032230
         H            0.248525621936    -2.277042911043    -0.000047198576     1.007825032230

  Basis Set: AUG-CC-PVTZ
    Blend: AUG-CC-PVTZ
  Basis Set: (AUG-CC-PVTZ AUX)
    Blend: AUG-CC-PVTZ-JKFIT
	 Reference Energy          =    -551.3791303285714775 [Eh]
	 Singles Energy            =      -0.0000000000000000 [Eh]
	 Same-Spin Energy          =      -0.2315343013553694 [Eh]
	 Opposite-Spin Energy      =      -0.7097794238793698 [Eh]
	 Correlation Energy        =      -0.9413137252347392 [Eh]
	 Total Energy              =    -552.3204440538062272 [Eh]

	 ================> DF-SCS-MP2 Energies <==================
	-----------------------------------------------------------
	 SCS Same-Spin Scale       =       0.3333333333333333 [-]
	 SCS Opposite-Spin Scale   =       1.2000000000000000 [-]
	 SCS Same-Spin Energy      =      -0.0771781004517898 [Eh]
	 SCS Opposite-Spin Energy  =      -0.8517353086552437 [Eh]
	 SCS Correlation Energy    =      -0.9289134091070335 [Eh]
	 SCS Total Energy          =    -552.3080437376785312 [Eh]
	-----------------------------------------------------------

  Dipole Moment: [D]
     X:    -0.4374      Y:     0.0008      Z:     0.0000     Total:     0.4374

*** Psi4 exiting successfully. Buy a developer a beer!
