                               Psi4 1.3.2 release

  ==> Input File <==

--------------------------------------------------------------------------
#psi4
#
memory 32 gb

molecule  {
0 1
  S        1.1915130     0.0000000    -0.0000490
  C       -1.2740110     0.7100150     0.0000760
  C       -1.2740121    -0.9100150     0.0000212
  C       -0.0019280     1.2352840     0.0000210
  C       -0.0019290    -1.2352840    -0.0000200
  H       -2.1689880     1.3232550     0.0001320
  H       -2.1689890    -1.3232540     0.0000440
  H        0.2925210     2.2768120     0.0000270
  H        0.2925210    -2.2768120    -0.0000490
units angstrom
no_reorient  #important for SAPT in psi4, default
symmetry c1  #important for SAPT in psi4, default
}

set PROPERTIES_ORIGIN ["COM"]
properties('MP2/aug-cc-pvtz', properties = ['dipole'])
--------------------------------------------------------------------------

    Molecular point group: c1
  Charge       = 0
  Multiplicity = 1
  Basis Set: AUG-CC-PVTZ
    Blend: AUG-CC-PVTZ
  Basis Set: (AUG-CC-PVTZ AUX)
    Blend: AUG-CC-PVTZ-JKFIT

    Orbital Energies [Eh]
    ---------------------

    Doubly Occupied:

       1A    -91.981872     2A    -11.264829     3A    -11.262013
       4A    -11.252846     5A    -11.242984     6A     -8.982851
       7A     -6.664016     8A     -6.663273     9A     -6.662438
      10A     -1.159311    11A     -1.002027    12A     -0.965282
      13A     -0.771597    14A     -0.756971    15A     -0.699306
      16A     -0.600580    17A     -0.543239    18A     -0.516559
      19A     -0.500803    20A     -0.468644    21A     -0.351077
      22A     -0.330153

  @DF-RHF Final Energy:  -551.34725693335065

   => Energetics <=

    Nuclear Repulsion Energy =            200.6868490451201126
    One-Electron Energy =               -1154.7828705365716360
    Two-Electron Energy =                 402.7487645581009019
    Total Energy =                       -551.3472569333506499
  Basis Set: (AUG-CC-PVTZ AUX)
    Blend: AUG-CC-PVTZ-RI
    Molecular point group: c1

    Geometry (in Angstrom), charge = 0, multiplicity = 1:

       Center              X                  Y                   Z               Mass
    ------------   -----------------  -----------------  -----------------  -----------------
         S            1.147582913069     0.028570269918    -0.000046225987    31.972071174400
         C           -1.317941086931     0.738585269918     0.000078774013    12.000000000000
         C           -1.317942186931    -0.881444730082     0.000023974013    12.000000000000
         C           -0.045858086931     1.263854269918     0.000023774013    12.000000000000
         C           -0.045859086931    -1.206713730082    -0.000017225987    12.000000000000
         H           -2.212918086931     1.351825269918     0.000134774013     1.007825032230
         H           -2.212919086931    -1.294683730082     0.000046774013     1.007825032230
         H            0.248590913069     2.305382269918     0.000029774013     1.007825032230
         H            0.248590913069    -2.248241730082    -0.000046225987     1.007825032230

  Basis Set: AUG-CC-PVTZ
    Blend: AUG-CC-PVTZ
  Basis Set: (AUG-CC-PVTZ AUX)
    Blend: AUG-CC-PVTZ-JKFIT
	 Reference Energy          =    -551.3472569333506499 [Eh]
	 Singles Energy            =      -0.0000000000000000 [Eh]
	 Same-Spin Energy          =      -0.2281539997583619 [Eh]
	 Opposite-Spin Energy      =      -0.7085728361510724 [Eh]
	 Correlation Energy        =      -0.9367268359094343 [Eh]
	 Total Energy              =    -552.2839837692600895 [Eh]

	 ================> DF-SCS-MP2 Energies <==================
	-----------------------------------------------------------
	 SCS Same-Spin Scale       =       0.3333333333333333 [-]
	 SCS Opposite-Spin Scale   =       1.2000000000000000 [-]
	 SCS Same-Spin Energy      =      -0.0760513332527873 [Eh]
	 SCS Opposite-Spin Energy  =      -0.8502874033812868 [Eh]
	 SCS Correlation Energy    =      -0.9263387366340741 [Eh]
	 SCS Total Energy          =    -552.2735956699847293 [Eh]
	-----------------------------------------------------------

  Dipole Moment: [D]
     X:    -0.5428      Y:     0.0164      Z:     0.0000     Total:     0.5430

*** Psi4 exiting successfully. Buy a developer a beer!
