                               Psi4 1.3.2 release

  ==> Input File <==

--------------------------------------------------------------------------
#psi4
#
memory 32 gb

molecule  {
0 1
  S        1.1915130     0.0000000    -0.0000490
  C       -1.2740110     0.7100150     0.0000760
  C       -1.2740120    -0.7100150     0.0000280
  C        0.0198124     1.2559243     0.0000204
  C       -0.0019290    -1.2352840    -0.0000200
  H       -2.1689880     1.3232550     0.0001320
  H       -2.1689890    -1.3232540     0.0000440
  H        0.2925210     2.2768120     0.0000270
  H        0.2925210    -2.2768120    -0.0000490
units angstrom
no_reorient  #important for SAPT in psi4, default
symmetry c1  #important for SAPT in psi4, default
}

set PROPERTIES_ORIGIN ["COM"]
properties('MP2/aug-cc-pvtz', properties = ['dipole'])
--------------------------------------------------------------------------

    Molecular point group: c1
  Charge       = 0
  Multiplicity = 1
  Basis Set: AUG-CC-PVTZ
    Blend: AUG-CC-PVTZ
  Basis Set: (AUG-CC-PVTZ AUX)
    Blend: AUG-CC-PVTZ-JKFIT

    Orbital Energies [Eh]
    ---------------------

    Doubly Occupied:

       1A    -91.987631     2A    -11.265472     3A    -11.264774
       4A    -11.244552     5A    -11.241360     6A     -8.987761
       7A     -6.668736     8A     -6.668291     9A     -6.667598
      10A     -1.167510    11A     -0.986803    12A     -0.978684
      13A     -0.770203    14A     -0.751041    15A     -0.695331
      16A     -0.575280    17A     -0.554154    18A     -0.530197
      19A     -0.521262    20A     -0.473759    21A     -0.346748
      22A     -0.323519

  @DF-RHF Final Energy:  -551.37756785237013

   => Energetics <=

    Nuclear Repulsion Energy =            202.0746230444917160
    One-Electron Energy =               -1157.5630466700781653
    Two-Electron Energy =                 404.1108557732162012
    Total Energy =                       -551.3775678523702481
  Basis Set: (AUG-CC-PVTZ AUX)
    Blend: AUG-CC-PVTZ-RI
    Molecular point group: c1

    Geometry (in Angstrom), charge = 0, multiplicity = 1:

       Center              X                  Y                   Z               Mass
    ------------   -----------------  -----------------  -----------------  -----------------
         S            1.144477251999    -0.002948507947    -0.000047111666    31.972071174400
         C           -1.321046748001     0.707066492053     0.000077888334    12.000000000000
         C           -1.321047748001    -0.712963507947     0.000029888334    12.000000000000
         C           -0.027223348001     1.252975792053     0.000022288334    12.000000000000
         C           -0.048964748001    -1.238232507947    -0.000018111666    12.000000000000
         H           -2.216023748001     1.320306492053     0.000133888334     1.007825032230
         H           -2.216024748001    -1.326202507947     0.000045888334     1.007825032230
         H            0.245485251999     2.273863492053     0.000028888334     1.007825032230
         H            0.245485251999    -2.279760507947    -0.000047111666     1.007825032230

  Basis Set: AUG-CC-PVTZ
    Blend: AUG-CC-PVTZ
  Basis Set: (AUG-CC-PVTZ AUX)
    Blend: AUG-CC-PVTZ-JKFIT
	 Reference Energy          =    -551.3775678523701345 [Eh]
	 Singles Energy            =      -0.0000000000000000 [Eh]
	 Same-Spin Energy          =      -0.2318895117433668 [Eh]
	 Opposite-Spin Energy      =      -0.7102846701217689 [Eh]
	 Correlation Energy        =      -0.9421741818651357 [Eh]
	 Total Energy              =    -552.3197420342352189 [Eh]

	 ================> DF-SCS-MP2 Energies <==================
	-----------------------------------------------------------
	 SCS Same-Spin Scale       =       0.3333333333333333 [-]
	 SCS Opposite-Spin Scale   =       1.2000000000000000 [-]
	 SCS Same-Spin Energy      =      -0.0772965039144556 [Eh]
	 SCS Opposite-Spin Energy  =      -0.8523416041461226 [Eh]
	 SCS Correlation Energy    =      -0.9296381080605782 [Eh]
	 SCS Total Energy          =    -552.3072059604306787 [Eh]
	-----------------------------------------------------------

  Dipole Moment: [D]
     X:    -0.4363      Y:    -0.0226      Z:     0.0000     Total:     0.4369

*** Psi4 exiting successfully. Buy a developer a beer!
