                               Psi4 1.3.2 release

  ==> Input File <==

--------------------------------------------------------------------------
#psi4
#
memory 32 gb

molecule  {
0 1
  S        1.1915130     0.0000000    -0.0000490
  C       -1.2740110     0.7100150     0.0000760
  C       -1.2740119    -0.5100150     0.0000348
  C       -0.0019280     1.2352840     0.0000210
  C       -0.0019290    -1.2352840    -0.0000200
  H       -2.1689880     1.3232550     0.0001320
  H       -2.1689890    -1.3232540     0.0000440
  H        0.2925210     2.2768120     0.0000270
  H        0.2925210    -2.2768120    -0.0000490
units angstrom
no_reorient  #important for SAPT in psi4, default
symmetry c1  #important for SAPT in psi4, default
}

set PROPERTIES_ORIGIN ["COM"]
properties('MP2/aug-cc-pvtz', properties = ['dipole'])
--------------------------------------------------------------------------

    Molecular point group: c1
  Charge       = 0
  Multiplicity = 1
  Basis Set: AUG-CC-PVTZ
    Blend: AUG-CC-PVTZ
  Basis Set: (AUG-CC-PVTZ AUX)
    Blend: AUG-CC-PVTZ-JKFIT

    Orbital Energies [Eh]
    ---------------------

    Doubly Occupied:

       1A    -91.996197     2A    -11.268523     3A    -11.263657
       4A    -11.238863     5A    -11.218948     6A     -8.995276
       7A     -6.676006     8A     -6.675776     9A     -6.675306
      10A     -1.192780    11A     -1.019544    12A     -0.959295
      13A     -0.779314    14A     -0.736302    15A     -0.695010
      16A     -0.594992    17A     -0.550686    18A     -0.537420
      19A     -0.504045    20A     -0.460554    21A     -0.372411
      22A     -0.303015

  @DF-RHF Final Energy:  -551.31277184995179

   => Energetics <=

    Nuclear Repulsion Energy =            204.6310919732709976
    One-Electron Energy =               -1162.4598851996627218
    Two-Electron Energy =                 406.5160213764399373
    Total Energy =                       -551.3127718499517869
  Basis Set: (AUG-CC-PVTZ AUX)
    Blend: AUG-CC-PVTZ-RI
    Molecular point group: c1

    Geometry (in Angstrom), charge = 0, multiplicity = 1:

       Center              X                  Y                   Z               Mass
    ------------   -----------------  -----------------  -----------------  -----------------
         S            1.147582884498    -0.028570293913    -0.000048168766    31.972071174400
         C           -1.317941115502     0.681444706087     0.000076831234    12.000000000000
         C           -1.317942015502    -0.538585293913     0.000035631234    12.000000000000
         C           -0.045858115502     1.206713706087     0.000021831234    12.000000000000
         C           -0.045859115502    -1.263854293913    -0.000019168766    12.000000000000
         H           -2.212918115502     1.294684706087     0.000132831234     1.007825032230
         H           -2.212919115502    -1.351824293913     0.000044831234     1.007825032230
         H            0.248590884498     2.248241706087     0.000027831234     1.007825032230
         H            0.248590884498    -2.305382293913    -0.000048168766     1.007825032230

  Basis Set: AUG-CC-PVTZ
    Blend: AUG-CC-PVTZ
  Basis Set: (AUG-CC-PVTZ AUX)
    Blend: AUG-CC-PVTZ-JKFIT
	 Reference Energy          =    -551.3127718499517869 [Eh]
	 Singles Energy            =      -0.0000000000000000 [Eh]
	 Same-Spin Energy          =      -0.2371865166739179 [Eh]
	 Opposite-Spin Energy      =      -0.7166992750570039 [Eh]
	 Correlation Energy        =      -0.9538857917309218 [Eh]
	 Total Energy              =    -552.2666576416827411 [Eh]

	 ================> DF-SCS-MP2 Energies <==================
	-----------------------------------------------------------
	 SCS Same-Spin Scale       =       0.3333333333333333 [-]
	 SCS Opposite-Spin Scale   =       1.2000000000000000 [-]
	 SCS Same-Spin Energy      =      -0.0790621722246393 [Eh]
	 SCS Opposite-Spin Energy  =      -0.8600391300684047 [Eh]
	 SCS Correlation Energy    =      -0.9391013022930440 [Eh]
	 SCS Total Energy          =    -552.2518731522447979 [Eh]
	-----------------------------------------------------------

  Dipole Moment: [D]
     X:    -0.3533      Y:     0.0285      Z:     0.0000     Total:     0.3545

*** Psi4 exiting successfully. Buy a developer a beer!
