                               Psi4 1.3.2 release

  ==> Input File <==

--------------------------------------------------------------------------
#psi4
#
memory 32 gb

molecule  {
0 1
  S        1.1476752    -0.0408980    -0.0000473
  C       -1.2740110     0.7100150     0.0000760
  C       -1.2740120    -0.7100150     0.0000280
  C       -0.0019280     1.2352840     0.0000210
  C       -0.0019290    -1.2352840    -0.0000200
  H       -2.1689880     1.3232550     0.0001320
  H       -2.1689890    -1.3232540     0.0000440
  H        0.2925210     2.2768120     0.0000270
  H        0.2925210    -2.2768120    -0.0000490
units angstrom
no_reorient  #important for SAPT in psi4, default
symmetry c1  #important for SAPT in psi4, default
}

set PROPERTIES_ORIGIN ["COM"]
properties('MP2/aug-cc-pvtz', properties = ['dipole'])
--------------------------------------------------------------------------

    Molecular point group: c1
  Charge       = 0
  Multiplicity = 1
  Basis Set: AUG-CC-PVTZ
    Blend: AUG-CC-PVTZ
  Basis Set: (AUG-CC-PVTZ AUX)
    Blend: AUG-CC-PVTZ-JKFIT

    Orbital Energies [Eh]
    ---------------------

    Doubly Occupied:

       1A    -91.984177     2A    -11.262283     3A    -11.259173
       4A    -11.240600     5A    -11.237878     6A     -8.985965
       7A     -6.667044     8A     -6.666523     9A     -6.665755
      10A     -1.179161    11A     -0.992534    12A     -0.980124
      13A     -0.764573    14A     -0.753419    15A     -0.696780
      16A     -0.576387    17A     -0.551595    18A     -0.534519
      19A     -0.528707    20A     -0.472659    21A     -0.346166
      22A     -0.326600

  @DF-RHF Final Energy:  -551.37805426682769

   => Energetics <=

    Nuclear Repulsion Energy =            204.2969122813896945
    One-Electron Energy =               -1162.0046895560658413
    Two-Electron Energy =                 406.3297230078484290
    Total Energy =                       -551.3780542668276894
  Basis Set: (AUG-CC-PVTZ AUX)
    Blend: AUG-CC-PVTZ-RI
    Molecular point group: c1

    Geometry (in Angstrom), charge = 0, multiplicity = 1:

       Center              X                  Y                   Z               Mass
    ------------   -----------------  -----------------  -----------------  -----------------
         S            1.120429967974    -0.025332044268    -0.000046144405    31.972071174400
         C           -1.301256232026     0.725580955732     0.000077155595    12.000000000000
         C           -1.301257232026    -0.694449044268     0.000029155595    12.000000000000
         C           -0.029173232026     1.250849955732     0.000022155595    12.000000000000
         C           -0.029174232026    -1.219718044268    -0.000018844405    12.000000000000
         H           -2.196233232026     1.338820955732     0.000133155595     1.007825032230
         H           -2.196234232026    -1.307688044268     0.000045155595     1.007825032230
         H            0.265275767974     2.292377955732     0.000028155595     1.007825032230
         H            0.265275767974    -2.261246044268    -0.000047844405     1.007825032230

  Basis Set: AUG-CC-PVTZ
    Blend: AUG-CC-PVTZ
  Basis Set: (AUG-CC-PVTZ AUX)
    Blend: AUG-CC-PVTZ-JKFIT
	 Reference Energy          =    -551.3780542668276894 [Eh]
	 Singles Energy            =      -0.0000000000000000 [Eh]
	 Same-Spin Energy          =      -0.2321694628775649 [Eh]
	 Opposite-Spin Energy      =      -0.7092456868036834 [Eh]
	 Correlation Energy        =      -0.9414151496812483 [Eh]
	 Total Energy              =    -552.3194694165089231 [Eh]

	 ================> DF-SCS-MP2 Energies <==================
	-----------------------------------------------------------
	 SCS Same-Spin Scale       =       0.3333333333333333 [-]
	 SCS Opposite-Spin Scale   =       1.2000000000000000 [-]
	 SCS Same-Spin Energy      =      -0.0773898209591883 [Eh]
	 SCS Opposite-Spin Energy  =      -0.8510948241644201 [Eh]
	 SCS Correlation Energy    =      -0.9284846451236084 [Eh]
	 SCS Total Energy          =    -552.3065389119512929 [Eh]
	-----------------------------------------------------------

  Dipole Moment: [D]
     X:    -0.3991      Y:    -0.0116      Z:     0.0000     Total:     0.3993

*** Psi4 exiting successfully. Buy a developer a beer!
