                               Psi4 1.4a3.dev225

  ==> Input File <==

--------------------------------------------------------------------------
#psi4
#
memory 32 gb

molecule  {
0 1
  S        1.1915130     0.0000000    -0.0000490
  C       -1.2740110     0.7100150     0.0000760
  C       -1.2740120    -0.7100150     0.0000280
  C        0.0119684     1.2209004     0.0000202
  C       -0.0019290    -1.2352840    -0.0000200
  H       -2.1689880     1.3232550     0.0001320
  H       -2.1689890    -1.3232540     0.0000440
  H        0.2925210     2.2768120     0.0000270
  H        0.2925210    -2.2768120    -0.0000490
units angstrom
no_reorient  #important for SAPT in psi4, default
symmetry c1  #important for SAPT in psi4, default
}

set PROPERTIES_ORIGIN ["COM"]
properties('MP2/aug-cc-pvtz', properties = ['dipole'])
--------------------------------------------------------------------------

    Molecular point group: c1
  Charge       = 0
  Multiplicity = 1
  Basis Set: AUG-CC-PVTZ
    Blend: AUG-CC-PVTZ
  Basis Set: (AUG-CC-PVTZ AUX)
    Blend: AUG-CC-PVTZ-JKFIT

    Orbital Energies [Eh]
    ---------------------

    Doubly Occupied:

       1A    -91.987006     2A    -11.264148     3A    -11.263014
       4A    -11.241250     5A    -11.240201     6A     -8.987677
       7A     -6.668689     8A     -6.668182     9A     -6.667462
      10A     -1.172075    11A     -0.988573    12A     -0.979173
      13A     -0.764503    14A     -0.750411    15A     -0.696079
      16A     -0.571515    17A     -0.549293    18A     -0.530946
      19A     -0.524205    20A     -0.478192    21A     -0.347392
      22A     -0.324786

  @DF-RHF Final Energy:  -551.37895571144986

   => Energetics <=

    Nuclear Repulsion Energy =            202.7739122627572215
    One-Electron Energy =               -1158.9761910453726159
    Two-Electron Energy =                 404.8233230711655324
    Total Energy =                       -551.3789557114498621
  Basis Set: (AUG-CC-PVTZ AUX)
    Blend: AUG-CC-PVTZ-RI
    Molecular point group: c1

    Geometry (in Angstrom), charge = 0, multiplicity = 1:

       Center              X                  Y                   Z               Mass
    ------------   -----------------  -----------------  -----------------  -----------------
         S            1.145597778455     0.002054705537    -0.000047083096    31.972071174400
         C           -1.319926221545     0.712069705537     0.000077916904    12.000000000000
         C           -1.319927221545    -0.707960294463     0.000029916904    12.000000000000
         C           -0.033946821545     1.222955105537     0.000022116904    12.000000000000
         C           -0.047844221545    -1.233229294463    -0.000018083096    12.000000000000
         H           -2.214903221545     1.325309705537     0.000133916904     1.007825032230
         H           -2.214904221545    -1.321199294463     0.000045916904     1.007825032230
         H            0.246605778455     2.278866705537     0.000028916904     1.007825032230
         H            0.246605778455    -2.274757294463    -0.000047083096     1.007825032230

  Basis Set: AUG-CC-PVTZ
    Blend: AUG-CC-PVTZ
  Basis Set: (AUG-CC-PVTZ AUX)
    Blend: AUG-CC-PVTZ-JKFIT
	 Reference Energy          =    -551.3789557114498621 [Eh]
	 Singles Energy            =      -0.0000000000000000 [Eh]
	 Same-Spin Energy          =      -0.2318165063500153 [Eh]
	 Opposite-Spin Energy      =      -0.7098307799668326 [Eh]
	 Correlation Energy        =      -0.9416472863168479 [Eh]
	 Total Energy              =    -552.3206029977667413 [Eh]

	 ================> DF-SCS-MP2 Energies <==================
	-----------------------------------------------------------
	 SCS Same-Spin Scale       =       0.3333333333333333 [-]
	 SCS Opposite-Spin Scale   =       1.2000000000000000 [-]
	 SCS Same-Spin Energy      =      -0.0772721687833384 [Eh]
	 SCS Opposite-Spin Energy  =      -0.8517969359601991 [Eh]
	 SCS Correlation Energy    =      -0.9290691047435375 [Eh]
	 SCS Total Energy          =    -552.3080248161934378 [Eh]
	-----------------------------------------------------------

  Dipole Moment: [D]
     X:    -0.4089      Y:    -0.0045      Z:     0.0000     Total:     0.4090

*** Psi4 exiting successfully. Buy a developer a beer!
