                               Psi4 1.3.2 release

  ==> Input File <==

--------------------------------------------------------------------------
#psi4
#
memory 32 gb

molecule  {
0 1
  S        1.1915130     0.0000000    -0.0000490
  C       -1.2740110     0.7100150     0.0000760
  C       -1.2740120    -0.7100150     0.0000280
  C        0.0675541     1.1633658     0.0000169
  C       -0.0019290    -1.2352840    -0.0000200
  H       -2.1689880     1.3232550     0.0001320
  H       -2.1689890    -1.3232540     0.0000440
  H        0.2925210     2.2768120     0.0000270
  H        0.2925210    -2.2768120    -0.0000490
units angstrom
no_reorient  #important for SAPT in psi4, default
symmetry c1  #important for SAPT in psi4, default
}

set PROPERTIES_ORIGIN ["COM"]
properties('MP2/aug-cc-pvtz', properties = ['dipole'])
--------------------------------------------------------------------------

    Molecular point group: c1
  Charge       = 0
  Multiplicity = 1
  Basis Set: AUG-CC-PVTZ
    Blend: AUG-CC-PVTZ
  Basis Set: (AUG-CC-PVTZ AUX)
    Blend: AUG-CC-PVTZ-JKFIT

    Orbital Energies [Eh]
    ---------------------

    Doubly Occupied:

       1A    -91.989741     2A    -11.264793     3A    -11.258287
       4A    -11.241031     5A    -11.239934     6A     -8.992112
       7A     -6.673336     8A     -6.672513     9A     -6.671823
      10A     -1.180330    11A     -1.000183    12A     -0.969663
      13A     -0.758076    14A     -0.749597    15A     -0.694793
      16A     -0.564697    17A     -0.542575    18A     -0.535316
      19A     -0.530040    20A     -0.484102    21A     -0.351018
      22A     -0.317871

  @DF-RHF Final Energy:  -551.36728794716532

   => Energetics <=

    Nuclear Repulsion Energy =            204.0470499193142473
    One-Electron Energy =               -1161.4650159463603813
    Two-Electron Energy =                 406.0506780798807540
    Total Energy =                       -551.3672879471653232
  Basis Set: (AUG-CC-PVTZ AUX)
    Blend: AUG-CC-PVTZ-RI
    Molecular point group: c1

    Geometry (in Angstrom), charge = 0, multiplicity = 1:

       Center              X                  Y                   Z               Mass
    ------------   -----------------  -----------------  -----------------  -----------------
         S            1.137657282858     0.010273604247    -0.000046611686    31.972071174400
         C           -1.327866717142     0.720288604247     0.000078388314    12.000000000000
         C           -1.327867717142    -0.699741395753     0.000030388314    12.000000000000
         C            0.013698382858     1.173639404247     0.000019288314    12.000000000000
         C           -0.055784717142    -1.225010395753    -0.000017611686    12.000000000000
         H           -2.222843717142     1.333528604247     0.000134388314     1.007825032230
         H           -2.222844717142    -1.312980395753     0.000046388314     1.007825032230
         H            0.238665282858     2.287085604247     0.000029388314     1.007825032230
         H            0.238665282858    -2.266538395753    -0.000046611686     1.007825032230

  Basis Set: AUG-CC-PVTZ
    Blend: AUG-CC-PVTZ
  Basis Set: (AUG-CC-PVTZ AUX)
    Blend: AUG-CC-PVTZ-JKFIT
	 Reference Energy          =    -551.3672879471653232 [Eh]
	 Singles Energy            =      -0.0000000000000000 [Eh]
	 Same-Spin Energy          =      -0.2333538997157295 [Eh]
	 Opposite-Spin Energy      =      -0.7109580834429767 [Eh]
	 Correlation Energy        =      -0.9443119831587062 [Eh]
	 Total Energy              =    -552.3115999303240642 [Eh]

	 ================> DF-SCS-MP2 Energies <==================
	-----------------------------------------------------------
	 SCS Same-Spin Scale       =       0.3333333333333333 [-]
	 SCS Opposite-Spin Scale   =       1.2000000000000000 [-]
	 SCS Same-Spin Energy      =      -0.0777846332385765 [Eh]
	 SCS Opposite-Spin Energy  =      -0.8531497001315721 [Eh]
	 SCS Correlation Energy    =      -0.9309343333701485 [Eh]
	 SCS Total Energy          =    -552.2982222805354695 [Eh]
	-----------------------------------------------------------

  Dipole Moment: [D]
     X:    -0.3002      Y:    -0.0094      Z:     0.0000     Total:     0.3003

*** Psi4 exiting successfully. Buy a developer a beer!
