                               Psi4 1.3.2 release

  ==> Input File <==

--------------------------------------------------------------------------
#psi4
#
memory 32 gb

molecule  {
0 1
  S        1.1915130     0.0000000    -0.0000490
  C       -1.2740110     0.7100150     0.0000760
  C       -1.2492291    -0.7097987     0.0000270
  C       -0.0019280     1.2352840     0.0000210
  C       -0.0019290    -1.2352840    -0.0000200
  H       -2.1689880     1.3232550     0.0001320
  H       -2.1689890    -1.3232540     0.0000440
  H        0.2925210     2.2768120     0.0000270
  H        0.2925210    -2.2768120    -0.0000490
units angstrom
no_reorient  #important for SAPT in psi4, default
symmetry c1  #important for SAPT in psi4, default
}

set PROPERTIES_ORIGIN ["COM"]
properties('MP2/aug-cc-pvtz', properties = ['dipole'])
--------------------------------------------------------------------------

    Molecular point group: c1
  Charge       = 0
  Multiplicity = 1
  Basis Set: AUG-CC-PVTZ
    Blend: AUG-CC-PVTZ
  Basis Set: (AUG-CC-PVTZ AUX)
    Blend: AUG-CC-PVTZ-JKFIT

    Orbital Energies [Eh]
    ---------------------

    Doubly Occupied:

       1A    -91.984714     2A    -11.264498     3A    -11.261037
       4A    -11.240742     5A    -11.239507     6A     -8.985227
       7A     -6.666220     8A     -6.665737     9A     -6.664998
      10A     -1.173333    11A     -0.985057    12A     -0.984308
      13A     -0.767116    14A     -0.748592    15A     -0.695672
      16A     -0.576184    17A     -0.551420    18A     -0.526240
      19A     -0.524822    20A     -0.474078    21A     -0.347018
      22A     -0.328731

  @DF-RHF Final Energy:  -551.37981956941212

   => Energetics <=

    Nuclear Repulsion Energy =            202.8934113701350839
    One-Electron Energy =               -1159.2359593361520638
    Two-Electron Energy =                 404.9627283966048594
    Total Energy =                       -551.3798195694121205
  Basis Set: (AUG-CC-PVTZ AUX)
    Blend: AUG-CC-PVTZ-RI
    Molecular point group: c1

    Geometry (in Angstrom), charge = 0, multiplicity = 1:

       Center              X                  Y                   Z               Mass
    ------------   -----------------  -----------------  -----------------  -----------------
         S            1.144042626585    -0.000030910757    -0.000047054525    31.972071174400
         C           -1.321481373415     0.709984089243     0.000077945475    12.000000000000
         C           -1.296699473415    -0.709829610757     0.000028945475    12.000000000000
         C           -0.049398373415     1.235253089243     0.000022945475    12.000000000000
         C           -0.049399373415    -1.235314910757    -0.000018054525    12.000000000000
         H           -2.216458373415     1.323224089243     0.000133945475     1.007825032230
         H           -2.216459373415    -1.323284910757     0.000045945475     1.007825032230
         H            0.245050626585     2.276781089243     0.000028945475     1.007825032230
         H            0.245050626585    -2.276842910757    -0.000047054525     1.007825032230

  Basis Set: AUG-CC-PVTZ
    Blend: AUG-CC-PVTZ
  Basis Set: (AUG-CC-PVTZ AUX)
    Blend: AUG-CC-PVTZ-JKFIT
	 Reference Energy          =    -551.3798195694121205 [Eh]
	 Singles Energy            =      -0.0000000000000000 [Eh]
	 Same-Spin Energy          =      -0.2311805119184122 [Eh]
	 Opposite-Spin Energy      =      -0.7091245564564261 [Eh]
	 Correlation Energy        =      -0.9403050683748384 [Eh]
	 Total Energy              =    -552.3201246377869893 [Eh]

	 ================> DF-SCS-MP2 Energies <==================
	-----------------------------------------------------------
	 SCS Same-Spin Scale       =       0.3333333333333333 [-]
	 SCS Opposite-Spin Scale   =       1.2000000000000000 [-]
	 SCS Same-Spin Energy      =      -0.0770601706394707 [Eh]
	 SCS Opposite-Spin Energy  =      -0.8509494677477113 [Eh]
	 SCS Correlation Energy    =      -0.9280096383871821 [Eh]
	 SCS Total Energy          =    -552.3078292077992728 [Eh]
	-----------------------------------------------------------

  Dipole Moment: [D]
     X:    -0.4592      Y:    -0.0030      Z:     0.0000     Total:     0.4592

*** Psi4 exiting successfully. Buy a developer a beer!
