                               Psi4 1.4a3.dev225

  ==> Input File <==

--------------------------------------------------------------------------
#psi4
#
memory 32 gb

molecule  {
0 1
  S        1.1915130     0.0000000    -0.0000490
  C       -1.2740110     0.7100150     0.0000760
  C       -1.2740120    -0.7100150     0.0000280
  C       -0.0366691     1.2712431     0.0000230
  C       -0.0019290    -1.2352840    -0.0000200
  H       -2.1689880     1.3232550     0.0001320
  H       -2.1689890    -1.3232540     0.0000440
  H        0.2925210     2.2768120     0.0000270
  H        0.2925210    -2.2768120    -0.0000490
units angstrom
no_reorient  #important for SAPT in psi4, default
symmetry c1  #important for SAPT in psi4, default
}

set PROPERTIES_ORIGIN ["COM"]
properties('MP2/aug-cc-pvtz', properties = ['dipole'])
--------------------------------------------------------------------------

    Molecular point group: c1
  Charge       = 0
  Multiplicity = 1
  Basis Set: AUG-CC-PVTZ
    Blend: AUG-CC-PVTZ
  Basis Set: (AUG-CC-PVTZ AUX)
    Blend: AUG-CC-PVTZ-JKFIT

    Orbital Energies [Eh]
    ---------------------

    Doubly Occupied:

       1A    -91.983860     2A    -11.266749     3A    -11.264366
       4A    -11.241766     5A    -11.240697     6A     -8.983556
       7A     -6.664525     8A     -6.663993     9A     -6.663340
      10A     -1.166946    11A     -0.988165    12A     -0.978774
      13A     -0.771075    14A     -0.751320    15A     -0.697086
      16A     -0.580798    17A     -0.558145    18A     -0.521685
      19A     -0.520374    20A     -0.468324    21A     -0.347854
      22A     -0.327724

  @DF-RHF Final Energy:  -551.37865488667126

   => Energetics <=

    Nuclear Repulsion Energy =            201.7436432081811688
    One-Electron Energy =               -1156.9423522256051911
    Two-Electron Energy =                 403.8200541307527374
    Total Energy =                       -551.3786548866712565
  Basis Set: (AUG-CC-PVTZ AUX)
    Blend: AUG-CC-PVTZ-RI
    Molecular point group: c1

    Geometry (in Angstrom), charge = 0, multiplicity = 1:

       Center              X                  Y                   Z               Mass
    ------------   -----------------  -----------------  -----------------  -----------------
         S            1.152545713889    -0.005136820120    -0.000047483080    31.972071174400
         C           -1.312978286111     0.704878179880     0.000077516920    12.000000000000
         C           -1.312979286111    -0.715151820120     0.000029516920    12.000000000000
         C           -0.075636386111     1.266106279880     0.000024516920    12.000000000000
         C           -0.040896286111    -1.240420820120    -0.000018483080    12.000000000000
         H           -2.207955286111     1.318118179880     0.000133516920     1.007825032230
         H           -2.207956286111    -1.328390820120     0.000045516920     1.007825032230
         H            0.253553713889     2.271675179880     0.000028516920     1.007825032230
         H            0.253553713889    -2.281948820120    -0.000047483080     1.007825032230

  Basis Set: AUG-CC-PVTZ
    Blend: AUG-CC-PVTZ
  Basis Set: (AUG-CC-PVTZ AUX)
    Blend: AUG-CC-PVTZ-JKFIT
	 Reference Energy          =    -551.3786548866712565 [Eh]
	 Singles Energy            =      -0.0000000000000000 [Eh]
	 Same-Spin Energy          =      -0.2308022652826614 [Eh]
	 Opposite-Spin Energy      =      -0.7093807489250179 [Eh]
	 Correlation Energy        =      -0.9401830142076792 [Eh]
	 Total Energy              =    -552.3188379008789752 [Eh]

	 ================> DF-SCS-MP2 Energies <==================
	-----------------------------------------------------------
	 SCS Same-Spin Scale       =       0.3333333333333333 [-]
	 SCS Opposite-Spin Scale   =       1.2000000000000000 [-]
	 SCS Same-Spin Energy      =      -0.0769340884275538 [Eh]
	 SCS Opposite-Spin Energy  =      -0.8512568987100214 [Eh]
	 SCS Correlation Energy    =      -0.9281909871375752 [Eh]
	 SCS Total Energy          =    -552.3068458738088111 [Eh]
	-----------------------------------------------------------

  Dipole Moment: [D]
     X:    -0.5160      Y:     0.0169      Z:     0.0000     Total:     0.5163

*** Psi4 exiting successfully. Buy a developer a beer!
