                               Psi4 1.3.2 release

  ==> Input File <==

--------------------------------------------------------------------------
#psi4
#
memory 32 gb

molecule  {
0 1
  S        1.1915130     0.0000000    -0.0000490
  C       -1.2740110     0.7100150     0.0000760
  C       -1.3235703    -0.7091499     0.0000300
  C       -0.0019280     1.2352840     0.0000210
  C       -0.0019290    -1.2352840    -0.0000200
  H       -2.1689880     1.3232550     0.0001320
  H       -2.1689890    -1.3232540     0.0000440
  H        0.2925210     2.2768120     0.0000270
  H        0.2925210    -2.2768120    -0.0000490
units angstrom
no_reorient  #important for SAPT in psi4, default
symmetry c1  #important for SAPT in psi4, default
}

set PROPERTIES_ORIGIN ["COM"]
properties('MP2/aug-cc-pvtz', properties = ['dipole'])
--------------------------------------------------------------------------

    Molecular point group: c1
  Charge       = 0
  Multiplicity = 1
  Basis Set: AUG-CC-PVTZ
    Blend: AUG-CC-PVTZ
  Basis Set: (AUG-CC-PVTZ AUX)
    Blend: AUG-CC-PVTZ-JKFIT

    Orbital Energies [Eh]
    ---------------------

    Doubly Occupied:

       1A    -91.989249     2A    -11.270158     3A    -11.263402
       4A    -11.243178     5A    -11.241673     6A     -8.989271
       7A     -6.670250     8A     -6.669742     9A     -6.669096
      10A     -1.165298    11A     -0.988809    12A     -0.975392
      13A     -0.766007    14A     -0.754896    15A     -0.696818
      16A     -0.575474    17A     -0.551155    18A     -0.528034
      19A     -0.519875    20A     -0.478455    21A     -0.347871
      22A     -0.320383

  @DF-RHF Final Energy:  -551.37448948185067

   => Energetics <=

    Nuclear Repulsion Energy =            201.6658376109090796
    One-Electron Energy =               -1156.7316840559378761
    Two-Electron Energy =                 403.6913569631781229
    Total Energy =                       -551.3744894818506737
  Basis Set: (AUG-CC-PVTZ AUX)
    Blend: AUG-CC-PVTZ-RI
    Molecular point group: c1

    Geometry (in Angstrom), charge = 0, multiplicity = 1:

       Center              X                  Y                   Z               Mass
    ------------   -----------------  -----------------  -----------------  -----------------
         S            1.154662371795    -0.000123592752    -0.000047483080    31.972071174400
         C           -1.310861628205     0.709891407248     0.000077516920    12.000000000000
         C           -1.360420928205    -0.709273492752     0.000031516920    12.000000000000
         C           -0.038778628205     1.235160407248     0.000022516920    12.000000000000
         C           -0.038779628205    -1.235407592752    -0.000018483080    12.000000000000
         H           -2.205838628205     1.323131407248     0.000133516920     1.007825032230
         H           -2.205839628205    -1.323377592752     0.000045516920     1.007825032230
         H            0.255670371795     2.276688407248     0.000028516920     1.007825032230
         H            0.255670371795    -2.276935592752    -0.000047483080     1.007825032230

  Basis Set: AUG-CC-PVTZ
    Blend: AUG-CC-PVTZ
  Basis Set: (AUG-CC-PVTZ AUX)
    Blend: AUG-CC-PVTZ-JKFIT
	 Reference Energy          =    -551.3744894818506737 [Eh]
	 Singles Energy            =      -0.0000000000000000 [Eh]
	 Same-Spin Energy          =      -0.2322289473437148 [Eh]
	 Opposite-Spin Energy      =      -0.7109656332312631 [Eh]
	 Correlation Energy        =      -0.9431945805749778 [Eh]
	 Total Energy              =    -552.3176840624256556 [Eh]

	 ================> DF-SCS-MP2 Energies <==================
	-----------------------------------------------------------
	 SCS Same-Spin Scale       =       0.3333333333333333 [-]
	 SCS Opposite-Spin Scale   =       1.2000000000000000 [-]
	 SCS Same-Spin Energy      =      -0.0774096491145716 [Eh]
	 SCS Opposite-Spin Energy  =      -0.8531587598775157 [Eh]
	 SCS Correlation Energy    =      -0.9305684089920873 [Eh]
	 SCS Total Energy          =    -552.3050578908427042 [Eh]
	-----------------------------------------------------------

  Dipole Moment: [D]
     X:    -0.3938      Y:     0.0112      Z:     0.0000     Total:     0.3940

*** Psi4 exiting successfully. Buy a developer a beer!
