                               Psi4 1.4a3.dev225

  ==> Input File <==

--------------------------------------------------------------------------
#psi4
#
memory 32 gb

molecule  {
0 1
  S        1.1915130     0.0000000    -0.0000490
  C       -1.2740110     0.7100150     0.0000760
  C       -1.2740120    -0.7100150     0.0000280
  C        0.0442871     1.2543671     0.0000190
  C       -0.0019290    -1.2352840    -0.0000200
  H       -2.1689880     1.3232550     0.0001320
  H       -2.1689890    -1.3232540     0.0000440
  H        0.2925210     2.2768120     0.0000270
  H        0.2925210    -2.2768120    -0.0000490
units angstrom
no_reorient  #important for SAPT in psi4, default
symmetry c1  #important for SAPT in psi4, default
}

set PROPERTIES_ORIGIN ["COM"]
properties('MP2/aug-cc-pvtz', properties = ['dipole'])
--------------------------------------------------------------------------

    Molecular point group: c1
  Charge       = 0
  Multiplicity = 1
  Basis Set: AUG-CC-PVTZ
    Blend: AUG-CC-PVTZ
  Basis Set: (AUG-CC-PVTZ AUX)
    Blend: AUG-CC-PVTZ-JKFIT

    Orbital Energies [Eh]
    ---------------------

    Doubly Occupied:

       1A    -91.989213     2A    -11.266173     3A    -11.264123
       4A    -11.246185     5A    -11.241636     6A     -8.989494
       7A     -6.670481     8A     -6.670050     9A     -6.669355
      10A     -1.167510    11A     -0.989941    12A     -0.974937
      13A     -0.770775    14A     -0.750889    15A     -0.694461
      16A     -0.574214    17A     -0.553561    18A     -0.532646
      19A     -0.521486    20A     -0.474466    21A     -0.347445
      22A     -0.320639

  @DF-RHF Final Energy:  -551.37492632533838

   => Energetics <=

    Nuclear Repulsion Energy =            202.1298883021717927
    One-Electron Energy =               -1157.6502709925971430
    Two-Electron Energy =                 404.1454563650869432
    Total Energy =                       -551.3749263253383788
  Basis Set: (AUG-CC-PVTZ AUX)
    Blend: AUG-CC-PVTZ-RI
    Molecular point group: c1

    Geometry (in Angstrom), charge = 0, multiplicity = 1:

       Center              X                  Y                   Z               Mass
    ------------   -----------------  -----------------  -----------------  -----------------
         S            1.140981006605    -0.002726059732    -0.000046911674    31.972071174400
         C           -1.324542993395     0.707288940268     0.000078088326    12.000000000000
         C           -1.324543993395    -0.712741059732     0.000030088326    12.000000000000
         C           -0.006244893395     1.251641040268     0.000021088326    12.000000000000
         C           -0.052460993395    -1.238010059732    -0.000017911674    12.000000000000
         H           -2.219519993395     1.320528940268     0.000134088326     1.007825032230
         H           -2.219520993395    -1.325980059732     0.000046088326     1.007825032230
         H            0.241989006605     2.274085940268     0.000029088326     1.007825032230
         H            0.241989006605    -2.279538059732    -0.000046911674     1.007825032230

  Basis Set: AUG-CC-PVTZ
    Blend: AUG-CC-PVTZ
  Basis Set: (AUG-CC-PVTZ AUX)
    Blend: AUG-CC-PVTZ-JKFIT
	 Reference Energy          =    -551.3749263253383788 [Eh]
	 Singles Energy            =      -0.0000000000000000 [Eh]
	 Same-Spin Energy          =      -0.2324029157246538 [Eh]
	 Opposite-Spin Energy      =      -0.7108169105125007 [Eh]
	 Correlation Energy        =      -0.9432198262371545 [Eh]
	 Total Energy              =    -552.3181461515755473 [Eh]

	 ================> DF-SCS-MP2 Energies <==================
	-----------------------------------------------------------
	 SCS Same-Spin Scale       =       0.3333333333333333 [-]
	 SCS Opposite-Spin Scale   =       1.2000000000000000 [-]
	 SCS Same-Spin Energy      =      -0.0774676385748846 [Eh]
	 SCS Opposite-Spin Energy  =      -0.8529802926150009 [Eh]
	 SCS Correlation Energy    =      -0.9304479311898854 [Eh]
	 SCS Total Energy          =    -552.3053742565282391 [Eh]
	-----------------------------------------------------------

  Dipole Moment: [D]
     X:    -0.4119      Y:    -0.0382      Z:     0.0000     Total:     0.4136

*** Psi4 exiting successfully. Buy a developer a beer!
