                               Psi4 1.4a3.dev225

  ==> Input File <==

--------------------------------------------------------------------------
#psi4
#
memory 32 gb

molecule  {
0 1
  S        1.1915130     0.0000000    -0.0000490
  C       -1.2740110     0.7100150     0.0000760
  C       -1.2740120    -0.7100150     0.0000280
  C       -0.0019280     1.2352840     0.0000210
  C       -0.0019290    -1.2352840    -0.0000200
  H       -2.1524895     1.3119502     0.0001310
  H       -2.1689890    -1.3232540     0.0000440
  H        0.2925210     2.2768120     0.0000270
  H        0.2925210    -2.2768120    -0.0000490
units angstrom
no_reorient  #important for SAPT in psi4, default
symmetry c1  #important for SAPT in psi4, default
}

set PROPERTIES_ORIGIN ["COM"]
properties('MP2/aug-cc-pvtz', properties = ['dipole'])
--------------------------------------------------------------------------

    Molecular point group: c1
  Charge       = 0
  Multiplicity = 1
  Basis Set: AUG-CC-PVTZ
    Blend: AUG-CC-PVTZ
  Basis Set: (AUG-CC-PVTZ AUX)
    Blend: AUG-CC-PVTZ-JKFIT

    Orbital Energies [Eh]
    ---------------------

    Doubly Occupied:

       1A    -91.986065     2A    -11.264012     3A    -11.263978
       4A    -11.240769     5A    -11.238415     6A     -8.986416
       7A     -6.667406     8A     -6.666914     9A     -6.666208
      10A     -1.170416    11A     -0.986806    12A     -0.981410
      13A     -0.766407    14A     -0.752334    15A     -0.698127
      16A     -0.574807    17A     -0.552705    18A     -0.528783
      19A     -0.522878    20A     -0.475920    21A     -0.347016
      22A     -0.325909

  @DF-RHF Final Energy:  -551.37989018822418

   => Energetics <=

    Nuclear Repulsion Energy =            202.5703833563716216
    One-Electron Energy =               -1158.5731457265840163
    Two-Electron Energy =                 404.6228721819882708
    Total Energy =                       -551.3798901882241807
  Basis Set: (AUG-CC-PVTZ AUX)
    Blend: AUG-CC-PVTZ-RI
    Molecular point group: c1

    Geometry (in Angstrom), charge = 0, multiplicity = 1:

       Center              X                  Y                   Z               Mass
    ------------   -----------------  -----------------  -----------------  -----------------
         S            1.147384959093     0.000135616612    -0.000047185379    31.972071174400
         C           -1.318139040907     0.710150616612     0.000077814621    12.000000000000
         C           -1.318140040907    -0.709879383388     0.000029814621    12.000000000000
         C           -0.046056040907     1.235419616612     0.000022814621    12.000000000000
         C           -0.046057040907    -1.235148383388    -0.000018185379    12.000000000000
         H           -2.196617540907     1.312085816612     0.000132814621     1.007825032230
         H           -2.213117040907    -1.323118383388     0.000045814621     1.007825032230
         H            0.248392959093     2.276947616612     0.000028814621     1.007825032230
         H            0.248392959093    -2.276676383388    -0.000047185379     1.007825032230

  Basis Set: AUG-CC-PVTZ
    Blend: AUG-CC-PVTZ
  Basis Set: (AUG-CC-PVTZ AUX)
    Blend: AUG-CC-PVTZ-JKFIT
	 Reference Energy          =    -551.3798901882241807 [Eh]
	 Singles Energy            =      -0.0000000000000000 [Eh]
	 Same-Spin Energy          =      -0.2314622422477301 [Eh]
	 Opposite-Spin Energy      =      -0.7095466776452725 [Eh]
	 Correlation Energy        =      -0.9410089198930025 [Eh]
	 Total Energy              =    -552.3208991081171462 [Eh]

	 ================> DF-SCS-MP2 Energies <==================
	-----------------------------------------------------------
	 SCS Same-Spin Scale       =       0.3333333333333333 [-]
	 SCS Opposite-Spin Scale   =       1.2000000000000000 [-]
	 SCS Same-Spin Energy      =      -0.0771540807492434 [Eh]
	 SCS Opposite-Spin Energy  =      -0.8514560131743270 [Eh]
	 SCS Correlation Energy    =      -0.9286100939235703 [Eh]
	 SCS Total Energy          =    -552.3085002821477474 [Eh]
	-----------------------------------------------------------

  Dipole Moment: [D]
     X:    -0.4420      Y:     0.0032      Z:     0.0000     Total:     0.4420

*** Psi4 exiting successfully. Buy a developer a beer!
