                               Psi4 1.3.2 release

  ==> Input File <==

--------------------------------------------------------------------------
#psi4
#
memory 32 gb

molecule  {
0 1
  S        1.1915130     0.0000000    -0.0000490
  C       -1.2740110     0.7100150     0.0000760
  C       -1.2740120    -0.7100150     0.0000280
  C        0.0419098     1.2761820     0.0000199
  C       -0.0019290    -1.2352840    -0.0000200
  H       -2.1689880     1.3232550     0.0001320
  H       -2.1689890    -1.3232540     0.0000440
  H        0.2925210     2.2768120     0.0000270
  H        0.2925210    -2.2768120    -0.0000490
units angstrom
no_reorient  #important for SAPT in psi4, default
symmetry c1  #important for SAPT in psi4, default
}

set PROPERTIES_ORIGIN ["COM"]
properties('MP2/aug-cc-pvtz', properties = ['dipole'])
--------------------------------------------------------------------------

    Molecular point group: c1
  Charge       = 0
  Multiplicity = 1
  Basis Set: AUG-CC-PVTZ
    Blend: AUG-CC-PVTZ
  Basis Set: (AUG-CC-PVTZ AUX)
    Blend: AUG-CC-PVTZ-JKFIT

    Orbital Energies [Eh]
    ---------------------

    Doubly Occupied:

       1A    -91.989219     2A    -11.266765     3A    -11.265463
       4A    -11.248007     5A    -11.242078     6A     -8.989113
       7A     -6.670071     8A     -6.669676     9A     -6.668996
      10A     -1.164895    11A     -0.988346    12A     -0.975584
      13A     -0.775421    14A     -0.750512    15A     -0.694184
      16A     -0.577883    17A     -0.556024    18A     -0.530779
      19A     -0.519743    20A     -0.471527    21A     -0.346902
      22A     -0.320731

  @DF-RHF Final Energy:  -551.37287913877685

   => Energetics <=

    Nuclear Repulsion Energy =            201.6918288297426614
    One-Electron Energy =               -1156.7655783515265284
    Two-Electron Energy =                 403.7008703830069862
    Total Energy =                       -551.3728791387768524
  Basis Set: (AUG-CC-PVTZ AUX)
    Blend: AUG-CC-PVTZ-RI
    Molecular point group: c1

    Geometry (in Angstrom), charge = 0, multiplicity = 1:

       Center              X                  Y                   Z               Mass
    ------------   -----------------  -----------------  -----------------  -----------------
         S            1.141320607261    -0.005842348946    -0.000047040240    31.972071174400
         C           -1.324203392739     0.704172651054     0.000077959760    12.000000000000
         C           -1.324204392739    -0.715857348946     0.000029959760    12.000000000000
         C           -0.008282592739     1.270339651054     0.000021859760    12.000000000000
         C           -0.052121392739    -1.241126348946    -0.000018040240    12.000000000000
         H           -2.219180392739     1.317412651054     0.000133959760     1.007825032230
         H           -2.219181392739    -1.329096348946     0.000045959760     1.007825032230
         H            0.242328607261     2.270969651054     0.000028959760     1.007825032230
         H            0.242328607261    -2.282654348946    -0.000047040240     1.007825032230

  Basis Set: AUG-CC-PVTZ
    Blend: AUG-CC-PVTZ
  Basis Set: (AUG-CC-PVTZ AUX)
    Blend: AUG-CC-PVTZ-JKFIT
	 Reference Energy          =    -551.3728791387768524 [Eh]
	 Singles Energy            =      -0.0000000000000000 [Eh]
	 Same-Spin Energy          =      -0.2323264148604586 [Eh]
	 Opposite-Spin Energy      =      -0.7110593215203680 [Eh]
	 Correlation Energy        =      -0.9433857363808266 [Eh]
	 Total Energy              =    -552.3162648751576853 [Eh]

	 ================> DF-SCS-MP2 Energies <==================
	-----------------------------------------------------------
	 SCS Same-Spin Scale       =       0.3333333333333333 [-]
	 SCS Opposite-Spin Scale   =       1.2000000000000000 [-]
	 SCS Same-Spin Energy      =      -0.0774421382868195 [Eh]
	 SCS Opposite-Spin Energy  =      -0.8532711858244416 [Eh]
	 SCS Correlation Energy    =      -0.9307133241112612 [Eh]
	 SCS Total Energy          =    -552.3035924628881048 [Eh]
	-----------------------------------------------------------

  Dipole Moment: [D]
     X:    -0.4365      Y:    -0.0487      Z:     0.0000     Total:     0.4392

*** Psi4 exiting successfully. Buy a developer a beer!
