                               Psi4 1.3.2 release

  ==> Input File <==

--------------------------------------------------------------------------
#psi4
#
memory 32 gb

molecule  {
0 1
  S        1.1915130     0.0000000    -0.0000490
  C       -1.2740110     0.7100150     0.0000760
  C       -1.2740121    -0.8100150     0.0000246
  C       -0.0019280     1.2352840     0.0000210
  C       -0.0019290    -1.2352840    -0.0000200
  H       -2.1689880     1.3232550     0.0001320
  H       -2.1689890    -1.3232540     0.0000440
  H        0.2925210     2.2768120     0.0000270
  H        0.2925210    -2.2768120    -0.0000490
units angstrom
no_reorient  #important for SAPT in psi4, default
symmetry c1  #important for SAPT in psi4, default
}

set PROPERTIES_ORIGIN ["COM"]
properties('MP2/aug-cc-pvtz', properties = ['dipole'])
--------------------------------------------------------------------------

    Molecular point group: c1
  Charge       = 0
  Multiplicity = 1
  Basis Set: AUG-CC-PVTZ
    Blend: AUG-CC-PVTZ
  Basis Set: (AUG-CC-PVTZ AUX)
    Blend: AUG-CC-PVTZ-JKFIT

    Orbital Energies [Eh]
    ---------------------

    Doubly Occupied:

       1A    -91.983376     2A    -11.264548     3A    -11.262362
       4A    -11.248126     5A    -11.241316     6A     -8.984108
       7A     -6.665196     8A     -6.664575     9A     -6.663793
      10A     -1.163939    11A     -0.992282    12A     -0.973739
      13A     -0.762783    14A     -0.757590    15A     -0.698344
      16A     -0.588147    17A     -0.537644    18A     -0.524560
      19A     -0.519108    20A     -0.475666    21A     -0.342891
      22A     -0.333505

  @DF-RHF Final Energy:  -551.37247276253186

   => Energetics <=

    Nuclear Repulsion Energy =            201.5557276823326731
    One-Electron Energy =               -1156.5612059045865863
    Two-Electron Energy =                 403.6330054597221419
    Total Energy =                       -551.3724727625317428
  Basis Set: (AUG-CC-PVTZ AUX)
    Blend: AUG-CC-PVTZ-RI
    Molecular point group: c1

    Geometry (in Angstrom), charge = 0, multiplicity = 1:

       Center              X                  Y                   Z               Mass
    ------------   -----------------  -----------------  -----------------  -----------------
         S            1.147582913069     0.014285128960    -0.000046711682    31.972071174400
         C           -1.317941086931     0.724300128960     0.000078288318    12.000000000000
         C           -1.317942186931    -0.795729871040     0.000026888318    12.000000000000
         C           -0.045858086931     1.249569128960     0.000023288318    12.000000000000
         C           -0.045859086931    -1.220998871040    -0.000017711682    12.000000000000
         H           -2.212918086931     1.337540128960     0.000134288318     1.007825032230
         H           -2.212919086931    -1.308968871040     0.000046288318     1.007825032230
         H            0.248590913069     2.291097128960     0.000029288318     1.007825032230
         H            0.248590913069    -2.262526871040    -0.000046711682     1.007825032230

  Basis Set: AUG-CC-PVTZ
    Blend: AUG-CC-PVTZ
  Basis Set: (AUG-CC-PVTZ AUX)
    Blend: AUG-CC-PVTZ-JKFIT
	 Reference Energy          =    -551.3724727625318565 [Eh]
	 Singles Energy            =      -0.0000000000000000 [Eh]
	 Same-Spin Energy          =      -0.2294051267551135 [Eh]
	 Opposite-Spin Energy      =      -0.7083655994349308 [Eh]
	 Correlation Energy        =      -0.9377707261900443 [Eh]
	 Total Energy              =    -552.3102434887218806 [Eh]

	 ================> DF-SCS-MP2 Energies <==================
	-----------------------------------------------------------
	 SCS Same-Spin Scale       =       0.3333333333333333 [-]
	 SCS Opposite-Spin Scale   =       1.2000000000000000 [-]
	 SCS Same-Spin Energy      =      -0.0764683755850378 [Eh]
	 SCS Opposite-Spin Energy  =      -0.8500387193219170 [Eh]
	 SCS Correlation Energy    =      -0.9265070949069548 [Eh]
	 SCS Total Energy          =    -552.2989798574387805 [Eh]
	-----------------------------------------------------------

  Dipole Moment: [D]
     X:    -0.4926      Y:     0.0060      Z:     0.0000     Total:     0.4927

*** Psi4 exiting successfully. Buy a developer a beer!
