                               Psi4 1.3.2 release

  ==> Input File <==

--------------------------------------------------------------------------
#psi4
#
memory 32 gb

molecule  {
0 1
  S        1.1915130     0.0000000    -0.0000490
  C       -1.2740110     0.7100150     0.0000760
  C       -1.1749557    -0.7065559     0.0000242
  C       -0.0019280     1.2352840     0.0000210
  C       -0.0019290    -1.2352840    -0.0000200
  H       -2.1689880     1.3232550     0.0001320
  H       -2.1689890    -1.3232540     0.0000440
  H        0.2925210     2.2768120     0.0000270
  H        0.2925210    -2.2768120    -0.0000490
units angstrom
no_reorient  #important for SAPT in psi4, default
symmetry c1  #important for SAPT in psi4, default
}

set PROPERTIES_ORIGIN ["COM"]
properties('MP2/aug-cc-pvtz', properties = ['dipole'])
--------------------------------------------------------------------------

    Molecular point group: c1
  Charge       = 0
  Multiplicity = 1
  Basis Set: AUG-CC-PVTZ
    Blend: AUG-CC-PVTZ
  Basis Set: (AUG-CC-PVTZ AUX)
    Blend: AUG-CC-PVTZ-JKFIT

    Orbital Energies [Eh]
    ---------------------

    Doubly Occupied:

       1A    -91.980678     2A    -11.265798     3A    -11.251785
       4A    -11.239981     5A    -11.236756     6A     -8.981687
       7A     -6.662677     8A     -6.662236     9A     -6.661394
      10A     -1.183439    11A     -0.995328    12A     -0.981242
      13A     -0.770510    14A     -0.744661    15A     -0.691674
      16A     -0.588881    17A     -0.549187    18A     -0.531488
      19A     -0.515045    20A     -0.466517    21A     -0.349105
      22A     -0.335375

  @DF-RHF Final Energy:  -551.36872975791061

   => Energetics <=

    Nuclear Repulsion Energy =            204.2282585834829547
    One-Electron Energy =               -1161.9030875376463428
    Two-Electron Energy =                 406.3060991962527169
    Total Energy =                       -551.3687297579106144
  Basis Set: (AUG-CC-PVTZ AUX)
    Blend: AUG-CC-PVTZ-RI
    Molecular point group: c1

    Geometry (in Angstrom), charge = 0, multiplicity = 1:

       Center              X                  Y                   Z               Mass
    ------------   -----------------  -----------------  -----------------  -----------------
         S            1.133432566701    -0.000494149308    -0.000046654541    31.972071174400
         C           -1.332091433299     0.709520850692     0.000078345459    12.000000000000
         C           -1.233036133299    -0.707050049308     0.000026545459    12.000000000000
         C           -0.060008433299     1.234789850692     0.000023345459    12.000000000000
         C           -0.060009433299    -1.235778149308    -0.000017654541    12.000000000000
         H           -2.227068433299     1.322760850692     0.000134345459     1.007825032230
         H           -2.227069433299    -1.323748149308     0.000046345459     1.007825032230
         H            0.234440566701     2.276317850692     0.000029345459     1.007825032230
         H            0.234440566701    -2.277306149308    -0.000046654541     1.007825032230

  Basis Set: AUG-CC-PVTZ
    Blend: AUG-CC-PVTZ
  Basis Set: (AUG-CC-PVTZ AUX)
    Blend: AUG-CC-PVTZ-JKFIT
	 Reference Energy          =    -551.3687297579106144 [Eh]
	 Singles Energy            =      -0.0000000000000000 [Eh]
	 Same-Spin Energy          =      -0.2304845640279004 [Eh]
	 Opposite-Spin Energy      =      -0.7080627220775615 [Eh]
	 Correlation Energy        =      -0.9385472861054619 [Eh]
	 Total Energy              =    -552.3072770440161321 [Eh]

	 ================> DF-SCS-MP2 Energies <==================
	-----------------------------------------------------------
	 SCS Same-Spin Scale       =       0.3333333333333333 [-]
	 SCS Opposite-Spin Scale   =       1.2000000000000000 [-]
	 SCS Same-Spin Energy      =      -0.0768281880093001 [Eh]
	 SCS Opposite-Spin Energy  =      -0.8496752664930738 [Eh]
	 SCS Correlation Energy    =      -0.9265034545023739 [Eh]
	 SCS Total Energy          =    -552.2952332124129953 [Eh]
	-----------------------------------------------------------

  Dipole Moment: [D]
     X:    -0.5099      Y:    -0.0017      Z:     0.0000     Total:     0.5099

*** Psi4 exiting successfully. Buy a developer a beer!
