                               Psi4 1.3.2 release

  ==> Input File <==

--------------------------------------------------------------------------
#psi4
#
memory 32 gb

molecule  {
0 1
  S        1.1915130     0.0000000    -0.0000490
  C       -1.2740110     0.7100150     0.0000760
  C       -1.2740120    -0.7100150     0.0000280
  C       -0.0019280     1.2352840     0.0000210
  C       -0.0019290    -1.2352840    -0.0000200
  H       -2.1689880     1.3232550     0.0001320
  H       -2.1689890    -1.3232540     0.0000440
  H        0.2381118     2.0843552     0.0000259
  H        0.2925210    -2.2768120    -0.0000490
units angstrom
no_reorient  #important for SAPT in psi4, default
symmetry c1  #important for SAPT in psi4, default
}

set PROPERTIES_ORIGIN ["COM"]
properties('MP2/aug-cc-pvtz', properties = ['dipole'])
--------------------------------------------------------------------------

    Molecular point group: c1
  Charge       = 0
  Multiplicity = 1
  Basis Set: AUG-CC-PVTZ
    Blend: AUG-CC-PVTZ
  Basis Set: (AUG-CC-PVTZ AUX)
    Blend: AUG-CC-PVTZ-JKFIT

    Orbital Energies [Eh]
    ---------------------

    Doubly Occupied:

       1A    -91.985373     2A    -11.264295     3A    -11.242088
       4A    -11.240734     5A    -11.239785     6A     -8.985776
       7A     -6.666786     8A     -6.666288     9A     -6.665600
      10A     -1.171970    11A     -0.996059    12A     -0.985278
      13A     -0.800872    14A     -0.754430    15A     -0.702031
      16A     -0.587501    17A     -0.556913    18A     -0.531270
      19A     -0.522669    20A     -0.475145    21A     -0.346685
      22A     -0.326293

  @DF-RHF Final Energy:  -551.34367781348533

   => Energetics <=

    Nuclear Repulsion Energy =            203.6240900837101151
    One-Electron Energy =               -1160.5078522478170271
    Two-Electron Energy =                 405.5400843506215551
    Total Energy =                       -551.3436778134853284
  Basis Set: (AUG-CC-PVTZ AUX)
    Blend: AUG-CC-PVTZ-RI
    Molecular point group: c1

    Geometry (in Angstrom), charge = 0, multiplicity = 1:

       Center              X                  Y                   Z               Mass
    ------------   -----------------  -----------------  -----------------  -----------------
         S            1.148235669653     0.002308976055    -0.000047184180    31.972071174400
         C           -1.317288330347     0.712323976055     0.000077815820    12.000000000000
         C           -1.317289330347    -0.707706023945     0.000029815820    12.000000000000
         C           -0.045205330347     1.237592976055     0.000022815820    12.000000000000
         C           -0.045206330347    -1.232975023945    -0.000018184180    12.000000000000
         H           -2.212265330347     1.325563976055     0.000133815820     1.007825032230
         H           -2.212266330347    -1.320945023945     0.000045815820     1.007825032230
         H            0.194834469653     2.086664176055     0.000027715820     1.007825032230
         H            0.249243669653    -2.274503023945    -0.000047184180     1.007825032230

  Basis Set: AUG-CC-PVTZ
    Blend: AUG-CC-PVTZ
  Basis Set: (AUG-CC-PVTZ AUX)
    Blend: AUG-CC-PVTZ-JKFIT
	 Reference Energy          =    -551.3436778134853284 [Eh]
	 Singles Energy            =      -0.0000000000000000 [Eh]
	 Same-Spin Energy          =      -0.2312972906292422 [Eh]
	 Opposite-Spin Energy      =      -0.7094796856185827 [Eh]
	 Correlation Energy        =      -0.9407769762478249 [Eh]
	 Total Energy              =    -552.2844547897331040 [Eh]

	 ================> DF-SCS-MP2 Energies <==================
	-----------------------------------------------------------
	 SCS Same-Spin Scale       =       0.3333333333333333 [-]
	 SCS Opposite-Spin Scale   =       1.2000000000000000 [-]
	 SCS Same-Spin Energy      =      -0.0770990968764141 [Eh]
	 SCS Opposite-Spin Energy  =      -0.8513756227422992 [Eh]
	 SCS Correlation Energy    =      -0.9284747196187132 [Eh]
	 SCS Total Energy          =    -552.2721525331040766 [Eh]
	-----------------------------------------------------------

  Dipole Moment: [D]
     X:    -0.4523      Y:    -0.0310      Z:     0.0000     Total:     0.4534

*** Psi4 exiting successfully. Buy a developer a beer!
