                               Psi4 1.3.2 release

  ==> Input File <==

--------------------------------------------------------------------------
#psi4
#
memory 32 gb

molecule  {
0 1
  S        1.1915130     0.0000000    -0.0000490
  C       -1.2740110     0.7100150     0.0000760
  C       -1.2740120    -0.7100150     0.0000280
  C       -0.0112890     1.2574049     0.0000219
  C       -0.0019290    -1.2352840    -0.0000200
  H       -2.1689880     1.3232550     0.0001320
  H       -2.1689890    -1.3232540     0.0000440
  H        0.2925210     2.2768120     0.0000270
  H        0.2925210    -2.2768120    -0.0000490
units angstrom
no_reorient  #important for SAPT in psi4, default
symmetry c1  #important for SAPT in psi4, default
}

set PROPERTIES_ORIGIN ["COM"]
properties('MP2/aug-cc-pvtz', properties = ['dipole'])
--------------------------------------------------------------------------

    Molecular point group: c1
  Charge       = 0
  Multiplicity = 1
  Basis Set: AUG-CC-PVTZ
    Blend: AUG-CC-PVTZ
  Basis Set: (AUG-CC-PVTZ AUX)
    Blend: AUG-CC-PVTZ-JKFIT

    Orbital Energies [Eh]
    ---------------------

    Doubly Occupied:

       1A    -91.985592     2A    -11.265516     3A    -11.264573
       4A    -11.242348     5A    -11.240908     6A     -8.985562
       7A     -6.666534     8A     -6.666048     9A     -6.665366
      10A     -1.167884    11A     -0.984602    12A     -0.981936
      13A     -0.769519    14A     -0.751058    15A     -0.696414
      16A     -0.577156    17A     -0.555552    18A     -0.525913
      19A     -0.521225    20A     -0.472187    21A     -0.346866
      22A     -0.326462

  @DF-RHF Final Energy:  -551.37937937377808

   => Energetics <=

    Nuclear Repulsion Energy =            202.0248226431324383
    One-Electron Energy =               -1157.4899619064678973
    Two-Electron Energy =                 404.0857598895573801
    Total Energy =                       -551.3793793737780788
  Basis Set: (AUG-CC-PVTZ AUX)
    Blend: AUG-CC-PVTZ-RI
    Molecular point group: c1

    Geometry (in Angstrom), charge = 0, multiplicity = 1:

       Center              X                  Y                   Z               Mass
    ------------   -----------------  -----------------  -----------------  -----------------
         S            1.148920130828    -0.003160013744    -0.000047325943    31.972071174400
         C           -1.316603869172     0.706854986256     0.000077674057    12.000000000000
         C           -1.316604869172    -0.713175013744     0.000029674057    12.000000000000
         C           -0.053881869172     1.254244886256     0.000023574057    12.000000000000
         C           -0.044521869172    -1.238444013744    -0.000018325943    12.000000000000
         H           -2.211580869172     1.320094986256     0.000133674057     1.007825032230
         H           -2.211581869172    -1.326414013744     0.000045674057     1.007825032230
         H            0.249928130828     2.273651986256     0.000028674057     1.007825032230
         H            0.249928130828    -2.279972013744    -0.000047325943     1.007825032230

  Basis Set: AUG-CC-PVTZ
    Blend: AUG-CC-PVTZ
  Basis Set: (AUG-CC-PVTZ AUX)
    Blend: AUG-CC-PVTZ-JKFIT
	 Reference Energy          =    -551.3793793737780788 [Eh]
	 Singles Energy            =      -0.0000000000000000 [Eh]
	 Same-Spin Energy          =      -0.2312730264665855 [Eh]
	 Opposite-Spin Energy      =      -0.7096743876743903 [Eh]
	 Correlation Energy        =      -0.9409474141409758 [Eh]
	 Total Energy              =    -552.3203267879190435 [Eh]

	 ================> DF-SCS-MP2 Energies <==================
	-----------------------------------------------------------
	 SCS Same-Spin Scale       =       0.3333333333333333 [-]
	 SCS Opposite-Spin Scale   =       1.2000000000000000 [-]
	 SCS Same-Spin Energy      =      -0.0770910088221952 [Eh]
	 SCS Opposite-Spin Energy  =      -0.8516092652092683 [Eh]
	 SCS Correlation Energy    =      -0.9287002740314634 [Eh]
	 SCS Total Energy          =    -552.3080796478095635 [Eh]
	-----------------------------------------------------------

  Dipole Moment: [D]
     X:    -0.4713      Y:    -0.0001      Z:     0.0000     Total:     0.4713

*** Psi4 exiting successfully. Buy a developer a beer!
