                               Psi4 1.3.2 release

  ==> Input File <==

--------------------------------------------------------------------------
#psi4
#
memory 32 gb

molecule  {
0 1
  S        1.1915130     0.0000000    -0.0000490
  C       -1.2740110     0.7100150     0.0000760
  C       -1.2740120    -0.7100150     0.0000280
  C       -0.0943582     1.1971177     0.0000250
  C       -0.0019290    -1.2352840    -0.0000200
  H       -2.1689880     1.3232550     0.0001320
  H       -2.1689890    -1.3232540     0.0000440
  H        0.2925210     2.2768120     0.0000270
  H        0.2925210    -2.2768120    -0.0000490
units angstrom
no_reorient  #important for SAPT in psi4, default
symmetry c1  #important for SAPT in psi4, default
}

set PROPERTIES_ORIGIN ["COM"]
properties('MP2/aug-cc-pvtz', properties = ['dipole'])
--------------------------------------------------------------------------

    Molecular point group: c1
  Charge       = 0
  Multiplicity = 1
  Basis Set: AUG-CC-PVTZ
    Blend: AUG-CC-PVTZ
  Basis Set: (AUG-CC-PVTZ AUX)
    Blend: AUG-CC-PVTZ-JKFIT

    Orbital Energies [Eh]
    ---------------------

    Doubly Occupied:

       1A    -91.980752     2A    -11.264230     3A    -11.259432
       4A    -11.239616     5A    -11.228502     6A     -8.981115
       7A     -6.662122     8A     -6.661471     9A     -6.660762
      10A     -1.179248    11A     -1.000519    12A     -0.974327
      13A     -0.766993    14A     -0.741636    15A     -0.699512
      16A     -0.577856    17A     -0.554965    18A     -0.528165
      19A     -0.509847    20A     -0.473213    21A     -0.355989
      22A     -0.329561

  @DF-RHF Final Energy:  -551.36921879434624

   => Energetics <=

    Nuclear Repulsion Energy =            203.2425829222105449
    One-Electron Energy =               -1159.9639345596051498
    Two-Electron Energy =                 405.3521328430483663
    Total Energy =                       -551.3692187943462386
  Basis Set: (AUG-CC-PVTZ AUX)
    Blend: AUG-CC-PVTZ-RI
    Molecular point group: c1

    Geometry (in Angstrom), charge = 0, multiplicity = 1:

       Center              X                  Y                   Z               Mass
    ------------   -----------------  -----------------  -----------------  -----------------
         S            1.160786683141     0.005452097756    -0.000047768782    31.972071174400
         C           -1.304737316859     0.715467097756     0.000077231218    12.000000000000
         C           -1.304738316859    -0.704562902244     0.000029231218    12.000000000000
         C           -0.125084516859     1.202569797756     0.000026231218    12.000000000000
         C           -0.032655316859    -1.229831902244    -0.000018768782    12.000000000000
         H           -2.199714316859     1.328707097756     0.000133231218     1.007825032230
         H           -2.199715316859    -1.317801902244     0.000045231218     1.007825032230
         H            0.261794683141     2.282264097756     0.000028231218     1.007825032230
         H            0.261794683141    -2.271359902244    -0.000047768782     1.007825032230

  Basis Set: AUG-CC-PVTZ
    Blend: AUG-CC-PVTZ
  Basis Set: (AUG-CC-PVTZ AUX)
    Blend: AUG-CC-PVTZ-JKFIT
	 Reference Energy          =    -551.3692187943462386 [Eh]
	 Singles Energy            =      -0.0000000000000000 [Eh]
	 Same-Spin Energy          =      -0.2299900966627011 [Eh]
	 Opposite-Spin Energy      =      -0.7082105857145475 [Eh]
	 Correlation Energy        =      -0.9382006823772486 [Eh]
	 Total Energy              =    -552.3074194767234530 [Eh]

	 ================> DF-SCS-MP2 Energies <==================
	-----------------------------------------------------------
	 SCS Same-Spin Scale       =       0.3333333333333333 [-]
	 SCS Opposite-Spin Scale   =       1.2000000000000000 [-]
	 SCS Same-Spin Energy      =      -0.0766633655542337 [Eh]
	 SCS Opposite-Spin Energy  =      -0.8498527028574571 [Eh]
	 SCS Correlation Energy    =      -0.9265160684116908 [Eh]
	 SCS Total Energy          =    -552.2957348627579677 [Eh]
	-----------------------------------------------------------

  Dipole Moment: [D]
     X:    -0.5295      Y:     0.0657      Z:     0.0000     Total:     0.5336

*** Psi4 exiting successfully. Buy a developer a beer!
