                               Psi4 1.4a3.dev225

  ==> Input File <==

--------------------------------------------------------------------------
#psi4
#
memory 32 gb

molecule  {
0 1
  S        1.1915130     0.0000000    -0.0000490
  C       -1.2740110     0.7100150     0.0000760
  C       -1.2740120    -0.7100150     0.0000280
  C       -0.0019280     1.2352840     0.0000210
  C       -0.0019290    -1.2352840    -0.0000200
  H       -2.1277417     1.2949930     0.0001294
  H       -2.1689890    -1.3232540     0.0000440
  H        0.2925210     2.2768120     0.0000270
  H        0.2925210    -2.2768120    -0.0000490
units angstrom
no_reorient  #important for SAPT in psi4, default
symmetry c1  #important for SAPT in psi4, default
}

set PROPERTIES_ORIGIN ["COM"]
properties('MP2/aug-cc-pvtz', properties = ['dipole'])
--------------------------------------------------------------------------

    Molecular point group: c1
  Charge       = 0
  Multiplicity = 1
  Basis Set: AUG-CC-PVTZ
    Blend: AUG-CC-PVTZ
  Basis Set: (AUG-CC-PVTZ AUX)
    Blend: AUG-CC-PVTZ-JKFIT

    Orbital Energies [Eh]
    ---------------------

    Doubly Occupied:

       1A    -91.985906     2A    -11.263859     3A    -11.263800
       4A    -11.240431     5A    -11.234991     6A     -8.986261
       7A     -6.667252     8A     -6.666760     9A     -6.666056
      10A     -1.170420    11A     -0.987978    12A     -0.981633
      13A     -0.766676    14A     -0.755250    15A     -0.700626
      16A     -0.576374    17A     -0.553288    18A     -0.529588
      19A     -0.522710    20A     -0.476099    21A     -0.346897
      22A     -0.325783

  @DF-RHF Final Energy:  -551.37893084082691

   => Energetics <=

    Nuclear Repulsion Energy =            202.7221244336650727
    One-Electron Energy =               -1158.8648329977684170
    Two-Electron Energy =                 404.7637777232764051
    Total Energy =                       -551.3789308408270244
  Basis Set: (AUG-CC-PVTZ AUX)
    Blend: AUG-CC-PVTZ-RI
    Molecular point group: c1

    Geometry (in Angstrom), charge = 0, multiplicity = 1:

       Center              X                  Y                   Z               Mass
    ------------   -----------------  -----------------  -----------------  -----------------
         S            1.147088048958     0.000339059526    -0.000047166183    31.972071174400
         C           -1.318435951042     0.710354059526     0.000077833817    12.000000000000
         C           -1.318436951042    -0.709675940474     0.000029833817    12.000000000000
         C           -0.046352951042     1.235623059526     0.000022833817    12.000000000000
         C           -0.046353951042    -1.234944940474    -0.000018166183    12.000000000000
         H           -2.172166651042     1.295332059526     0.000131233817     1.007825032230
         H           -2.213413951042    -1.322914940474     0.000045833817     1.007825032230
         H            0.248096048958     2.277151059526     0.000028833817     1.007825032230
         H            0.248096048958    -2.276472940474    -0.000047166183     1.007825032230

  Basis Set: AUG-CC-PVTZ
    Blend: AUG-CC-PVTZ
  Basis Set: (AUG-CC-PVTZ AUX)
    Blend: AUG-CC-PVTZ-JKFIT
	 Reference Energy          =    -551.3789308408269108 [Eh]
	 Singles Energy            =      -0.0000000000000000 [Eh]
	 Same-Spin Energy          =      -0.2314222488718070 [Eh]
	 Opposite-Spin Energy      =      -0.7094259949428210 [Eh]
	 Correlation Energy        =      -0.9408482438146279 [Eh]
	 Total Energy              =    -552.3197790846415955 [Eh]

	 ================> DF-SCS-MP2 Energies <==================
	-----------------------------------------------------------
	 SCS Same-Spin Scale       =       0.3333333333333333 [-]
	 SCS Opposite-Spin Scale   =       1.2000000000000000 [-]
	 SCS Same-Spin Energy      =      -0.0771407496239356 [Eh]
	 SCS Opposite-Spin Energy  =      -0.8513111939313852 [Eh]
	 SCS Correlation Energy    =      -0.9284519435553209 [Eh]
	 SCS Total Energy          =    -552.3073827843821846 [Eh]
	-----------------------------------------------------------

  Dipole Moment: [D]
     X:    -0.4463      Y:     0.0073      Z:     0.0000     Total:     0.4464

*** Psi4 exiting successfully. Buy a developer a beer!
