                               Psi4 1.3.2 release

  ==> Input File <==

--------------------------------------------------------------------------
#psi4
#
memory 32 gb

molecule  {
0 1
  S        1.1915130     0.0000000    -0.0000490
  C       -1.2740110     0.7100150     0.0000760
  C       -1.2740120    -0.7100150     0.0000280
  C        0.0316142     1.1452684     0.0000177
  C       -0.0019290    -1.2352840    -0.0000200
  H       -2.1689880     1.3232550     0.0001320
  H       -2.1689890    -1.3232540     0.0000440
  H        0.2925210     2.2768120     0.0000270
  H        0.2925210    -2.2768120    -0.0000490
units angstrom
no_reorient  #important for SAPT in psi4, default
symmetry c1  #important for SAPT in psi4, default
}

set PROPERTIES_ORIGIN ["COM"]
properties('MP2/aug-cc-pvtz', properties = ['dipole'])
--------------------------------------------------------------------------

    Molecular point group: c1
  Charge       = 0
  Multiplicity = 1
  Basis Set: AUG-CC-PVTZ
    Blend: AUG-CC-PVTZ
  Basis Set: (AUG-CC-PVTZ AUX)
    Blend: AUG-CC-PVTZ-JKFIT

    Orbital Energies [Eh]
    ---------------------

    Doubly Occupied:

       1A    -91.987789     2A    -11.263156     3A    -11.258485
       4A    -11.239897     5A    -11.236527     6A     -8.990118
       7A     -6.671302     8A     -6.670516     9A     -6.669779
      10A     -1.182866    11A     -0.997777    12A     -0.974665
      13A     -0.759807    14A     -0.745555    15A     -0.695954
      16A     -0.566369    17A     -0.541711    18A     -0.531483
      19A     -0.528045    20A     -0.486623    21A     -0.349824
      22A     -0.322958

  @DF-RHF Final Energy:  -551.36862616835583

   => Energetics <=

    Nuclear Repulsion Energy =            204.3659675522472696
    One-Electron Energy =               -1162.1267784283422770
    Two-Electron Energy =                 406.3921847077391476
    Total Energy =                       -551.3686261683558314
  Basis Set: (AUG-CC-PVTZ AUX)
    Blend: AUG-CC-PVTZ-RI
    Molecular point group: c1

    Geometry (in Angstrom), charge = 0, multiplicity = 1:

       Center              X                  Y                   Z               Mass
    ------------   -----------------  -----------------  -----------------  -----------------
         S            1.142791348233     0.012858843347    -0.000046725967    31.972071174400
         C           -1.322732651767     0.722873843347     0.000078274033    12.000000000000
         C           -1.322733651767    -0.697156156653     0.000030274033    12.000000000000
         C           -0.017107451767     1.158127243347     0.000019974033    12.000000000000
         C           -0.050650651767    -1.222425156653    -0.000017725967    12.000000000000
         H           -2.217709651767     1.336113843347     0.000134274033     1.007825032230
         H           -2.217710651767    -1.310395156653     0.000046274033     1.007825032230
         H            0.243799348233     2.289670843347     0.000029274033     1.007825032230
         H            0.243799348233    -2.263953156653    -0.000046725967     1.007825032230

  Basis Set: AUG-CC-PVTZ
    Blend: AUG-CC-PVTZ
  Basis Set: (AUG-CC-PVTZ AUX)
    Blend: AUG-CC-PVTZ-JKFIT
	 Reference Energy          =    -551.3686261683558314 [Eh]
	 Singles Energy            =      -0.0000000000000000 [Eh]
	 Same-Spin Energy          =      -0.2326893832814190 [Eh]
	 Opposite-Spin Energy      =      -0.7102689243837392 [Eh]
	 Correlation Energy        =      -0.9429583076651582 [Eh]
	 Total Energy              =    -552.3115844760210393 [Eh]

	 ================> DF-SCS-MP2 Energies <==================
	-----------------------------------------------------------
	 SCS Same-Spin Scale       =       0.3333333333333333 [-]
	 SCS Opposite-Spin Scale   =       1.2000000000000000 [-]
	 SCS Same-Spin Energy      =      -0.0775631277604730 [Eh]
	 SCS Opposite-Spin Energy  =      -0.8523227092604870 [Eh]
	 SCS Correlation Energy    =      -0.9298858370209601 [Eh]
	 SCS Total Energy          =    -552.2985120053767787 [Eh]
	-----------------------------------------------------------

  Dipole Moment: [D]
     X:    -0.3145      Y:     0.0021      Z:     0.0000     Total:     0.3145

*** Psi4 exiting successfully. Buy a developer a beer!
