                               Psi4 1.3.2 release

  ==> Input File <==

--------------------------------------------------------------------------
#psi4
#
memory 32 gb

molecule  {
0 1
  S        1.1915130     0.0000000    -0.0000490
  C       -1.2740110     0.7100150     0.0000760
  C       -1.2740120    -0.7100150     0.0000280
  C       -0.0638022     1.3653754     0.0000264
  C       -0.0019290    -1.2352840    -0.0000200
  H       -2.1689880     1.3232550     0.0001320
  H       -2.1689890    -1.3232540     0.0000440
  H        0.2925210     2.2768120     0.0000270
  H        0.2925210    -2.2768120    -0.0000490
units angstrom
no_reorient  #important for SAPT in psi4, default
symmetry c1  #important for SAPT in psi4, default
}

set PROPERTIES_ORIGIN ["COM"]
properties('MP2/aug-cc-pvtz', properties = ['dipole'])
--------------------------------------------------------------------------

    Molecular point group: c1
  Charge       = 0
  Multiplicity = 1
  Basis Set: AUG-CC-PVTZ
    Blend: AUG-CC-PVTZ
  Basis Set: (AUG-CC-PVTZ AUX)
    Blend: AUG-CC-PVTZ-JKFIT

    Orbital Energies [Eh]
    ---------------------

    Doubly Occupied:

       1A    -91.981220     2A    -11.272344     3A    -11.268469
       4A    -11.250134     5A    -11.242691     6A     -8.979917
       7A     -6.660873     8A     -6.660239     9A     -6.659710
      10A     -1.157954    11A     -0.992491    12A     -0.972342
      13A     -0.790072    14A     -0.753194    15A     -0.696194
      16A     -0.598024    17A     -0.564288    18A     -0.515420
      19A     -0.514117    20A     -0.450124    21A     -0.348690
      22A     -0.326523

  @DF-RHF Final Energy:  -551.36005492562231

   => Energetics <=

    Nuclear Repulsion Energy =            199.9359992956213148
    One-Electron Energy =               -1153.2820510665249003
    Two-Electron Energy =                 401.9859968452813064
    Total Energy =                       -551.3600549256223076
  Basis Set: (AUG-CC-PVTZ AUX)
    Blend: AUG-CC-PVTZ-RI
    Molecular point group: c1

    Geometry (in Angstrom), charge = 0, multiplicity = 1:

       Center              X                  Y                   Z               Mass
    ------------   -----------------  -----------------  -----------------  -----------------
         S            1.156421715470    -0.018583751861    -0.000047968774    31.972071174400
         C           -1.309102284530     0.691431248139     0.000077031226    12.000000000000
         C           -1.309103284530    -0.728598751861     0.000029031226    12.000000000000
         C           -0.098893484530     1.346791648139     0.000027431226    12.000000000000
         C           -0.037020284530    -1.253867751861    -0.000018968774    12.000000000000
         H           -2.204079284530     1.304671248139     0.000133031226     1.007825032230
         H           -2.204080284530    -1.341837751861     0.000045031226     1.007825032230
         H            0.257429715470     2.258228248139     0.000028031226     1.007825032230
         H            0.257429715470    -2.295395751861    -0.000047968774     1.007825032230

  Basis Set: AUG-CC-PVTZ
    Blend: AUG-CC-PVTZ
  Basis Set: (AUG-CC-PVTZ AUX)
    Blend: AUG-CC-PVTZ-JKFIT
	 Reference Energy          =    -551.3600549256223076 [Eh]
	 Singles Energy            =      -0.0000000000000000 [Eh]
	 Same-Spin Energy          =      -0.2306433800914061 [Eh]
	 Opposite-Spin Energy      =      -0.7107267175908849 [Eh]
	 Correlation Energy        =      -0.9413700976822910 [Eh]
	 Total Energy              =    -552.3014250233045459 [Eh]

	 ================> DF-SCS-MP2 Energies <==================
	-----------------------------------------------------------
	 SCS Same-Spin Scale       =       0.3333333333333333 [-]
	 SCS Opposite-Spin Scale   =       1.2000000000000000 [-]
	 SCS Same-Spin Energy      =      -0.0768811266971354 [Eh]
	 SCS Opposite-Spin Energy  =      -0.8528720611090619 [Eh]
	 SCS Correlation Energy    =      -0.9297531878061973 [Eh]
	 SCS Total Energy          =    -552.2898081134285349 [Eh]
	-----------------------------------------------------------

  Dipole Moment: [D]
     X:    -0.6470      Y:     0.0092      Z:     0.0000     Total:     0.6471

*** Psi4 exiting successfully. Buy a developer a beer!
