                               Psi4 1.3.2 release

  ==> Input File <==

--------------------------------------------------------------------------
#psi4
#
memory 32 gb

molecule  {
0 1
  S        1.1915130     0.0000000    -0.0000490
  C       -1.2915677     0.7547300     0.0000778
  C       -1.2740120    -0.7100150     0.0000280
  C       -0.0019280     1.2352840     0.0000210
  C       -0.0019290    -1.2352840    -0.0000200
  H       -2.1689880     1.3232550     0.0001320
  H       -2.1689890    -1.3232540     0.0000440
  H        0.2925210     2.2768120     0.0000270
  H        0.2925210    -2.2768120    -0.0000490
units angstrom
no_reorient  #important for SAPT in psi4, default
symmetry c1  #important for SAPT in psi4, default
}

set PROPERTIES_ORIGIN ["COM"]
properties('MP2/aug-cc-pvtz', properties = ['dipole'])
--------------------------------------------------------------------------

    Molecular point group: c1
  Charge       = 0
  Multiplicity = 1
  Basis Set: AUG-CC-PVTZ
    Blend: AUG-CC-PVTZ
  Basis Set: (AUG-CC-PVTZ AUX)
    Blend: AUG-CC-PVTZ-JKFIT

    Orbital Energies [Eh]
    ---------------------

    Doubly Occupied:

       1A    -91.985816     2A    -11.265545     3A    -11.264119
       4A    -11.244863     5A    -11.241766     6A     -8.986246
       7A     -6.667279     8A     -6.666723     9A     -6.665999
      10A     -1.165345    11A     -0.985289    12A     -0.979856
      13A     -0.764030    14A     -0.755650    15A     -0.697450
      16A     -0.580118    17A     -0.540531    18A     -0.532861
      19A     -0.519891    20A     -0.477241    21A     -0.343640
      22A     -0.328780

  @DF-RHF Final Energy:  -551.37771792684612

   => Energetics <=

    Nuclear Repulsion Energy =            201.7619217904222921
    One-Electron Energy =               -1156.9612040552535746
    Two-Electron Energy =                 403.8215643379850803
    Total Energy =                       -551.3777179268461168
  Basis Set: (AUG-CC-PVTZ AUX)
    Blend: AUG-CC-PVTZ-RI
    Molecular point group: c1

    Geometry (in Angstrom), charge = 0, multiplicity = 1:

       Center              X                  Y                   Z               Mass
    ------------   -----------------  -----------------  -----------------  -----------------
         S            1.150090898126    -0.006387612777    -0.000047454509    31.972071174400
         C           -1.332989801874     0.748342387223     0.000079345491    12.000000000000
         C           -1.315434101874    -0.716402612777     0.000029545491    12.000000000000
         C           -0.043350101874     1.228896387223     0.000022545491    12.000000000000
         C           -0.043351101874    -1.241671612777    -0.000018454509    12.000000000000
         H           -2.210410101874     1.316867387223     0.000133545491     1.007825032230
         H           -2.210411101874    -1.329641612777     0.000045545491     1.007825032230
         H            0.251098898126     2.270424387223     0.000028545491     1.007825032230
         H            0.251098898126    -2.283199612777    -0.000047454509     1.007825032230

  Basis Set: AUG-CC-PVTZ
    Blend: AUG-CC-PVTZ
  Basis Set: (AUG-CC-PVTZ AUX)
    Blend: AUG-CC-PVTZ-JKFIT
	 Reference Energy          =    -551.3777179268461168 [Eh]
	 Singles Energy            =      -0.0000000000000000 [Eh]
	 Same-Spin Energy          =      -0.2307108063144425 [Eh]
	 Opposite-Spin Energy      =      -0.7093289190719543 [Eh]
	 Correlation Energy        =      -0.9400397253863968 [Eh]
	 Total Energy              =    -552.3177576522325580 [Eh]

	 ================> DF-SCS-MP2 Energies <==================
	-----------------------------------------------------------
	 SCS Same-Spin Scale       =       0.3333333333333333 [-]
	 SCS Opposite-Spin Scale   =       1.2000000000000000 [-]
	 SCS Same-Spin Energy      =      -0.0769036021048141 [Eh]
	 SCS Opposite-Spin Energy  =      -0.8511947028863451 [Eh]
	 SCS Correlation Energy    =      -0.9280983049911593 [Eh]
	 SCS Total Energy          =    -552.3058162318372979 [Eh]
	-----------------------------------------------------------

  Dipole Moment: [D]
     X:    -0.4437      Y:    -0.0065      Z:     0.0000     Total:     0.4438

*** Psi4 exiting successfully. Buy a developer a beer!
