                               Psi4 1.3.2 release

  ==> Input File <==

--------------------------------------------------------------------------
#psi4
#
memory 32 gb

molecule  {
0 1
  S        1.1915130     0.0000000    -0.0000490
  C       -1.2740110     0.7100150     0.0000760
  C       -1.2987949    -0.7097987     0.0000294
  C       -0.0019280     1.2352840     0.0000210
  C       -0.0019290    -1.2352840    -0.0000200
  H       -2.1689880     1.3232550     0.0001320
  H       -2.1689890    -1.3232540     0.0000440
  H        0.2925210     2.2768120     0.0000270
  H        0.2925210    -2.2768120    -0.0000490
units angstrom
no_reorient  #important for SAPT in psi4, default
symmetry c1  #important for SAPT in psi4, default
}

set PROPERTIES_ORIGIN ["COM"]
properties('MP2/aug-cc-pvtz', properties = ['dipole'])
--------------------------------------------------------------------------

    Molecular point group: c1
  Charge       = 0
  Multiplicity = 1
  Basis Set: AUG-CC-PVTZ
    Blend: AUG-CC-PVTZ
  Basis Set: (AUG-CC-PVTZ AUX)
    Blend: AUG-CC-PVTZ-JKFIT

    Orbital Energies [Eh]
    ---------------------

    Doubly Occupied:

       1A    -91.987695     2A    -11.267162     3A    -11.263752
       4A    -11.242203     5A    -11.241005     6A     -8.987880
       7A     -6.668865     8A     -6.668364     9A     -6.667688
      10A     -1.167762    11A     -0.987503    12A     -0.978177
      13A     -0.765898    14A     -0.752754    15A     -0.696765
      16A     -0.573536    17A     -0.552240    18A     -0.528770
      19A     -0.521356    20A     -0.477226    21A     -0.347410
      22A     -0.323199

  @DF-RHF Final Energy:  -551.37798221380547

   => Energetics <=

    Nuclear Repulsion Energy =            202.0633543165463095
    One-Electron Energy =               -1157.5482508727911863
    Two-Electron Energy =                 404.1069143424394383
    Total Energy =                       -551.3779822138053532
  Basis Set: (AUG-CC-PVTZ AUX)
    Blend: AUG-CC-PVTZ-RI
    Molecular point group: c1

    Geometry (in Angstrom), charge = 0, multiplicity = 1:

       Center              X                  Y                   Z               Mass
    ------------   -----------------  -----------------  -----------------  -----------------
         S            1.151123170982    -0.000030910757    -0.000047397369    31.972071174400
         C           -1.314400829018     0.709984089243     0.000077602631    12.000000000000
         C           -1.339184729018    -0.709829610757     0.000031002631    12.000000000000
         C           -0.042317829018     1.235253089243     0.000022602631    12.000000000000
         C           -0.042318829018    -1.235314910757    -0.000018397369    12.000000000000
         H           -2.209377829018     1.323224089243     0.000133602631     1.007825032230
         H           -2.209378829018    -1.323284910757     0.000045602631     1.007825032230
         H            0.252131170982     2.276781089243     0.000028602631     1.007825032230
         H            0.252131170982    -2.276842910757    -0.000047397369     1.007825032230

  Basis Set: AUG-CC-PVTZ
    Blend: AUG-CC-PVTZ
  Basis Set: (AUG-CC-PVTZ AUX)
    Blend: AUG-CC-PVTZ-JKFIT
	 Reference Energy          =    -551.3779822138054669 [Eh]
	 Singles Energy            =      -0.0000000000000000 [Eh]
	 Same-Spin Energy          =      -0.2318431065584976 [Eh]
	 Opposite-Spin Energy      =      -0.7102655911997495 [Eh]
	 Correlation Energy        =      -0.9421086977582471 [Eh]
	 Total Energy              =    -552.3200909115637387 [Eh]

	 ================> DF-SCS-MP2 Energies <==================
	-----------------------------------------------------------
	 SCS Same-Spin Scale       =       0.3333333333333333 [-]
	 SCS Opposite-Spin Scale   =       1.2000000000000000 [-]
	 SCS Same-Spin Energy      =      -0.0772810355194992 [Eh]
	 SCS Opposite-Spin Energy  =      -0.8523187094396995 [Eh]
	 SCS Correlation Energy    =      -0.9295997449591986 [Eh]
	 SCS Total Energy          =    -552.3075819587646720 [Eh]
	-----------------------------------------------------------

  Dipole Moment: [D]
     X:    -0.4165      Y:     0.0047      Z:     0.0000     Total:     0.4165

*** Psi4 exiting successfully. Buy a developer a beer!
