                               Psi4 1.4a3.dev225

  ==> Input File <==

--------------------------------------------------------------------------
#psi4
#
memory 32 gb

molecule  {
0 1
  S        1.1915130     0.0000000    -0.0000490
  C       -1.2740110     0.7100150     0.0000760
  C       -1.2740120    -0.7100150     0.0000280
  C       -0.0019280     1.2352840     0.0000210
  C       -0.0019290    -1.2352840    -0.0000200
  H       -2.1689880     1.3232550     0.0001320
  H       -2.1689890    -1.3232540     0.0000440
  H        0.2789187     2.2286978     0.0000267
  H        0.2925210    -2.2768120    -0.0000490
units angstrom
no_reorient  #important for SAPT in psi4, default
symmetry c1  #important for SAPT in psi4, default
}

set PROPERTIES_ORIGIN ["COM"]
properties('MP2/aug-cc-pvtz', properties = ['dipole'])
--------------------------------------------------------------------------

    Molecular point group: c1
  Charge       = 0
  Multiplicity = 1
  Basis Set: AUG-CC-PVTZ
    Blend: AUG-CC-PVTZ
  Basis Set: (AUG-CC-PVTZ AUX)
    Blend: AUG-CC-PVTZ-JKFIT

    Orbital Energies [Eh]
    ---------------------

    Doubly Occupied:

       1A    -91.985892     2A    -11.264091     3A    -11.258617
       4A    -11.241179     5A    -11.240132     6A     -8.986264
       7A     -6.667259     8A     -6.666765     9A     -6.666063
      10A     -1.170619    11A     -0.986342    12A     -0.983479
      13A     -0.772497    14A     -0.752395    15A     -0.698145
      16A     -0.577073    17A     -0.553962    18A     -0.529295
      19A     -0.522852    20A     -0.475569    21A     -0.346962
      22A     -0.325988

  @DF-RHF Final Energy:  -551.37892242552130

   => Energetics <=

    Nuclear Repulsion Energy =            202.7315181162817055
    One-Electron Energy =               -1158.8780011464332347
    Two-Electron Energy =                 404.7675606046302619
    Total Energy =                       -551.3789224255212957
  Basis Set: (AUG-CC-PVTZ AUX)
    Blend: AUG-CC-PVTZ-RI
    Molecular point group: c1

    Geometry (in Angstrom), charge = 0, multiplicity = 1:

       Center              X                  Y                   Z               Mass
    ------------   -----------------  -----------------  -----------------  -----------------
         S            1.147746091501     0.000577235016    -0.000047193777    31.972071174400
         C           -1.317777908499     0.710592235016     0.000077806223    12.000000000000
         C           -1.317778908499    -0.709437764984     0.000029806223    12.000000000000
         C           -0.045694908499     1.235861235016     0.000022806223    12.000000000000
         C           -0.045695908499    -1.234706764984    -0.000018193777    12.000000000000
         H           -2.212754908499     1.323832235016     0.000133806223     1.007825032230
         H           -2.212755908499    -1.322676764984     0.000045806223     1.007825032230
         H            0.235151791501     2.229275035016     0.000028506223     1.007825032230
         H            0.248754091501    -2.276234764984    -0.000047193777     1.007825032230

  Basis Set: AUG-CC-PVTZ
    Blend: AUG-CC-PVTZ
  Basis Set: (AUG-CC-PVTZ AUX)
    Blend: AUG-CC-PVTZ-JKFIT
	 Reference Energy          =    -551.3789224255212957 [Eh]
	 Singles Energy            =      -0.0000000000000000 [Eh]
	 Same-Spin Energy          =      -0.2314042127075979 [Eh]
	 Opposite-Spin Energy      =      -0.7094209832352570 [Eh]
	 Correlation Energy        =      -0.9408251959428550 [Eh]
	 Total Energy              =    -552.3197476214641028 [Eh]

	 ================> DF-SCS-MP2 Energies <==================
	-----------------------------------------------------------
	 SCS Same-Spin Scale       =       0.3333333333333333 [-]
	 SCS Opposite-Spin Scale   =       1.2000000000000000 [-]
	 SCS Same-Spin Energy      =      -0.0771347375691993 [Eh]
	 SCS Opposite-Spin Energy  =      -0.8513051798823085 [Eh]
	 SCS Correlation Energy    =      -0.9284399174515078 [Eh]
	 SCS Total Energy          =    -552.3073623429728514 [Eh]
	-----------------------------------------------------------

  Dipole Moment: [D]
     X:    -0.4414      Y:    -0.0038      Z:     0.0000     Total:     0.4414

*** Psi4 exiting successfully. Buy a developer a beer!
