                               Psi4 1.4a3.dev225

  ==> Input File <==

--------------------------------------------------------------------------
#psi4
#
memory 32 gb

molecule  {
0 1
  S        1.1915130     0.0000000    -0.0000490
  C       -1.2740110     0.7100150     0.0000760
  C       -1.2740120    -0.7100150     0.0000280
  C       -0.0019280     1.2352840     0.0000210
  C       -0.0019290    -1.2352840    -0.0000200
  H       -2.1689880     1.3232550     0.0001320
  H       -2.1689890    -1.3232540     0.0000440
  H        0.3061233     2.3249262     0.0000273
  H        0.2925210    -2.2768120    -0.0000490
units angstrom
no_reorient  #important for SAPT in psi4, default
symmetry c1  #important for SAPT in psi4, default
}

set PROPERTIES_ORIGIN ["COM"]
properties('MP2/aug-cc-pvtz', properties = ['dipole'])
--------------------------------------------------------------------------

    Molecular point group: c1
  Charge       = 0
  Multiplicity = 1
  Basis Set: AUG-CC-PVTZ
    Blend: AUG-CC-PVTZ
  Basis Set: (AUG-CC-PVTZ AUX)
    Blend: AUG-CC-PVTZ-JKFIT

    Orbital Energies [Eh]
    ---------------------

    Doubly Occupied:

       1A    -91.986524     2A    -11.269411     3A    -11.264189
       4A    -11.241587     5A    -11.240540     6A     -8.986844
       7A     -6.667828     8A     -6.667338     9A     -6.666625
      10A     -1.170363    11A     -0.986351    12A     -0.979177
      13A     -0.762528    14A     -0.747696    15A     -0.694401
      16A     -0.571073    17A     -0.550134    18A     -0.526497
      19A     -0.523193    20A     -0.476031    21A     -0.347281
      22A     -0.326073

  @DF-RHF Final Energy:  -551.37727273682003

   => Energetics <=

    Nuclear Repulsion Energy =            202.2290110322759915
    One-Electron Energy =               -1157.9092012880012135
    Two-Electron Energy =                 404.3029175189051330
    Total Energy =                       -551.3772727368200322
  Basis Set: (AUG-CC-PVTZ AUX)
    Blend: AUG-CC-PVTZ-RI
    Molecular point group: c1

    Geometry (in Angstrom), charge = 0, multiplicity = 1:

       Center              X                  Y                   Z               Mass
    ------------   -----------------  -----------------  -----------------  -----------------
         S            1.147419706066    -0.000577259010    -0.000047200976    31.972071174400
         C           -1.318104293934     0.709437740990     0.000077799024    12.000000000000
         C           -1.318105293934    -0.710592259010     0.000029799024    12.000000000000
         C           -0.046021293934     1.234706740990     0.000022799024    12.000000000000
         C           -0.046022293934    -1.235861259010    -0.000018200976    12.000000000000
         H           -2.213081293934     1.322677740990     0.000133799024     1.007825032230
         H           -2.213082293934    -1.323831259010     0.000045799024     1.007825032230
         H            0.262030006066     2.324348940990     0.000029099024     1.007825032230
         H            0.248427706066    -2.277389259010    -0.000047200976     1.007825032230

  Basis Set: AUG-CC-PVTZ
    Blend: AUG-CC-PVTZ
  Basis Set: (AUG-CC-PVTZ AUX)
    Blend: AUG-CC-PVTZ-JKFIT
	 Reference Energy          =    -551.3772727368200322 [Eh]
	 Singles Energy            =      -0.0000000000000000 [Eh]
	 Same-Spin Energy          =      -0.2316014555195509 [Eh]
	 Opposite-Spin Energy      =      -0.7100076506385795 [Eh]
	 Correlation Energy        =      -0.9416091061581304 [Eh]
	 Total Energy              =    -552.3188818429781577 [Eh]

	 ================> DF-SCS-MP2 Energies <==================
	-----------------------------------------------------------
	 SCS Same-Spin Scale       =       0.3333333333333333 [-]
	 SCS Opposite-Spin Scale   =       1.2000000000000000 [-]
	 SCS Same-Spin Energy      =      -0.0772004851731836 [Eh]
	 SCS Opposite-Spin Energy  =      -0.8520091807662954 [Eh]
	 SCS Correlation Energy    =      -0.9292096659394791 [Eh]
	 SCS Total Energy          =    -552.3064824027594568 [Eh]
	-----------------------------------------------------------

  Dipole Moment: [D]
     X:    -0.4360      Y:     0.0012      Z:     0.0000     Total:     0.4360

*** Psi4 exiting successfully. Buy a developer a beer!
