                               Psi4 1.4a3.dev225

  ==> Input File <==

--------------------------------------------------------------------------
#psi4
#
memory 32 gb

molecule  {
0 1
  S        1.1915130     0.0000000    -0.0000490
  C       -1.2740110     0.7100150     0.0000760
  C       -1.2740120    -0.7100150     0.0000280
  C       -0.0019280     1.2352840     0.0000210
  C       -0.0019290    -1.2352840    -0.0000200
  H       -2.1689880     1.3232550     0.0001320
  H       -2.1689890    -1.3232540     0.0000440
  H        0.2870801     2.2575663     0.0000269
  H        0.2925210    -2.2768120    -0.0000490
units angstrom
no_reorient  #important for SAPT in psi4, default
symmetry c1  #important for SAPT in psi4, default
}

set PROPERTIES_ORIGIN ["COM"]
properties('MP2/aug-cc-pvtz', properties = ['dipole'])
--------------------------------------------------------------------------

    Molecular point group: c1
  Charge       = 0
  Multiplicity = 1
  Basis Set: AUG-CC-PVTZ
    Blend: AUG-CC-PVTZ
  Basis Set: (AUG-CC-PVTZ AUX)
    Blend: AUG-CC-PVTZ-JKFIT

    Orbital Energies [Eh]
    ---------------------

    Doubly Occupied:

       1A    -91.986059     2A    -11.264101     3A    -11.261938
       4A    -11.241282     5A    -11.240235     6A     -8.986418
       7A     -6.667410     8A     -6.666916     9A     -6.666211
      10A     -1.170496    11A     -0.986212    12A     -0.982089
      13A     -0.768527    14A     -0.751426    15A     -0.697118
      16A     -0.575077    17A     -0.553001    18A     -0.528661
      19A     -0.522936    20A     -0.475694    21A     -0.347045
      22A     -0.325990

  @DF-RHF Final Energy:  -551.37989528630703

   => Energetics <=

    Nuclear Repulsion Energy =            202.5741242717809598
    One-Electron Energy =               -1158.5783585477336146
    Two-Electron Energy =                 404.6243389896455938
    Total Energy =                       -551.3798952863070326
  Basis Set: (AUG-CC-PVTZ AUX)
    Blend: AUG-CC-PVTZ-RI
    Molecular point group: c1

    Geometry (in Angstrom), charge = 0, multiplicity = 1:

       Center              X                  Y                   Z               Mass
    ------------   -----------------  -----------------  -----------------  -----------------
         S            1.147648175630     0.000230887048    -0.000047196177    31.972071174400
         C           -1.317875824370     0.710245887048     0.000077803823    12.000000000000
         C           -1.317876824370    -0.709784112952     0.000029803823    12.000000000000
         C           -0.045792824370     1.235514887048     0.000022803823    12.000000000000
         C           -0.045793824370    -1.235053112952    -0.000018196177    12.000000000000
         H           -2.212852824370     1.323485887048     0.000133803823     1.007825032230
         H           -2.212853824370    -1.323023112952     0.000045803823     1.007825032230
         H            0.243215275630     2.257797187048     0.000028703823     1.007825032230
         H            0.248656175630    -2.276581112952    -0.000047196177     1.007825032230

  Basis Set: AUG-CC-PVTZ
    Blend: AUG-CC-PVTZ
  Basis Set: (AUG-CC-PVTZ AUX)
    Blend: AUG-CC-PVTZ-JKFIT
	 Reference Energy          =    -551.3798952863070326 [Eh]
	 Singles Energy            =      -0.0000000000000000 [Eh]
	 Same-Spin Energy          =      -0.2314548598076316 [Eh]
	 Opposite-Spin Energy      =      -0.7095437295982248 [Eh]
	 Correlation Energy        =      -0.9409985894058563 [Eh]
	 Total Energy              =    -552.3208938757128408 [Eh]

	 ================> DF-SCS-MP2 Energies <==================
	-----------------------------------------------------------
	 SCS Same-Spin Scale       =       0.3333333333333333 [-]
	 SCS Opposite-Spin Scale   =       1.2000000000000000 [-]
	 SCS Same-Spin Energy      =      -0.0771516199358772 [Eh]
	 SCS Opposite-Spin Energy  =      -0.8514524755178697 [Eh]
	 SCS Correlation Energy    =      -0.9286040954537469 [Eh]
	 SCS Total Energy          =    -552.3084993817607256 [Eh]
	-----------------------------------------------------------

  Dipole Moment: [D]
     X:    -0.4396      Y:    -0.0012      Z:     0.0000     Total:     0.4396

*** Psi4 exiting successfully. Buy a developer a beer!
