                               Psi4 1.3.2 release

  ==> Input File <==

--------------------------------------------------------------------------
#psi4
#
memory 32 gb

molecule  {
0 1
  S        1.1915130     0.0000000    -0.0000490
  C       -1.2121368     0.5799236     0.0000702
  C       -1.2740120    -0.7100150     0.0000280
  C       -0.0019280     1.2352840     0.0000210
  C       -0.0019290    -1.2352840    -0.0000200
  H       -2.1689880     1.3232550     0.0001320
  H       -2.1689890    -1.3232540     0.0000440
  H        0.2925210     2.2768120     0.0000270
  H        0.2925210    -2.2768120    -0.0000490
units angstrom
no_reorient  #important for SAPT in psi4, default
symmetry c1  #important for SAPT in psi4, default
}

set PROPERTIES_ORIGIN ["COM"]
properties('MP2/aug-cc-pvtz', properties = ['dipole'])
--------------------------------------------------------------------------

    Molecular point group: c1
  Charge       = 0
  Multiplicity = 1
  Basis Set: AUG-CC-PVTZ
    Blend: AUG-CC-PVTZ
  Basis Set: (AUG-CC-PVTZ AUX)
    Blend: AUG-CC-PVTZ-JKFIT

    Orbital Energies [Eh]
    ---------------------

    Doubly Occupied:

       1A    -91.988547     2A    -11.265471     3A    -11.261327
       4A    -11.238886     5A    -11.227775     6A     -8.988609
       7A     -6.669441     8A     -6.669156     9A     -6.668492
      10A     -1.190809    11A     -1.004742    12A     -0.974097
      13A     -0.777084    14A     -0.741198    15A     -0.692130
      16A     -0.592646    17A     -0.552421    18A     -0.536007
      19A     -0.508119    20A     -0.463262    21A     -0.360257
      22A     -0.318149

  @DF-RHF Final Energy:  -551.34824751055066

   => Energetics <=

    Nuclear Repulsion Energy =            204.8540527741238009
    One-Electron Energy =               -1163.0273494073994698
    Two-Electron Energy =                 406.8250491227250336
    Total Energy =                       -551.3482475105506637
  Basis Set: (AUG-CC-PVTZ AUX)
    Blend: AUG-CC-PVTZ-RI
    Molecular point group: c1

    Geometry (in Angstrom), charge = 0, multiplicity = 1:

       Center              X                  Y                   Z               Mass
    ------------   -----------------  -----------------  -----------------  -----------------
         S            1.138744082097     0.018583727867    -0.000046368839    31.972071174400
         C           -1.264905717903     0.598507327867     0.000072831161    12.000000000000
         C           -1.326780917903    -0.691431272133     0.000030631161    12.000000000000
         C           -0.054696917903     1.253867727867     0.000023631161    12.000000000000
         C           -0.054697917903    -1.216700272133    -0.000017368839    12.000000000000
         H           -2.221756917903     1.341838727867     0.000134631161     1.007825032230
         H           -2.221757917903    -1.304670272133     0.000046631161     1.007825032230
         H            0.239752082097     2.295395727867     0.000029631161     1.007825032230
         H            0.239752082097    -2.258228272133    -0.000046368839     1.007825032230

  Basis Set: AUG-CC-PVTZ
    Blend: AUG-CC-PVTZ
  Basis Set: (AUG-CC-PVTZ AUX)
    Blend: AUG-CC-PVTZ-JKFIT
	 Reference Energy          =    -551.3482475105506637 [Eh]
	 Singles Energy            =      -0.0000000000000000 [Eh]
	 Same-Spin Energy          =      -0.2344965525651724 [Eh]
	 Opposite-Spin Energy      =      -0.7126589104770853 [Eh]
	 Correlation Energy        =      -0.9471554630422576 [Eh]
	 Total Energy              =    -552.2954029735928998 [Eh]

	 ================> DF-SCS-MP2 Energies <==================
	-----------------------------------------------------------
	 SCS Same-Spin Scale       =       0.3333333333333333 [-]
	 SCS Opposite-Spin Scale   =       1.2000000000000000 [-]
	 SCS Same-Spin Energy      =      -0.0781655175217241 [Eh]
	 SCS Opposite-Spin Energy  =      -0.8551906925725024 [Eh]
	 SCS Correlation Energy    =      -0.9333562100942265 [Eh]
	 SCS Total Energy          =    -552.2816037206448527 [Eh]
	-----------------------------------------------------------

  Dipole Moment: [D]
     X:    -0.3851      Y:    -0.0251      Z:     0.0000     Total:     0.3859

*** Psi4 exiting successfully. Buy a developer a beer!
