                               Psi4 1.3.2 release

  ==> Input File <==

--------------------------------------------------------------------------
#psi4
#
memory 32 gb

molecule  {
0 1
  S        1.1915130     0.0000000    -0.0000490
  C       -1.2740110     0.7100150     0.0000760
  C       -1.2740120    -0.7100150     0.0000280
  C       -0.0233049     1.2142674     0.0000215
  C       -0.0019290    -1.2352840    -0.0000200
  H       -2.1689880     1.3232550     0.0001320
  H       -2.1689890    -1.3232540     0.0000440
  H        0.2925210     2.2768120     0.0000270
  H        0.2925210    -2.2768120    -0.0000490
units angstrom
no_reorient  #important for SAPT in psi4, default
symmetry c1  #important for SAPT in psi4, default
}

set PROPERTIES_ORIGIN ["COM"]
properties('MP2/aug-cc-pvtz', properties = ['dipole'])
--------------------------------------------------------------------------

    Molecular point group: c1
  Charge       = 0
  Multiplicity = 1
  Basis Set: AUG-CC-PVTZ
    Blend: AUG-CC-PVTZ
  Basis Set: (AUG-CC-PVTZ AUX)
    Blend: AUG-CC-PVTZ-JKFIT

    Orbital Energies [Eh]
    ---------------------

    Doubly Occupied:

       1A    -91.984875     2A    -11.263497     3A    -11.262704
       4A    -11.240382     5A    -11.237018     6A     -8.985423
       7A     -6.666427     8A     -6.665887     9A     -6.665166
      10A     -1.173699    11A     -0.988402    12A     -0.981254
      13A     -0.764494    14A     -0.748494    15A     -0.697317
      16A     -0.573326    17A     -0.550927    18A     -0.524981
      19A     -0.524331    20A     -0.477596    21A     -0.348145
      22A     -0.328009

  @DF-RHF Final Energy:  -551.37942757883093

   => Energetics <=

    Nuclear Repulsion Energy =            202.8857116796492335
    One-Electron Energy =               -1159.2255682367770078
    Two-Electron Energy =                 404.9604289782967612
    Total Energy =                       -551.3794275788309278
  Basis Set: (AUG-CC-PVTZ AUX)
    Blend: AUG-CC-PVTZ-RI
    Molecular point group: c1

    Geometry (in Angstrom), charge = 0, multiplicity = 1:

       Center              X                  Y                   Z               Mass
    ------------   -----------------  -----------------  -----------------  -----------------
         S            1.150636619081     0.003002238937    -0.000047268802    31.972071174400
         C           -1.314887380919     0.713017238937     0.000077731198    12.000000000000
         C           -1.314888380919    -0.707012761063     0.000029731198    12.000000000000
         C           -0.064181280919     1.217269638937     0.000023231198    12.000000000000
         C           -0.042805380919    -1.232281761063    -0.000018268802    12.000000000000
         H           -2.209864380919     1.326257238937     0.000133731198     1.007825032230
         H           -2.209865380919    -1.320251761063     0.000045731198     1.007825032230
         H            0.251644619081     2.279814238937     0.000028731198     1.007825032230
         H            0.251644619081    -2.273809761063    -0.000047268802     1.007825032230

  Basis Set: AUG-CC-PVTZ
    Blend: AUG-CC-PVTZ
  Basis Set: (AUG-CC-PVTZ AUX)
    Blend: AUG-CC-PVTZ-JKFIT
	 Reference Energy          =    -551.3794275788309278 [Eh]
	 Singles Energy            =      -0.0000000000000000 [Eh]
	 Same-Spin Energy          =      -0.2311397797476668 [Eh]
	 Opposite-Spin Energy      =      -0.7091592030111405 [Eh]
	 Correlation Energy        =      -0.9402989827588074 [Eh]
	 Total Energy              =    -552.3197265615897322 [Eh]

	 ================> DF-SCS-MP2 Energies <==================
	-----------------------------------------------------------
	 SCS Same-Spin Scale       =       0.3333333333333333 [-]
	 SCS Opposite-Spin Scale   =       1.2000000000000000 [-]
	 SCS Same-Spin Energy      =      -0.0770465932492223 [Eh]
	 SCS Opposite-Spin Energy  =      -0.8509910436133686 [Eh]
	 SCS Correlation Energy    =      -0.9280376368625909 [Eh]
	 SCS Total Energy          =    -552.3074652156934690 [Eh]
	-----------------------------------------------------------

  Dipole Moment: [D]
     X:    -0.4431      Y:     0.0184      Z:     0.0000     Total:     0.4435

*** Psi4 exiting successfully. Buy a developer a beer!
