                               Psi4 1.4a3.dev225

  ==> Input File <==

--------------------------------------------------------------------------
#psi4
#
memory 32 gb

molecule  {
0 1
  S        1.1915130     0.0000000    -0.0000490
  C       -1.2740110     0.7100150     0.0000760
  C       -1.2740120    -0.7100150     0.0000280
  C       -0.0204140     1.2276507     0.0000218
  C       -0.0019290    -1.2352840    -0.0000200
  H       -2.1689880     1.3232550     0.0001320
  H       -2.1689890    -1.3232540     0.0000440
  H        0.2925210     2.2768120     0.0000270
  H        0.2925210    -2.2768120    -0.0000490
units angstrom
no_reorient  #important for SAPT in psi4, default
symmetry c1  #important for SAPT in psi4, default
}

set PROPERTIES_ORIGIN ["COM"]
properties('MP2/aug-cc-pvtz', properties = ['dipole'])
--------------------------------------------------------------------------

    Molecular point group: c1
  Charge       = 0
  Multiplicity = 1
  Basis Set: AUG-CC-PVTZ
    Blend: AUG-CC-PVTZ
  Basis Set: (AUG-CC-PVTZ AUX)
    Blend: AUG-CC-PVTZ-JKFIT

    Orbital Energies [Eh]
    ---------------------

    Doubly Occupied:

       1A    -91.985029     2A    -11.264122     3A    -11.263242
       4A    -11.240659     5A    -11.238424     6A     -8.985392
       7A     -6.666385     8A     -6.665863     9A     -6.665154
      10A     -1.171855    11A     -0.987236    12A     -0.981421
      13A     -0.765522    14A     -0.749612    15A     -0.697098
      16A     -0.574286    17A     -0.552423    18A     -0.525034
      19A     -0.523779    20A     -0.475904    21A     -0.347746
      22A     -0.327603

  @DF-RHF Final Energy:  -551.38001296882419

   => Energetics <=

    Nuclear Repulsion Energy =            202.6164630582326822
    One-Electron Energy =               -1158.6853706809197320
    Two-Electron Energy =                 404.6888946538627465
    Total Energy =                       -551.3800129688243032
  Basis Set: (AUG-CC-PVTZ AUX)
    Blend: AUG-CC-PVTZ-RI
    Molecular point group: c1

    Geometry (in Angstrom), charge = 0, multiplicity = 1:

       Center              X                  Y                   Z               Mass
    ------------   -----------------  -----------------  -----------------  -----------------
         S            1.150223649941     0.001090415667    -0.000047311658    31.972071174400
         C           -1.315300350059     0.711105415667     0.000077688342    12.000000000000
         C           -1.315301350059    -0.708924584333     0.000029688342    12.000000000000
         C           -0.061703350059     1.228741115667     0.000023488342    12.000000000000
         C           -0.043218350059    -1.234193584333    -0.000018311658    12.000000000000
         H           -2.210277350059     1.324345415667     0.000133688342     1.007825032230
         H           -2.210278350059    -1.322163584333     0.000045688342     1.007825032230
         H            0.251231649941     2.277902415667     0.000028688342     1.007825032230
         H            0.251231649941    -2.275721584333    -0.000047311658     1.007825032230

  Basis Set: AUG-CC-PVTZ
    Blend: AUG-CC-PVTZ
  Basis Set: (AUG-CC-PVTZ AUX)
    Blend: AUG-CC-PVTZ-JKFIT
	 Reference Energy          =    -551.3800129688241896 [Eh]
	 Singles Energy            =      -0.0000000000000000 [Eh]
	 Same-Spin Energy          =      -0.2311539329618700 [Eh]
	 Opposite-Spin Energy      =      -0.7092681022195693 [Eh]
	 Correlation Energy        =      -0.9404220351814393 [Eh]
	 Total Energy              =    -552.3204350040056170 [Eh]

	 ================> DF-SCS-MP2 Energies <==================
	-----------------------------------------------------------
	 SCS Same-Spin Scale       =       0.3333333333333333 [-]
	 SCS Opposite-Spin Scale   =       1.2000000000000000 [-]
	 SCS Same-Spin Energy      =      -0.0770513109872900 [Eh]
	 SCS Opposite-Spin Energy  =      -0.8511217226634831 [Eh]
	 SCS Correlation Energy    =      -0.9281730336507731 [Eh]
	 SCS Total Energy          =    -552.3081860024749403 [Eh]
	-----------------------------------------------------------

  Dipole Moment: [D]
     X:    -0.4526      Y:     0.0144      Z:     0.0000     Total:     0.4528

*** Psi4 exiting successfully. Buy a developer a beer!
