                               Psi4 1.3.2 release

  ==> Input File <==

--------------------------------------------------------------------------
#psi4
#
memory 32 gb

molecule  {
0 1
  S        1.1915130     0.0000000    -0.0000490
  C       -1.2740110     0.7100150     0.0000760
  C       -1.2740120    -0.7100150     0.0000280
  C        0.0070455     1.2130031     0.0000202
  C       -0.0019290    -1.2352840    -0.0000200
  H       -2.1689880     1.3232550     0.0001320
  H       -2.1689890    -1.3232540     0.0000440
  H        0.2925210     2.2768120     0.0000270
  H        0.2925210    -2.2768120    -0.0000490
units angstrom
no_reorient  #important for SAPT in psi4, default
symmetry c1  #important for SAPT in psi4, default
}

set PROPERTIES_ORIGIN ["COM"]
properties('MP2/aug-cc-pvtz', properties = ['dipole'])
--------------------------------------------------------------------------

    Molecular point group: c1
  Charge       = 0
  Multiplicity = 1
  Basis Set: AUG-CC-PVTZ
    Blend: AUG-CC-PVTZ
  Basis Set: (AUG-CC-PVTZ AUX)
    Blend: AUG-CC-PVTZ-JKFIT

    Orbital Energies [Eh]
    ---------------------

    Doubly Occupied:

       1A    -91.986689     2A    -11.263751     3A    -11.262710
       4A    -11.240792     5A    -11.239404     6A     -8.987461
       7A     -6.668481     8A     -6.667956     9A     -6.667231
      10A     -1.173202    11A     -0.988798    12A     -0.979637
      13A     -0.763697    14A     -0.749864    15A     -0.696330
      16A     -0.571133    17A     -0.548370    18A     -0.530249
      19A     -0.524908    20A     -0.479069    21A     -0.347541
      22A     -0.325403

  @DF-RHF Final Energy:  -551.37893554801190

   => Energetics <=

    Nuclear Repulsion Energy =            202.9304137523373299
    One-Electron Energy =               -1159.2933447745156172
    Two-Electron Energy =                 404.9839954741663632
    Total Energy =                       -551.3789355480118957
  Basis Set: (AUG-CC-PVTZ AUX)
    Blend: AUG-CC-PVTZ-RI
    Molecular point group: c1

    Geometry (in Angstrom), charge = 0, multiplicity = 1:

       Center              X                  Y                   Z               Mass
    ------------   -----------------  -----------------  -----------------  -----------------
         S            1.146301021660     0.003182845974    -0.000047083096    31.972071174400
         C           -1.319222978340     0.713197845974     0.000077916904    12.000000000000
         C           -1.319223978340    -0.706832154026     0.000029916904    12.000000000000
         C           -0.038166478340     1.216185945974     0.000022116904    12.000000000000
         C           -0.047140978340    -1.232101154026    -0.000018083096    12.000000000000
         H           -2.214199978340     1.326437845974     0.000133916904     1.007825032230
         H           -2.214200978340    -1.320071154026     0.000045916904     1.007825032230
         H            0.247309021660     2.279994845974     0.000028916904     1.007825032230
         H            0.247309021660    -2.273629154026    -0.000047083096     1.007825032230

  Basis Set: AUG-CC-PVTZ
    Blend: AUG-CC-PVTZ
  Basis Set: (AUG-CC-PVTZ AUX)
    Blend: AUG-CC-PVTZ-JKFIT
	 Reference Energy          =    -551.3789355480118957 [Eh]
	 Singles Energy            =      -0.0000000000000000 [Eh]
	 Same-Spin Energy          =      -0.2317449099891825 [Eh]
	 Opposite-Spin Energy      =      -0.7096982657479675 [Eh]
	 Correlation Energy        =      -0.9414431757371500 [Eh]
	 Total Energy              =    -552.3203787237490587 [Eh]

	 ================> DF-SCS-MP2 Energies <==================
	-----------------------------------------------------------
	 SCS Same-Spin Scale       =       0.3333333333333333 [-]
	 SCS Opposite-Spin Scale   =       1.2000000000000000 [-]
	 SCS Same-Spin Energy      =      -0.0772483033297275 [Eh]
	 SCS Opposite-Spin Energy  =      -0.8516379188975609 [Eh]
	 SCS Correlation Energy    =      -0.9288862222272884 [Eh]
	 SCS Total Energy          =    -552.3078217702392294 [Eh]
	-----------------------------------------------------------

  Dipole Moment: [D]
     X:    -0.4064      Y:     0.0005      Z:     0.0000     Total:     0.4064

*** Psi4 exiting successfully. Buy a developer a beer!
