                               Psi4 1.3.2 release

  ==> Input File <==

--------------------------------------------------------------------------
#psi4
#
memory 32 gb

molecule  {
0 1
  S        1.1915130     0.0000000    -0.0000490
  C       -1.2740110     0.7100150     0.0000760
  C       -1.2740120    -0.7100150     0.0000280
  C       -0.1867883     1.1589514     0.0000290
  C       -0.0019290    -1.2352840    -0.0000200
  H       -2.1689880     1.3232550     0.0001320
  H       -2.1689890    -1.3232540     0.0000440
  H        0.2925210     2.2768120     0.0000270
  H        0.2925210    -2.2768120    -0.0000490
units angstrom
no_reorient  #important for SAPT in psi4, default
symmetry c1  #important for SAPT in psi4, default
}

set PROPERTIES_ORIGIN ["COM"]
properties('MP2/aug-cc-pvtz', properties = ['dipole'])
--------------------------------------------------------------------------

    Molecular point group: c1
  Charge       = 0
  Multiplicity = 1
  Basis Set: AUG-CC-PVTZ
    Blend: AUG-CC-PVTZ
  Basis Set: (AUG-CC-PVTZ AUX)
    Blend: AUG-CC-PVTZ-JKFIT

    Orbital Energies [Eh]
    ---------------------

    Doubly Occupied:

       1A    -91.976006     2A    -11.264718     3A    -11.254145
       4A    -11.239347     5A    -11.214437     6A     -8.976290
       7A     -6.657304     8A     -6.656494     9A     -6.655791
      10A     -1.193156    11A     -1.019471    12A     -0.964544
      13A     -0.772436    14A     -0.730263    15A     -0.700549
      16A     -0.583707    17A     -0.559287    18A     -0.537686
      19A     -0.496426    20A     -0.457751    21A     -0.373536
      22A     -0.327025

  @DF-RHF Final Energy:  -551.32144176302711

   => Energetics <=

    Nuclear Repulsion Energy =            204.1729680492468333
    One-Electron Energy =               -1161.7680801277185765
    Two-Electron Energy =                 406.2736703154446332
    Total Energy =                       -551.3214417630271100
  Basis Set: (AUG-CC-PVTZ AUX)
    Blend: AUG-CC-PVTZ-RI
    Molecular point group: c1

    Geometry (in Angstrom), charge = 0, multiplicity = 1:

       Center              X                  Y                   Z               Mass
    ------------   -----------------  -----------------  -----------------  -----------------
         S            1.173990453213     0.010904207509    -0.000048340188    31.972071174400
         C           -1.291533546787     0.720919207509     0.000076659812    12.000000000000
         C           -1.291534546787    -0.699110792491     0.000028659812    12.000000000000
         C           -0.204310846787     1.169855607509     0.000029659812    12.000000000000
         C           -0.019451546787    -1.224379792491    -0.000019340188    12.000000000000
         H           -2.186510546787     1.334159207509     0.000132659812     1.007825032230
         H           -2.186511546787    -1.312349792491     0.000044659812     1.007825032230
         H            0.274998453213     2.287716207509     0.000027659812     1.007825032230
         H            0.274998453213    -2.265907792491    -0.000048340188     1.007825032230

  Basis Set: AUG-CC-PVTZ
    Blend: AUG-CC-PVTZ
  Basis Set: (AUG-CC-PVTZ AUX)
    Blend: AUG-CC-PVTZ-JKFIT
	 Reference Energy          =    -551.3214417630271100 [Eh]
	 Singles Energy            =      -0.0000000000000000 [Eh]
	 Same-Spin Energy          =      -0.2291237808721863 [Eh]
	 Opposite-Spin Energy      =      -0.7079216163833176 [Eh]
	 Correlation Energy        =      -0.9370453972555040 [Eh]
	 Total Energy              =    -552.2584871602825842 [Eh]

	 ================> DF-SCS-MP2 Energies <==================
	-----------------------------------------------------------
	 SCS Same-Spin Scale       =       0.3333333333333333 [-]
	 SCS Opposite-Spin Scale   =       1.2000000000000000 [-]
	 SCS Same-Spin Energy      =      -0.0763745936240621 [Eh]
	 SCS Opposite-Spin Energy  =      -0.8495059396599811 [Eh]
	 SCS Correlation Energy    =      -0.9258805332840432 [Eh]
	 SCS Total Energy          =    -552.2473222963111539 [Eh]
	-----------------------------------------------------------

  Dipole Moment: [D]
     X:    -0.6747      Y:     0.1102      Z:     0.0000     Total:     0.6837

*** Psi4 exiting successfully. Buy a developer a beer!
