                               Psi4 1.3.2 release

  ==> Input File <==

--------------------------------------------------------------------------
#psi4
#
memory 32 gb

molecule  {
0 1
  S        1.1915130     0.0000000    -0.0000490
  C       -1.2740110     0.7100150     0.0000760
  C       -1.2740120    -0.7100150     0.0000280
  C       -0.0416676     1.3227405     0.0000245
  C       -0.0019290    -1.2352840    -0.0000200
  H       -2.1689880     1.3232550     0.0001320
  H       -2.1689890    -1.3232540     0.0000440
  H        0.2925210     2.2768120     0.0000270
  H        0.2925210    -2.2768120    -0.0000490
units angstrom
no_reorient  #important for SAPT in psi4, default
symmetry c1  #important for SAPT in psi4, default
}

set PROPERTIES_ORIGIN ["COM"]
properties('MP2/aug-cc-pvtz', properties = ['dipole'])
--------------------------------------------------------------------------

    Molecular point group: c1
  Charge       = 0
  Multiplicity = 1
  Basis Set: AUG-CC-PVTZ
    Blend: AUG-CC-PVTZ
  Basis Set: (AUG-CC-PVTZ AUX)
    Blend: AUG-CC-PVTZ-JKFIT

    Orbital Energies [Eh]
    ---------------------

    Doubly Occupied:

       1A    -91.983279     2A    -11.269653     3A    -11.266558
       4A    -11.246649     5A    -11.242019     6A     -8.982367
       7A     -6.663324     8A     -6.662764     9A     -6.662177
      10A     -1.161399    11A     -0.988842    12A     -0.976138
      13A     -0.781185    14A     -0.752185    15A     -0.696355
      16A     -0.589544    17A     -0.561818    18A     -0.519347
      19A     -0.516628    20A     -0.459698    21A     -0.347385
      22A     -0.326920

  @DF-RHF Final Energy:  -551.37106272323183

   => Energetics <=

    Nuclear Repulsion Energy =            200.7423978488731677
    One-Electron Energy =               -1154.9144581896275668
    Two-Electron Energy =                 402.8009976175225120
    Total Energy =                       -551.3710627232318302
  Basis Set: (AUG-CC-PVTZ AUX)
    Blend: AUG-CC-PVTZ-RI
    Molecular point group: c1

    Geometry (in Angstrom), charge = 0, multiplicity = 1:

       Center              X                  Y                   Z               Mass
    ------------   -----------------  -----------------  -----------------  -----------------
         S            1.153259756659    -0.012493296299    -0.000047697357    31.972071174400
         C           -1.312264243341     0.697521703701     0.000077302643    12.000000000000
         C           -1.312265243341    -0.722508296299     0.000029302643    12.000000000000
         C           -0.079920843341     1.310247203701     0.000025802643    12.000000000000
         C           -0.040182243341    -1.247777296299    -0.000018697357    12.000000000000
         H           -2.207241243341     1.310761703701     0.000133302643     1.007825032230
         H           -2.207242243341    -1.335747296299     0.000045302643     1.007825032230
         H            0.254267756659     2.264318703701     0.000028302643     1.007825032230
         H            0.254267756659    -2.289305296299    -0.000047697357     1.007825032230

  Basis Set: AUG-CC-PVTZ
    Blend: AUG-CC-PVTZ
  Basis Set: (AUG-CC-PVTZ AUX)
    Blend: AUG-CC-PVTZ-JKFIT
	 Reference Energy          =    -551.3710627232318302 [Eh]
	 Singles Energy            =      -0.0000000000000000 [Eh]
	 Same-Spin Energy          =      -0.2308034775237069 [Eh]
	 Opposite-Spin Energy      =      -0.7101343527743755 [Eh]
	 Correlation Energy        =      -0.9409378302980824 [Eh]
	 Total Energy              =    -552.3120005535298560 [Eh]

	 ================> DF-SCS-MP2 Energies <==================
	-----------------------------------------------------------
	 SCS Same-Spin Scale       =       0.3333333333333333 [-]
	 SCS Opposite-Spin Scale   =       1.2000000000000000 [-]
	 SCS Same-Spin Energy      =      -0.0769344925079023 [Eh]
	 SCS Opposite-Spin Energy  =      -0.8521612233292506 [Eh]
	 SCS Correlation Energy    =      -0.9290957158371529 [Eh]
	 SCS Total Energy          =    -552.3001584390690368 [Eh]
	-----------------------------------------------------------

  Dipole Moment: [D]
     X:    -0.5746      Y:     0.0031      Z:     0.0000     Total:     0.5746

*** Psi4 exiting successfully. Buy a developer a beer!
