                               Psi4 1.4a3.dev225

  ==> Input File <==

--------------------------------------------------------------------------
#psi4
#
memory 32 gb

molecule  {
-1 1
  S        1.2336270    -0.0202320     0.0299590
  O        1.2252410    -0.2825260     1.4971370
  O        2.1958480    -0.8505260    -0.7431210
  O        1.2556930     1.4274900    -0.3299320
  C       -1.5803950    -0.0804270     0.2439630
  C       -0.3819400    -0.6334240    -0.5238140
  C       -1.8538570     1.3866740    -0.0822530
  C       -2.8221770    -0.9303370    -0.0290390
  H       -1.3285570    -0.1598550     1.3085440
  H       -0.4647110    -0.4152860    -1.5956970
  H       -0.3274510    -1.7212140    -0.4033230
  H       -2.1410800     1.4899610    -1.1367080
  H       -0.9572190     1.9851690     0.0829810
  H       -2.6779900     1.7735750     0.5301930
  H       -3.0772140    -0.9057670    -1.0956550
  H       -2.6591200    -1.9761140     0.2538760
  H       -3.6887270    -0.5571790     0.5306310
units angstrom
no_reorient  #important for SAPT in psi4, default
symmetry c1  #important for SAPT in psi4, default
}

set PROPERTIES_ORIGIN ["COM"]
properties('MP2/aug-cc-pvtz', properties = ['dipole'])
--------------------------------------------------------------------------

    Molecular point group: c1
  Charge       = -1
  Multiplicity = 1
  Basis Set: AUG-CC-PVTZ
    Blend: AUG-CC-PVTZ
  Basis Set: (AUG-CC-PVTZ AUX)
    Blend: AUG-CC-PVTZ-JKFIT

    Orbital Energies [Eh]
    ---------------------

    Doubly Occupied:

       1A    -91.999886     2A    -20.341637     3A    -20.341161
       4A    -20.340703     5A    -11.108344     6A    -11.104333
       7A    -11.098307     8A    -11.084767     9A     -8.961477
      10A     -6.646821    11A     -6.646357    12A     -6.646329
      13A     -1.258226    14A     -1.115330    15A     -1.114741
      16A     -0.966391    17A     -0.826709    18A     -0.810838
      19A     -0.664304    20A     -0.608220    21A     -0.520845
      22A     -0.491526    23A     -0.483117    24A     -0.460378
      25A     -0.446780    26A     -0.436404    27A     -0.420833
      28A     -0.402535    29A     -0.368422    30A     -0.350076
      31A     -0.340857    32A     -0.320450    33A     -0.320439
      34A     -0.277947    35A     -0.275901    36A     -0.248846
      37A     -0.240172

  @DF-RHF Final Energy:  -779.01449805240770

   => Energetics <=

    Nuclear Repulsion Energy =            516.8395023902409093
    One-Electron Energy =               -2111.5271833153651642
    Two-Electron Energy =                 815.6731828727166658
    Total Energy =                       -779.0144980524077027
  Basis Set: (AUG-CC-PVTZ AUX)
    Blend: AUG-CC-PVTZ-RI
    Molecular point group: c1

    Geometry (in Angstrom), charge = -1, multiplicity = 1:

       Center              X                  Y                   Z               Mass
    ------------   -----------------  -----------------  -----------------  -----------------
         S            1.108627793693    -0.023749294840     0.018937613028    31.972071174400
         O            1.100241793693    -0.286043294840     1.486115613028    15.994914619570
         O            2.070848793693    -0.854043294840    -0.754142386972    15.994914619570
         O            1.130693793693     1.423972705160    -0.340953386972    15.994914619570
         C           -1.705394206307    -0.083944294840     0.232941613028    12.000000000000
         C           -0.506939206307    -0.636941294840    -0.534835386972    12.000000000000
         C           -1.978856206307     1.383156705160    -0.093274386972    12.000000000000
         C           -2.947176206307    -0.933854294840    -0.040060386972    12.000000000000
         H           -1.453556206307    -0.163372294840     1.297522613028     1.007825032230
         H           -0.589710206307    -0.418803294840    -1.606718386972     1.007825032230
         H           -0.452450206307    -1.724731294840    -0.414344386972     1.007825032230
         H           -2.266079206307     1.486443705160    -1.147729386972     1.007825032230
         H           -1.082218206307     1.981651705160     0.071959613028     1.007825032230
         H           -2.802989206307     1.770057705160     0.519171613028     1.007825032230
         H           -3.202213206307    -0.909284294840    -1.106676386972     1.007825032230
         H           -2.784119206307    -1.979631294840     0.242854613028     1.007825032230
         H           -3.813726206307    -0.560696294840     0.519609613028     1.007825032230

  Basis Set: AUG-CC-PVTZ
    Blend: AUG-CC-PVTZ
  Basis Set: (AUG-CC-PVTZ AUX)
    Blend: AUG-CC-PVTZ-JKFIT
	 Reference Energy          =    -779.0144980524077027 [Eh]
	 Singles Energy            =      -0.0000000000000000 [Eh]
	 Same-Spin Energy          =      -0.4486495632690027 [Eh]
	 Opposite-Spin Energy      =      -1.3747390941223441 [Eh]
	 Correlation Energy        =      -1.8233886573913467 [Eh]
	 Total Energy              =    -780.8378867097990224 [Eh]

	 ================> DF-SCS-MP2 Energies <==================
	-----------------------------------------------------------
	 SCS Same-Spin Scale       =       0.3333333333333333 [-]
	 SCS Opposite-Spin Scale   =       1.2000000000000000 [-]
	 SCS Same-Spin Energy      =      -0.1495498544230009 [Eh]
	 SCS Opposite-Spin Energy  =      -1.6496869129468128 [Eh]
	 SCS Correlation Energy    =      -1.7992367673698137 [Eh]
	 SCS Total Energy          =    -780.8137348197775509 [Eh]
	-----------------------------------------------------------

  Dipole Moment: [D]
     X:    -6.8474      Y:    -0.8313      Z:    -0.7900     Total:     6.9427

*** Psi4 exiting successfully. Buy a developer a beer!
