                               Psi4 1.4a3.dev225

  ==> Input File <==

--------------------------------------------------------------------------
#psi4
#
memory 32 gb

molecule  {
-1 1
  S        1.2336270    -0.0202320     0.0299590
  O        1.2252410    -0.2825260     1.4971370
  O        2.1958480    -0.8505260    -0.7431210
  O        1.2556930     1.4274900    -0.3299320
  C       -1.5803950    -0.0804270     0.2439630
  C       -0.3819400    -0.6334240    -0.5238140
  C       -1.8538570     1.3866740    -0.0822530
  C       -2.7409801    -0.8747636    -0.0111881
  H       -1.3285570    -0.1598550     1.3085440
  H       -0.4647110    -0.4152860    -1.5956970
  H       -0.3274510    -1.7212140    -0.4033230
  H       -2.1410800     1.4899610    -1.1367080
  H       -0.9572190     1.9851690     0.0829810
  H       -2.6779900     1.7735750     0.5301930
  H       -3.0772140    -0.9057670    -1.0956550
  H       -2.6591200    -1.9761140     0.2538760
  H       -3.6887270    -0.5571790     0.5306310
units angstrom
no_reorient  #important for SAPT in psi4, default
symmetry c1  #important for SAPT in psi4, default
}

set PROPERTIES_ORIGIN ["COM"]
properties('MP2/aug-cc-pvtz', properties = ['dipole'])
--------------------------------------------------------------------------

    Molecular point group: c1
  Charge       = -1
  Multiplicity = 1
  Basis Set: AUG-CC-PVTZ
    Blend: AUG-CC-PVTZ
  Basis Set: (AUG-CC-PVTZ AUX)
    Blend: AUG-CC-PVTZ-JKFIT

    Orbital Energies [Eh]
    ---------------------

    Doubly Occupied:

       1A    -92.000220     2A    -20.341983     3A    -20.341474
       4A    -20.341008     5A    -11.115580     6A    -11.099391
       7A    -11.098752     8A    -11.085464     9A     -8.961811
      10A     -6.647156    11A     -6.646693    12A     -6.646666
      13A     -1.258570    14A     -1.115671    15A     -1.115061
      16A     -0.982188    17A     -0.827254    18A     -0.809558
      19A     -0.665179    20A     -0.610405    21A     -0.525633
      22A     -0.493065    23A     -0.485962    24A     -0.459908
      25A     -0.446213    26A     -0.438101    27A     -0.412173
      28A     -0.398946    29A     -0.378660    30A     -0.346605
      31A     -0.335371    32A     -0.320931    33A     -0.320047
      34A     -0.278322    35A     -0.276195    36A     -0.250217
      37A     -0.240575

  @DF-RHF Final Energy:  -779.00294196774894

   => Energetics <=

    Nuclear Repulsion Energy =            518.6952562832698277
    One-Electron Energy =               -2115.1623780093759706
    Two-Electron Energy =                 817.4641797583572043
    Total Energy =                       -779.0029419677489386
  Basis Set: (AUG-CC-PVTZ AUX)
    Blend: AUG-CC-PVTZ-RI
    Molecular point group: c1

    Geometry (in Angstrom), charge = -1, multiplicity = 1:

       Center              X                  Y                   Z               Mass
    ------------   -----------------  -----------------  -----------------  -----------------
         S            1.101517070324    -0.028616070223     0.017374341378    31.972071174400
         O            1.093131070324    -0.290910070223     1.484552341378    15.994914619570
         O            2.063738070324    -0.858910070223    -0.755705658622    15.994914619570
         O            1.123583070324     1.419105929777    -0.342516658622    15.994914619570
         C           -1.712504929676    -0.088811070223     0.231378341378    12.000000000000
         C           -0.514049929676    -0.641808070223    -0.536398658622    12.000000000000
         C           -1.985966929676     1.378289929777    -0.094837658622    12.000000000000
         C           -2.873090029676    -0.883147670223    -0.023772758622    12.000000000000
         H           -1.460666929676    -0.168239070223     1.295959341378     1.007825032230
         H           -0.596820929676    -0.423670070223    -1.608281658622     1.007825032230
         H           -0.459560929676    -1.729598070223    -0.415907658622     1.007825032230
         H           -2.273189929676     1.481576929777    -1.149292658622     1.007825032230
         H           -1.089328929676     1.976784929777     0.070396341378     1.007825032230
         H           -2.810099929676     1.765190929777     0.517608341378     1.007825032230
         H           -3.209323929676    -0.914151070223    -1.108239658622     1.007825032230
         H           -2.791229929676    -1.984498070223     0.241291341378     1.007825032230
         H           -3.820836929676    -0.565563070223     0.518046341378     1.007825032230

  Basis Set: AUG-CC-PVTZ
    Blend: AUG-CC-PVTZ
  Basis Set: (AUG-CC-PVTZ AUX)
    Blend: AUG-CC-PVTZ-JKFIT
	 Reference Energy          =    -779.0029419677489386 [Eh]
	 Singles Energy            =      -0.0000000000000000 [Eh]
	 Same-Spin Energy          =      -0.4497114972940329 [Eh]
	 Opposite-Spin Energy      =      -1.3760390569219463 [Eh]
	 Correlation Energy        =      -1.8257505542159791 [Eh]
	 Total Energy              =    -780.8286925219649675 [Eh]

	 ================> DF-SCS-MP2 Energies <==================
	-----------------------------------------------------------
	 SCS Same-Spin Scale       =       0.3333333333333333 [-]
	 SCS Opposite-Spin Scale   =       1.2000000000000000 [-]
	 SCS Same-Spin Energy      =      -0.1499038324313443 [Eh]
	 SCS Opposite-Spin Energy  =      -1.6512468683063355 [Eh]
	 SCS Correlation Energy    =      -1.8011507007376797 [Eh]
	 SCS Total Energy          =    -780.8040926684866463 [Eh]
	-----------------------------------------------------------

  Dipole Moment: [D]
     X:    -6.7860      Y:    -0.8002      Z:    -0.7785     Total:     6.8772

*** Psi4 exiting successfully. Buy a developer a beer!
