                               Psi4 1.4a3.dev225

  ==> Input File <==

--------------------------------------------------------------------------
#psi4
#
memory 32 gb

molecule  {
-1 1
  S        1.2336270    -0.0202320     0.0299590
  O        1.2252410    -0.2825260     1.4971370
  O        2.1958480    -0.8505260    -0.7431210
  O        1.2556930     1.4274900    -0.3299320
  C       -1.5803950    -0.0804270     0.2439630
  C       -0.3819400    -0.6334240    -0.5238140
  C       -1.8538570     1.3866740    -0.0822530
  C       -2.8221770    -0.9303370    -0.0290390
  H       -1.3285570    -0.1598550     1.3085440
  H       -0.4647110    -0.4152860    -1.5956970
  H       -0.3274510    -1.7212140    -0.4033230
  H       -2.1410800     1.4899610    -1.1367080
  H       -0.9572190     1.9851690     0.0829810
  H       -2.6779900     1.7735750     0.5301930
  H       -3.0772140    -0.9057670    -1.0956550
  H       -2.6442367    -2.0715689     0.2796995
  H       -3.6887270    -0.5571790     0.5306310
units angstrom
no_reorient  #important for SAPT in psi4, default
symmetry c1  #important for SAPT in psi4, default
}

set PROPERTIES_ORIGIN ["COM"]
properties('MP2/aug-cc-pvtz', properties = ['dipole'])
--------------------------------------------------------------------------

    Molecular point group: c1
  Charge       = -1
  Multiplicity = 1
  Basis Set: AUG-CC-PVTZ
    Blend: AUG-CC-PVTZ
  Basis Set: (AUG-CC-PVTZ AUX)
    Blend: AUG-CC-PVTZ-JKFIT

    Orbital Energies [Eh]
    ---------------------

    Doubly Occupied:

       1A    -92.000057     2A    -20.341797     3A    -20.341385
       4A    -20.340857     5A    -11.120852     6A    -11.105725
       7A    -11.098450     8A    -11.086197     9A     -8.961649
      10A     -6.646994    11A     -6.646530    12A     -6.646501
      13A     -1.258406    14A     -1.115480    15A     -1.114952
      16A     -0.966030    17A     -0.824968    18A     -0.807106
      19A     -0.663561    20A     -0.608479    21A     -0.520028
      22A     -0.491022    23A     -0.479378    24A     -0.457115
      25A     -0.446094    26A     -0.437401    27A     -0.420823
      28A     -0.398799    29A     -0.368531    30A     -0.348331
      31A     -0.340640    32A     -0.320685    33A     -0.320662
      34A     -0.278118    35A     -0.276140    36A     -0.249160
      37A     -0.240364

  @DF-RHF Final Energy:  -779.00813841755405

   => Energetics <=

    Nuclear Repulsion Energy =            516.4353183606621087
    One-Electron Energy =               -2110.7083815605233212
    Two-Electron Energy =                 815.2649247823070482
    Total Energy =                       -779.0081384175540506
  Basis Set: (AUG-CC-PVTZ AUX)
    Blend: AUG-CC-PVTZ-RI
    Molecular point group: c1

    Geometry (in Angstrom), charge = -1, multiplicity = 1:

       Center              X                  Y                   Z               Mass
    ------------   -----------------  -----------------  -----------------  -----------------
         S            1.108518328143    -0.023047231240     0.018747683130    31.972071174400
         O            1.100132328143    -0.285341231240     1.485925683130    15.994914619570
         O            2.070739328143    -0.853341231240    -0.754332316870    15.994914619570
         O            1.130584328143     1.424674768760    -0.341143316870    15.994914619570
         C           -1.705503671857    -0.083242231240     0.232751683130    12.000000000000
         C           -0.507048671857    -0.636239231240    -0.535025316870    12.000000000000
         C           -1.978965671857     1.383858768760    -0.093464316870    12.000000000000
         C           -2.947285671857    -0.933152231240    -0.040250316870    12.000000000000
         H           -1.453665671857    -0.162670231240     1.297332683130     1.007825032230
         H           -0.589819671857    -0.418101231240    -1.606908316870     1.007825032230
         H           -0.452559671857    -1.724029231240    -0.414534316870     1.007825032230
         H           -2.266188671857     1.487145768760    -1.147919316870     1.007825032230
         H           -1.082327671857     1.982353768760     0.071769683130     1.007825032230
         H           -2.803098671857     1.770759768760     0.518981683130     1.007825032230
         H           -3.202322671857    -0.908582231240    -1.106866316870     1.007825032230
         H           -2.769345371857    -2.074384131240     0.268488183130     1.007825032230
         H           -3.813835671857    -0.559994231240     0.519419683130     1.007825032230

  Basis Set: AUG-CC-PVTZ
    Blend: AUG-CC-PVTZ
  Basis Set: (AUG-CC-PVTZ AUX)
    Blend: AUG-CC-PVTZ-JKFIT
	 Reference Energy          =    -779.0081384175540506 [Eh]
	 Singles Energy            =      -0.0000000000000000 [Eh]
	 Same-Spin Energy          =      -0.4486306965495737 [Eh]
	 Opposite-Spin Energy      =      -1.3754320140708174 [Eh]
	 Correlation Energy        =      -1.8240627106203910 [Eh]
	 Total Energy              =    -780.8322011281744608 [Eh]

	 ================> DF-SCS-MP2 Energies <==================
	-----------------------------------------------------------
	 SCS Same-Spin Scale       =       0.3333333333333333 [-]
	 SCS Opposite-Spin Scale   =       1.2000000000000000 [-]
	 SCS Same-Spin Energy      =      -0.1495435655165245 [Eh]
	 SCS Opposite-Spin Energy  =      -1.6505184168849809 [Eh]
	 SCS Correlation Energy    =      -1.8000619824015054 [Eh]
	 SCS Total Energy          =    -780.8082003999555809 [Eh]
	-----------------------------------------------------------

  Dipole Moment: [D]
     X:    -6.8310      Y:    -0.7349      Z:    -0.8071     Total:     6.9176

*** Psi4 exiting successfully. Buy a developer a beer!
