                               Psi4 1.4a3.dev225

  ==> Input File <==

--------------------------------------------------------------------------
#psi4
#
memory 32 gb

molecule  {
-1 1
  S        1.2336270    -0.0202320     0.0299590
  O        1.2252410    -0.2825260     1.4971370
  O        2.1958480    -0.8505260    -0.7431210
  O        1.2556930     1.4274900    -0.3299320
  C       -1.5803950    -0.0804270     0.2439630
  C       -0.3819400    -0.6334240    -0.5238140
  C       -1.8538570     1.3866740    -0.0822530
  C       -2.8221770    -0.9303370    -0.0290390
  H       -1.3285570    -0.1598550     1.3085440
  H       -0.4647110    -0.4152860    -1.5956970
  H       -0.3284455    -1.7013602    -0.4055221
  H       -2.1410800     1.4899610    -1.1367080
  H       -0.9572190     1.9851690     0.0829810
  H       -2.6779900     1.7735750     0.5301930
  H       -3.0772140    -0.9057670    -1.0956550
  H       -2.6591200    -1.9761140     0.2538760
  H       -3.6887270    -0.5571790     0.5306310
units angstrom
no_reorient  #important for SAPT in psi4, default
symmetry c1  #important for SAPT in psi4, default
}

set PROPERTIES_ORIGIN ["COM"]
properties('MP2/aug-cc-pvtz', properties = ['dipole'])
--------------------------------------------------------------------------

    Molecular point group: c1
  Charge       = -1
  Multiplicity = 1
  Basis Set: AUG-CC-PVTZ
    Blend: AUG-CC-PVTZ
  Basis Set: (AUG-CC-PVTZ AUX)
    Blend: AUG-CC-PVTZ-JKFIT

    Orbital Energies [Eh]
    ---------------------

    Doubly Occupied:

       1A    -91.999748     2A    -20.341633     3A    -20.340959
       4A    -20.340733     5A    -11.108378     6A    -11.104174
       7A    -11.095931     8A    -11.084604     9A     -8.961352
      10A     -6.646692    11A     -6.646232    12A     -6.646205
      13A     -1.258176    14A     -1.115336    15A     -1.114635
      16A     -0.966636    17A     -0.827950    18A     -0.810982
      19A     -0.664284    20A     -0.608906    21A     -0.521051
      22A     -0.493015    23A     -0.483352    24A     -0.460365
      25A     -0.446937    26A     -0.436339    27A     -0.420941
      28A     -0.403390    29A     -0.368597    30A     -0.350465
      31A     -0.340821    32A     -0.320420    33A     -0.320399
      34A     -0.277933    35A     -0.276037    36A     -0.248726
      37A     -0.240115

  @DF-RHF Final Energy:  -779.01459624826407

   => Energetics <=

    Nuclear Repulsion Energy =            516.9511839234160107
    One-Electron Energy =               -2111.7466627986700587
    Two-Electron Energy =                 815.7808826269899782
    Total Energy =                       -779.0145962482640698
  Basis Set: (AUG-CC-PVTZ AUX)
    Blend: AUG-CC-PVTZ-RI
    Molecular point group: c1

    Geometry (in Angstrom), charge = -1, multiplicity = 1:

       Center              X                  Y                   Z               Mass
    ------------   -----------------  -----------------  -----------------  -----------------
         S            1.108635108166    -0.023895318044     0.018953787243    31.972071174400
         O            1.100249108166    -0.286189318044     1.486131787243    15.994914619570
         O            2.070856108166    -0.854189318044    -0.754126212757    15.994914619570
         O            1.130701108166     1.423826681956    -0.340937212757    15.994914619570
         C           -1.705386891834    -0.084090318044     0.232957787243    12.000000000000
         C           -0.506931891834    -0.637087318044    -0.534819212757    12.000000000000
         C           -1.978848891834     1.383010681956    -0.093258212757    12.000000000000
         C           -2.947168891834    -0.934000318044    -0.040044212757    12.000000000000
         H           -1.453548891834    -0.163518318044     1.297538787243     1.007825032230
         H           -0.589702891834    -0.418949318044    -1.606702212757     1.007825032230
         H           -0.453437391834    -1.705023518044    -0.416527312757     1.007825032230
         H           -2.266071891834     1.486297681956    -1.147713212757     1.007825032230
         H           -1.082210891834     1.981505681956     0.071975787243     1.007825032230
         H           -2.802981891834     1.769911681956     0.519187787243     1.007825032230
         H           -3.202205891834    -0.909430318044    -1.106660212757     1.007825032230
         H           -2.784111891834    -1.979777318044     0.242870787243     1.007825032230
         H           -3.813718891834    -0.560842318044     0.519625787243     1.007825032230

  Basis Set: AUG-CC-PVTZ
    Blend: AUG-CC-PVTZ
  Basis Set: (AUG-CC-PVTZ AUX)
    Blend: AUG-CC-PVTZ-JKFIT
	 Reference Energy          =    -779.0145962482640698 [Eh]
	 Singles Energy            =      -0.0000000000000000 [Eh]
	 Same-Spin Energy          =      -0.4486188572806989 [Eh]
	 Opposite-Spin Energy      =      -1.3745889486326568 [Eh]
	 Correlation Energy        =      -1.8232078059133556 [Eh]
	 Total Energy              =    -780.8378040541774681 [Eh]

	 ================> DF-SCS-MP2 Energies <==================
	-----------------------------------------------------------
	 SCS Same-Spin Scale       =       0.3333333333333333 [-]
	 SCS Opposite-Spin Scale   =       1.2000000000000000 [-]
	 SCS Same-Spin Energy      =      -0.1495396190935663 [Eh]
	 SCS Opposite-Spin Energy  =      -1.6495067383591882 [Eh]
	 SCS Correlation Energy    =      -1.7990463574527544 [Eh]
	 SCS Total Energy          =    -780.8136426057168364 [Eh]
	-----------------------------------------------------------

  Dipole Moment: [D]
     X:    -6.8488      Y:    -0.8438      Z:    -0.7915     Total:     6.9458

*** Psi4 exiting successfully. Buy a developer a beer!
