                               Psi4 1.4a3.dev225

  ==> Input File <==

--------------------------------------------------------------------------
#psi4
#
memory 32 gb

molecule  {
-1 1
  S        1.2336270    -0.0202320     0.0299590
  O        1.2252410    -0.2825260     1.4971370
  O        2.1958480    -0.8505260    -0.7431210
  O        1.2556930     1.4274900    -0.3299320
  C       -1.5803950    -0.0804270     0.2439630
  C       -0.3374239    -0.6165278    -0.5085551
  C       -1.8538570     1.3866740    -0.0822530
  C       -2.8221770    -0.9303370    -0.0290390
  H       -1.3285570    -0.1598550     1.3085440
  H       -0.4647110    -0.4152860    -1.5956970
  H       -0.3274510    -1.7212140    -0.4033230
  H       -2.1410800     1.4899610    -1.1367080
  H       -0.9572190     1.9851690     0.0829810
  H       -2.6779900     1.7735750     0.5301930
  H       -3.0772140    -0.9057670    -1.0956550
  H       -2.6591200    -1.9761140     0.2538760
  H       -3.6887270    -0.5571790     0.5306310
units angstrom
no_reorient  #important for SAPT in psi4, default
symmetry c1  #important for SAPT in psi4, default
}

set PROPERTIES_ORIGIN ["COM"]
properties('MP2/aug-cc-pvtz', properties = ['dipole'])
--------------------------------------------------------------------------

    Molecular point group: c1
  Charge       = -1
  Multiplicity = 1
  Basis Set: AUG-CC-PVTZ
    Blend: AUG-CC-PVTZ
  Basis Set: (AUG-CC-PVTZ AUX)
    Blend: AUG-CC-PVTZ-JKFIT

    Orbital Energies [Eh]
    ---------------------

    Doubly Occupied:

       1A    -91.999841     2A    -20.341096     3A    -20.340751
       4A    -20.339968     5A    -11.109528     6A    -11.106116
       7A    -11.100052     8A    -11.084541     9A     -8.961858
      10A     -6.647325    11A     -6.646737    12A     -6.646709
      13A     -1.259639    14A     -1.115406    15A     -1.114865
      16A     -0.964164    17A     -0.831350    18A     -0.810781
      19A     -0.666522    20A     -0.607725    21A     -0.520468
      22A     -0.491830    23A     -0.482875    24A     -0.461611
      25A     -0.446647    26A     -0.436365    27A     -0.420939
      28A     -0.400246    29A     -0.367869    30A     -0.347572
      31A     -0.338084    32A     -0.320525    33A     -0.319365
      34A     -0.276775    35A     -0.274517    36A     -0.257198
      37A     -0.239931

  @DF-RHF Final Energy:  -779.01244806257660

   => Energetics <=

    Nuclear Repulsion Energy =            517.6378624630433478
    One-Electron Energy =               -2113.1050406538442985
    Two-Electron Energy =                 816.4547301282243552
    Total Energy =                       -779.0124480625765955
  Basis Set: (AUG-CC-PVTZ AUX)
    Blend: AUG-CC-PVTZ-RI
    Molecular point group: c1

    Geometry (in Angstrom), charge = -1, multiplicity = 1:

       Center              X                  Y                   Z               Mass
    ------------   -----------------  -----------------  -----------------  -----------------
         S            1.104729348401    -0.025228959756     0.017601332741    31.972071174400
         O            1.096343348401    -0.287522959756     1.484779332741    15.994914619570
         O            2.066950348401    -0.855522959756    -0.755478667259    15.994914619570
         O            1.126795348401     1.422493040244    -0.342289667259    15.994914619570
         C           -1.709292651599    -0.085423959756     0.231605332741    12.000000000000
         C           -0.466321551599    -0.621524759756    -0.520912767259    12.000000000000
         C           -1.982754651599     1.381677040244    -0.094610667259    12.000000000000
         C           -2.951074651599    -0.935333959756    -0.041396667259    12.000000000000
         H           -1.457454651599    -0.164851959756     1.296186332741     1.007825032230
         H           -0.593608651599    -0.420282959756    -1.608054667259     1.007825032230
         H           -0.456348651599    -1.726210959756    -0.415680667259     1.007825032230
         H           -2.269977651599     1.484964040244    -1.149065667259     1.007825032230
         H           -1.086116651599     1.980172040244     0.070623332741     1.007825032230
         H           -2.806887651599     1.768578040244     0.517835332741     1.007825032230
         H           -3.206111651599    -0.910763959756    -1.108012667259     1.007825032230
         H           -2.788017651599    -1.981110959756     0.241518332741     1.007825032230
         H           -3.817624651599    -0.562175959756     0.518273332741     1.007825032230

  Basis Set: AUG-CC-PVTZ
    Blend: AUG-CC-PVTZ
  Basis Set: (AUG-CC-PVTZ AUX)
    Blend: AUG-CC-PVTZ-JKFIT
	 Reference Energy          =    -779.0124480625765955 [Eh]
	 Singles Energy            =      -0.0000000000000000 [Eh]
	 Same-Spin Energy          =      -0.4486027902074838 [Eh]
	 Opposite-Spin Energy      =      -1.3745653155241753 [Eh]
	 Correlation Energy        =      -1.8231681057316591 [Eh]
	 Total Energy              =    -780.8356161683082064 [Eh]

	 ================> DF-SCS-MP2 Energies <==================
	-----------------------------------------------------------
	 SCS Same-Spin Scale       =       0.3333333333333333 [-]
	 SCS Opposite-Spin Scale   =       1.2000000000000000 [-]
	 SCS Same-Spin Energy      =      -0.1495342634024946 [Eh]
	 SCS Opposite-Spin Energy  =      -1.6494783786290104 [Eh]
	 SCS Correlation Energy    =      -1.7990126420315049 [Eh]
	 SCS Total Energy          =    -780.8114607046080664 [Eh]
	-----------------------------------------------------------

  Dipole Moment: [D]
     X:    -6.9117      Y:    -0.8572      Z:    -0.8000     Total:     7.0105

*** Psi4 exiting successfully. Buy a developer a beer!
