                               Psi4 1.4a3.dev225

  ==> Input File <==

--------------------------------------------------------------------------
#psi4
#
memory 32 gb

molecule  {
-1 1
  S        1.2336270    -0.0202320     0.0299590
  O        1.2252410    -0.2825260     1.4971370
  O        2.1958480    -0.8505260    -0.7431210
  O        1.2556930     1.4274900    -0.3299320
  C       -1.5803950    -0.0804270     0.2439630
  C       -0.4604268    -0.5972083    -0.4735323
  C       -1.8538570     1.3866740    -0.0822530
  C       -2.8221770    -0.9303370    -0.0290390
  H       -1.3285570    -0.1598550     1.3085440
  H       -0.4647110    -0.4152860    -1.5956970
  H       -0.3274510    -1.7212140    -0.4033230
  H       -2.1410800     1.4899610    -1.1367080
  H       -0.9572190     1.9851690     0.0829810
  H       -2.6779900     1.7735750     0.5301930
  H       -3.0772140    -0.9057670    -1.0956550
  H       -2.6591200    -1.9761140     0.2538760
  H       -3.6887270    -0.5571790     0.5306310
units angstrom
no_reorient  #important for SAPT in psi4, default
symmetry c1  #important for SAPT in psi4, default
}

set PROPERTIES_ORIGIN ["COM"]
properties('MP2/aug-cc-pvtz', properties = ['dipole'])
--------------------------------------------------------------------------

    Molecular point group: c1
  Charge       = -1
  Multiplicity = 1
  Basis Set: AUG-CC-PVTZ
    Blend: AUG-CC-PVTZ
  Basis Set: (AUG-CC-PVTZ AUX)
    Blend: AUG-CC-PVTZ-JKFIT

    Orbital Energies [Eh]
    ---------------------

    Doubly Occupied:

       1A    -92.000466     2A    -20.345996     3A    -20.340399
       4A    -20.340259     5A    -11.108644     6A    -11.102108
       7A    -11.099003     8A    -11.085386     9A     -8.961767
      10A     -6.647089    11A     -6.646600    12A     -6.646555
      13A     -1.257746    14A     -1.116883    15A     -1.114041
      16A     -0.980850    17A     -0.823172    18A     -0.811088
      19A     -0.669244    20A     -0.604614    21A     -0.524918
      22A     -0.490185    23A     -0.487348    24A     -0.457253
      25A     -0.446968    26A     -0.433288    27A     -0.420795
      28A     -0.400875    29A     -0.375866    30A     -0.355411
      31A     -0.334070    32A     -0.322008    33A     -0.321325
      34A     -0.281007    35A     -0.274946    36A     -0.241818
      37A     -0.238800

  @DF-RHF Final Energy:  -779.00240697411937

   => Energetics <=

    Nuclear Repulsion Energy =            517.1640224980982339
    One-Electron Energy =               -2112.1152796551064057
    Two-Electron Energy =                 815.9488501828886911
    Total Energy =                       -779.0024069741193671
  Basis Set: (AUG-CC-PVTZ AUX)
    Blend: AUG-CC-PVTZ-RI
    Molecular point group: c1

    Geometry (in Angstrom), charge = -1, multiplicity = 1:

       Center              X                  Y                   Z               Mass
    ------------   -----------------  -----------------  -----------------  -----------------
         S            1.115501183231    -0.026920842329     0.014534252071    31.972071174400
         O            1.107115183231    -0.289214842329     1.481712252071    15.994914619570
         O            2.077722183231    -0.857214842329    -0.758545747929    15.994914619570
         O            1.137567183231     1.420801157671    -0.345356747929    15.994914619570
         C           -1.698520816769    -0.087115842329     0.228538252071    12.000000000000
         C           -0.578552616769    -0.603897142329    -0.488957047929    12.000000000000
         C           -1.971982816769     1.379985157671    -0.097677747929    12.000000000000
         C           -2.940302816769    -0.937025842329    -0.044463747929    12.000000000000
         H           -1.446682816769    -0.166543842329     1.293119252071     1.007825032230
         H           -0.582836816769    -0.421974842329    -1.611121747929     1.007825032230
         H           -0.445576816769    -1.727902842329    -0.418747747929     1.007825032230
         H           -2.259205816769     1.483272157671    -1.152132747929     1.007825032230
         H           -1.075344816769     1.978480157671     0.067556252071     1.007825032230
         H           -2.796115816769     1.766886157671     0.514768252071     1.007825032230
         H           -3.195339816769    -0.912455842329    -1.111079747929     1.007825032230
         H           -2.777245816769    -1.982802842329     0.238451252071     1.007825032230
         H           -3.806852816769    -0.563867842329     0.515206252071     1.007825032230

  Basis Set: AUG-CC-PVTZ
    Blend: AUG-CC-PVTZ
  Basis Set: (AUG-CC-PVTZ AUX)
    Blend: AUG-CC-PVTZ-JKFIT
	 Reference Energy          =    -779.0024069741193671 [Eh]
	 Singles Energy            =      -0.0000000000000000 [Eh]
	 Same-Spin Energy          =      -0.4500825002980069 [Eh]
	 Opposite-Spin Energy      =      -1.3767154197689755 [Eh]
	 Correlation Energy        =      -1.8267979200669824 [Eh]
	 Total Energy              =    -780.8292048941863186 [Eh]

	 ================> DF-SCS-MP2 Energies <==================
	-----------------------------------------------------------
	 SCS Same-Spin Scale       =       0.3333333333333333 [-]
	 SCS Opposite-Spin Scale   =       1.2000000000000000 [-]
	 SCS Same-Spin Energy      =      -0.1500275000993356 [Eh]
	 SCS Opposite-Spin Energy  =      -1.6520585037227706 [Eh]
	 SCS Correlation Energy    =      -1.8020860038221063 [Eh]
	 SCS Total Energy          =    -780.8044929779414360 [Eh]
	-----------------------------------------------------------

  Dipole Moment: [D]
     X:    -6.7882      Y:    -0.7932      Z:    -0.7480     Total:     6.8752

*** Psi4 exiting successfully. Buy a developer a beer!
