                               Psi4 1.4a3.dev225

  ==> Input File <==

--------------------------------------------------------------------------
#psi4
#
memory 32 gb

molecule  {
-1 1
  S        1.2336270    -0.0202320     0.0299590
  O        1.2252410    -0.2825260     1.4971370
  O        2.1958480    -0.8505260    -0.7431210
  O        1.2556930     1.4274900    -0.3299320
  C       -1.5803950    -0.0804270     0.2439630
  C       -0.4264561    -0.6503202    -0.5390729
  C       -1.8538570     1.3866740    -0.0822530
  C       -2.8221770    -0.9303370    -0.0290390
  H       -1.3285570    -0.1598550     1.3085440
  H       -0.4647110    -0.4152860    -1.5956970
  H       -0.3274510    -1.7212140    -0.4033230
  H       -2.1410800     1.4899610    -1.1367080
  H       -0.9572190     1.9851690     0.0829810
  H       -2.6779900     1.7735750     0.5301930
  H       -3.0772140    -0.9057670    -1.0956550
  H       -2.6591200    -1.9761140     0.2538760
  H       -3.6887270    -0.5571790     0.5306310
units angstrom
no_reorient  #important for SAPT in psi4, default
symmetry c1  #important for SAPT in psi4, default
}

set PROPERTIES_ORIGIN ["COM"]
properties('MP2/aug-cc-pvtz', properties = ['dipole'])
--------------------------------------------------------------------------

    Molecular point group: c1
  Charge       = -1
  Multiplicity = 1
  Basis Set: AUG-CC-PVTZ
    Blend: AUG-CC-PVTZ
  Basis Set: (AUG-CC-PVTZ AUX)
    Blend: AUG-CC-PVTZ-JKFIT

    Orbital Energies [Eh]
    ---------------------

    Doubly Occupied:

       1A    -91.999409     2A    -20.342107     3A    -20.341473
       4A    -20.341285     5A    -11.107331     6A    -11.102908
       7A    -11.097089     8A    -11.085086     9A     -8.960754
      10A     -6.645991    11A     -6.645611    12A     -6.645582
      13A     -1.256944    14A     -1.115192    15A     -1.114538
      16A     -0.968907    17A     -0.822838    18A     -0.811122
      19A     -0.662599    20A     -0.608375    21A     -0.521813
      22A     -0.491246    23A     -0.483543    24A     -0.459183
      25A     -0.446859    26A     -0.436696    27A     -0.420809
      28A     -0.404305    29A     -0.369078    30A     -0.353292
      31A     -0.343097    32A     -0.321040    33A     -0.320278
      34A     -0.278782    35A     -0.276877    36A     -0.241297
      37A     -0.238499

  @DF-RHF Final Energy:  -779.01244874461077

   => Energetics <=

    Nuclear Repulsion Energy =            516.0803370516886162
    One-Electron Energy =               -2110.0219001449972893
    Two-Electron Energy =                 814.9291143486977944
    Total Energy =                       -779.0124487446107651
  Basis Set: (AUG-CC-PVTZ AUX)
    Blend: AUG-CC-PVTZ-RI
    Molecular point group: c1

    Geometry (in Angstrom), charge = -1, multiplicity = 1:

       Center              X                  Y                   Z               Mass
    ------------   -----------------  -----------------  -----------------  -----------------
         S            1.112526238986    -0.022269629924     0.020273893315    31.972071174400
         O            1.104140238986    -0.284563629924     1.487451893315    15.994914619570
         O            2.074747238986    -0.852563629924    -0.752806106685    15.994914619570
         O            1.134592238986     1.425452370076    -0.339617106685    15.994914619570
         C           -1.701495761014    -0.082464629924     0.234277893315    12.000000000000
         C           -0.547556861014    -0.652357829924    -0.548758006685    12.000000000000
         C           -1.974957761014     1.384636370076    -0.091938106685    12.000000000000
         C           -2.943277761014    -0.932374629924    -0.038724106685    12.000000000000
         H           -1.449657761014    -0.161892629924     1.298858893315     1.007825032230
         H           -0.585811761014    -0.417323629924    -1.605382106685     1.007825032230
         H           -0.448551761014    -1.723251629924    -0.413008106685     1.007825032230
         H           -2.262180761014     1.487923370076    -1.146393106685     1.007825032230
         H           -1.078319761014     1.983131370076     0.073295893315     1.007825032230
         H           -2.799090761014     1.771537370076     0.520507893315     1.007825032230
         H           -3.198314761014    -0.907804629924    -1.105340106685     1.007825032230
         H           -2.780220761014    -1.978151629924     0.244190893315     1.007825032230
         H           -3.809827761014    -0.559216629924     0.520945893315     1.007825032230

  Basis Set: AUG-CC-PVTZ
    Blend: AUG-CC-PVTZ
  Basis Set: (AUG-CC-PVTZ AUX)
    Blend: AUG-CC-PVTZ-JKFIT
	 Reference Energy          =    -779.0124487446107651 [Eh]
	 Singles Energy            =      -0.0000000000000000 [Eh]
	 Same-Spin Energy          =      -0.4489342387860502 [Eh]
	 Opposite-Spin Energy      =      -1.3753107440072403 [Eh]
	 Correlation Energy        =      -1.8242449827932905 [Eh]
	 Total Energy              =    -780.8366937274040538 [Eh]

	 ================> DF-SCS-MP2 Energies <==================
	-----------------------------------------------------------
	 SCS Same-Spin Scale       =       0.3333333333333333 [-]
	 SCS Opposite-Spin Scale   =       1.2000000000000000 [-]
	 SCS Same-Spin Energy      =      -0.1496447462620167 [Eh]
	 SCS Opposite-Spin Energy  =      -1.6503728928086883 [Eh]
	 SCS Correlation Energy    =      -1.8000176390707050 [Eh]
	 SCS Total Energy          =    -780.8124663836814534 [Eh]
	-----------------------------------------------------------

  Dipole Moment: [D]
     X:    -6.7822      Y:    -0.8030      Z:    -0.7771     Total:     6.8736

*** Psi4 exiting successfully. Buy a developer a beer!
