                               Psi4 1.4a3.dev225

  ==> Input File <==

--------------------------------------------------------------------------
#psi4
#
memory 32 gb

molecule  {
-1 1
  S        1.2336270    -0.0202320     0.0299590
  O        1.2252410    -0.2825260     1.4971370
  O        2.1958480    -0.8505260    -0.7431210
  O        1.2556930     1.4274900    -0.3299320
  C       -1.5803950    -0.0804270     0.2439630
  C       -0.3819400    -0.6334240    -0.5238140
  C       -1.8538570     1.3866740    -0.0822530
  C       -2.8221770    -0.9303370    -0.0290390
  H       -1.3285570    -0.1598550     1.3085440
  H       -0.4647110    -0.4152860    -1.5956970
  H       -0.3274510    -1.7212140    -0.4033230
  H       -2.1410800     1.4899610    -1.1367080
  H       -0.9572190     1.9851690     0.0829810
  H       -2.6779900     1.7735750     0.5301930
  H       -3.0772140    -0.9057670    -1.0956550
  H       -2.6293045    -1.9772369     0.2299568
  H       -3.6887270    -0.5571790     0.5306310
units angstrom
no_reorient  #important for SAPT in psi4, default
symmetry c1  #important for SAPT in psi4, default
}

set PROPERTIES_ORIGIN ["COM"]
properties('MP2/aug-cc-pvtz', properties = ['dipole'])
--------------------------------------------------------------------------

    Molecular point group: c1
  Charge       = -1
  Multiplicity = 1
  Basis Set: AUG-CC-PVTZ
    Blend: AUG-CC-PVTZ
  Basis Set: (AUG-CC-PVTZ AUX)
    Blend: AUG-CC-PVTZ-JKFIT

    Orbital Energies [Eh]
    ---------------------

    Doubly Occupied:

       1A    -91.999938     2A    -20.341670     3A    -20.341189
       4A    -20.340746     5A    -11.108313     6A    -11.104110
       7A    -11.098374     8A    -11.084628     9A     -8.961526
      10A     -6.646871    11A     -6.646406    12A     -6.646378
      13A     -1.258261    14A     -1.115367    15A     -1.114770
      16A     -0.966521    17A     -0.826583    18A     -0.810855
      19A     -0.664021    20A     -0.608313    21A     -0.520130
      22A     -0.492354    23A     -0.483839    24A     -0.459985
      25A     -0.447098    26A     -0.436508    27A     -0.420076
      28A     -0.403586    29A     -0.367877    30A     -0.349918
      31A     -0.340567    32A     -0.320471    33A     -0.320455
      34A     -0.277987    35A     -0.275942    36A     -0.248900
      37A     -0.240201

  @DF-RHF Final Energy:  -779.01431863828668

   => Energetics <=

    Nuclear Repulsion Energy =            516.8931363385943314
    One-Electron Energy =               -2111.6334385797345021
    Two-Electron Energy =                 815.7259836028534892
    Total Energy =                       -779.0143186382866816
  Basis Set: (AUG-CC-PVTZ AUX)
    Blend: AUG-CC-PVTZ-RI
    Molecular point group: c1

    Geometry (in Angstrom), charge = -1, multiplicity = 1:

       Center              X                  Y                   Z               Mass
    ------------   -----------------  -----------------  -----------------  -----------------
         S            1.108408502936    -0.023741035995     0.019113536942    31.972071174400
         O            1.100022502936    -0.286035035995     1.486291536942    15.994914619570
         O            2.070629502936    -0.854035035995    -0.753966463058    15.994914619570
         O            1.130474502936     1.423980964005    -0.340777463058    15.994914619570
         C           -1.705613497064    -0.083936035995     0.233117536942    12.000000000000
         C           -0.507158497064    -0.636933035995    -0.534659463058    12.000000000000
         C           -1.979075497064     1.383164964005    -0.093098463058    12.000000000000
         C           -2.947395497064    -0.933846035995    -0.039884463058    12.000000000000
         H           -1.453775497064    -0.163364035995     1.297698536942     1.007825032230
         H           -0.589929497064    -0.418795035995    -1.606542463058     1.007825032230
         H           -0.452669497064    -1.724723035995    -0.414168463058     1.007825032230
         H           -2.266298497064     1.486451964005    -1.147553463058     1.007825032230
         H           -1.082437497064     1.981659964005     0.072135536942     1.007825032230
         H           -2.803208497064     1.770065964005     0.519347536942     1.007825032230
         H           -3.202432497064    -0.909276035995    -1.106500463058     1.007825032230
         H           -2.754522997064    -1.980745935995     0.219111336942     1.007825032230
         H           -3.813945497064    -0.560688035995     0.519785536942     1.007825032230

  Basis Set: AUG-CC-PVTZ
    Blend: AUG-CC-PVTZ
  Basis Set: (AUG-CC-PVTZ AUX)
    Blend: AUG-CC-PVTZ-JKFIT
	 Reference Energy          =    -779.0143186382866816 [Eh]
	 Singles Energy            =      -0.0000000000000000 [Eh]
	 Same-Spin Energy          =      -0.4486814241062829 [Eh]
	 Opposite-Spin Energy      =      -1.3747937016324658 [Eh]
	 Correlation Energy        =      -1.8234751257387487 [Eh]
	 Total Energy              =    -780.8377937640253776 [Eh]

	 ================> DF-SCS-MP2 Energies <==================
	-----------------------------------------------------------
	 SCS Same-Spin Scale       =       0.3333333333333333 [-]
	 SCS Opposite-Spin Scale   =       1.2000000000000000 [-]
	 SCS Same-Spin Energy      =      -0.1495604747020943 [Eh]
	 SCS Opposite-Spin Energy  =      -1.6497524419589589 [Eh]
	 SCS Correlation Energy    =      -1.7993129166610531 [Eh]
	 SCS Total Energy          =    -780.8136315549477331 [Eh]
	-----------------------------------------------------------

  Dipole Moment: [D]
     X:    -6.8397      Y:    -0.8286      Z:    -0.7980     Total:     6.9357

*** Psi4 exiting successfully. Buy a developer a beer!
