                               Psi4 1.4a3.dev225

  ==> Input File <==

--------------------------------------------------------------------------
#psi4
#
memory 32 gb

molecule  {
-1 1
  S        1.2336270    -0.0202320     0.0299590
  O        1.2252410    -0.2825260     1.4971370
  O        2.1958480    -0.8505260    -0.7431210
  O        1.2556930     1.4274900    -0.3299320
  C       -1.5803950    -0.0804270     0.2439630
  C       -0.3819400    -0.6334240    -0.5238140
  C       -1.8538570     1.3866740    -0.0822530
  C       -2.8221770    -0.9303370    -0.0290390
  H       -1.3285570    -0.1598550     1.3085440
  H       -0.4647110    -0.4152860    -1.5956970
  H       -0.3274510    -1.7212140    -0.4033230
  H       -2.1410800     1.4899610    -1.1367080
  H       -0.9736617     1.9741937     0.0799509
  H       -2.6779900     1.7735750     0.5301930
  H       -3.0772140    -0.9057670    -1.0956550
  H       -2.6591200    -1.9761140     0.2538760
  H       -3.6887270    -0.5571790     0.5306310
units angstrom
no_reorient  #important for SAPT in psi4, default
symmetry c1  #important for SAPT in psi4, default
}

set PROPERTIES_ORIGIN ["COM"]
properties('MP2/aug-cc-pvtz', properties = ['dipole'])
--------------------------------------------------------------------------

    Molecular point group: c1
  Charge       = -1
  Multiplicity = 1
  Basis Set: AUG-CC-PVTZ
    Blend: AUG-CC-PVTZ
  Basis Set: (AUG-CC-PVTZ AUX)
    Blend: AUG-CC-PVTZ-JKFIT

    Orbital Energies [Eh]
    ---------------------

    Doubly Occupied:

       1A    -91.999839     2A    -20.341607     3A    -20.341122
       4A    -20.340664     5A    -11.108261     6A    -11.104242
       7A    -11.098280     8A    -11.082760     9A     -8.961430
      10A     -6.646775    11A     -6.646310    12A     -6.646283
      13A     -1.258175    14A     -1.115296    15A     -1.114662
      16A     -0.966609    17A     -0.826687    18A     -0.812476
      19A     -0.664715    20A     -0.608230    21A     -0.521132
      22A     -0.491521    23A     -0.484207    24A     -0.460496
      25A     -0.446875    26A     -0.436973    27A     -0.421048
      28A     -0.402662    29A     -0.369947    30A     -0.350252
      31A     -0.340815    32A     -0.320578    33A     -0.320393
      34A     -0.277909    35A     -0.276027    36A     -0.248848
      37A     -0.240162

  @DF-RHF Final Energy:  -779.01458389870129

   => Energetics <=

    Nuclear Repulsion Energy =            516.9042223551019788
    One-Electron Energy =               -2111.6490755147601703
    Two-Electron Energy =                 815.7302692609570158
    Total Energy =                       -779.0145838987012894
  Basis Set: (AUG-CC-PVTZ AUX)
    Blend: AUG-CC-PVTZ-RI
    Molecular point group: c1

    Geometry (in Angstrom), charge = -1, multiplicity = 1:

       Center              X                  Y                   Z               Mass
    ------------   -----------------  -----------------  -----------------  -----------------
         S            1.108748728513    -0.023668572335     0.018959899185    31.972071174400
         O            1.100362728513    -0.285962572335     1.486137899185    15.994914619570
         O            2.070969728513    -0.853962572335    -0.754120100815    15.994914619570
         O            1.130814728513     1.424053427665    -0.340931100815    15.994914619570
         C           -1.705273271487    -0.083863572335     0.232963899185    12.000000000000
         C           -0.506818271487    -0.636860572335    -0.534813100815    12.000000000000
         C           -1.978735271487     1.383237427665    -0.093252100815    12.000000000000
         C           -2.947055271487    -0.933773572335    -0.040038100815    12.000000000000
         H           -1.453435271487    -0.163291572335     1.297544899185     1.007825032230
         H           -0.589589271487    -0.418722572335    -1.606696100815     1.007825032230
         H           -0.452329271487    -1.724650572335    -0.414322100815     1.007825032230
         H           -2.265958271487     1.486524427665    -1.147707100815     1.007825032230
         H           -1.098539971487     1.970757127665     0.068951799185     1.007825032230
         H           -2.802868271487     1.770138427665     0.519193899185     1.007825032230
         H           -3.202092271487    -0.909203572335    -1.106654100815     1.007825032230
         H           -2.783998271487    -1.979550572335     0.242876899185     1.007825032230
         H           -3.813605271487    -0.560615572335     0.519631899185     1.007825032230

  Basis Set: AUG-CC-PVTZ
    Blend: AUG-CC-PVTZ
  Basis Set: (AUG-CC-PVTZ AUX)
    Blend: AUG-CC-PVTZ-JKFIT
	 Reference Energy          =    -779.0145838987012894 [Eh]
	 Singles Energy            =      -0.0000000000000000 [Eh]
	 Same-Spin Energy          =      -0.4485940581039378 [Eh]
	 Opposite-Spin Energy      =      -1.3745675487830955 [Eh]
	 Correlation Energy        =      -1.8231616068870333 [Eh]
	 Total Energy              =    -780.8377455055883729 [Eh]

	 ================> DF-SCS-MP2 Energies <==================
	-----------------------------------------------------------
	 SCS Same-Spin Scale       =       0.3333333333333333 [-]
	 SCS Opposite-Spin Scale   =       1.2000000000000000 [-]
	 SCS Same-Spin Energy      =      -0.1495313527013126 [Eh]
	 SCS Opposite-Spin Energy  =      -1.6494810585397146 [Eh]
	 SCS Correlation Energy    =      -1.7990124112410273 [Eh]
	 SCS Total Energy          =    -780.8135963099423407 [Eh]
	-----------------------------------------------------------

  Dipole Moment: [D]
     X:    -6.8551      Y:    -0.8245      Z:    -0.7892     Total:     6.9494

*** Psi4 exiting successfully. Buy a developer a beer!
