                               Psi4 1.4a3.dev225

  ==> Input File <==

--------------------------------------------------------------------------
#psi4
#
memory 32 gb

molecule  {
-1 1
  S        1.2336270    -0.0202320     0.0299590
  O        1.2252410    -0.2825260     1.4971370
  O        2.1958480    -0.8505260    -0.7431210
  O        1.2556930     1.4274900    -0.3299320
  C       -1.5803950    -0.0804270     0.2439630
  C       -0.3819400    -0.6334240    -0.5238140
  C       -1.8538570     1.3866740    -0.0822530
  C       -2.8221770    -0.9303370    -0.0290390
  H       -1.3285570    -0.1598550     1.3085440
  H       -0.4662201    -0.4113089    -1.6152394
  H       -0.3274510    -1.7212140    -0.4033230
  H       -2.1410800     1.4899610    -1.1367080
  H       -0.9572190     1.9851690     0.0829810
  H       -2.6779900     1.7735750     0.5301930
  H       -3.0772140    -0.9057670    -1.0956550
  H       -2.6591200    -1.9761140     0.2538760
  H       -3.6887270    -0.5571790     0.5306310
units angstrom
no_reorient  #important for SAPT in psi4, default
symmetry c1  #important for SAPT in psi4, default
}

set PROPERTIES_ORIGIN ["COM"]
properties('MP2/aug-cc-pvtz', properties = ['dipole'])
--------------------------------------------------------------------------

    Molecular point group: c1
  Charge       = -1
  Multiplicity = 1
  Basis Set: AUG-CC-PVTZ
    Blend: AUG-CC-PVTZ
  Basis Set: (AUG-CC-PVTZ AUX)
    Blend: AUG-CC-PVTZ-JKFIT

    Orbital Energies [Eh]
    ---------------------

    Doubly Occupied:

       1A    -92.000060     2A    -20.341875     3A    -20.341175
       4A    -20.340732     5A    -11.108363     6A    -11.104554
       7A    -11.100680     8A    -11.084774     9A     -8.961638
      10A     -6.646987    11A     -6.646516    12A     -6.646491
      13A     -1.258311    14A     -1.115458    15A     -1.114778
      16A     -0.966172    17A     -0.825632    18A     -0.810753
      19A     -0.664260    20A     -0.607224    21A     -0.520574
      22A     -0.491536    23A     -0.482889    24A     -0.459910
      25A     -0.446756    26A     -0.435454    27A     -0.420831
      28A     -0.401596    29A     -0.368529    30A     -0.350182
      31A     -0.340336    32A     -0.320523    33A     -0.320495
      34A     -0.277926    35A     -0.275909    36A     -0.249001
      37A     -0.240256

  @DF-RHF Final Energy:  -779.01393705618727

   => Energetics <=

    Nuclear Repulsion Energy =            516.7305019352996851
    One-Electron Energy =               -2111.3106092007001280
    Two-Electron Energy =                 815.5661702092130554
    Total Energy =                       -779.0139370561872738
  Basis Set: (AUG-CC-PVTZ AUX)
    Blend: AUG-CC-PVTZ-RI
    Molecular point group: c1

    Geometry (in Angstrom), charge = -1, multiplicity = 1:

       Center              X                  Y                   Z               Mass
    ------------   -----------------  -----------------  -----------------  -----------------
         S            1.108638893010    -0.023778546111     0.019081345908    31.972071174400
         O            1.100252893010    -0.286072546111     1.486259345908    15.994914619570
         O            2.070859893010    -0.854072546111    -0.753998654092    15.994914619570
         O            1.130704893010     1.423943453889    -0.340809654092    15.994914619570
         C           -1.705383106990    -0.083973546111     0.233085345908    12.000000000000
         C           -0.506928106990    -0.636970546111    -0.534691654092    12.000000000000
         C           -1.978845106990     1.383127453889    -0.093130654092    12.000000000000
         C           -2.947165106990    -0.933883546111    -0.039916654092    12.000000000000
         H           -1.453545106990    -0.163401546111     1.297666345908     1.007825032230
         H           -0.591208206990    -0.414855446111    -1.626117054092     1.007825032230
         H           -0.452439106990    -1.724760546111    -0.414200654092     1.007825032230
         H           -2.266068106990     1.486414453889    -1.147585654092     1.007825032230
         H           -1.082207106990     1.981622453889     0.072103345908     1.007825032230
         H           -2.802978106990     1.770028453889     0.519315345908     1.007825032230
         H           -3.202202106990    -0.909313546111    -1.106532654092     1.007825032230
         H           -2.784108106990    -1.979660546111     0.242998345908     1.007825032230
         H           -3.813715106990    -0.560725546111     0.519753345908     1.007825032230

  Basis Set: AUG-CC-PVTZ
    Blend: AUG-CC-PVTZ
  Basis Set: (AUG-CC-PVTZ AUX)
    Blend: AUG-CC-PVTZ-JKFIT
	 Reference Energy          =    -779.0139370561872738 [Eh]
	 Singles Energy            =      -0.0000000000000000 [Eh]
	 Same-Spin Energy          =      -0.4486791144064756 [Eh]
	 Opposite-Spin Energy      =      -1.3748908205033388 [Eh]
	 Correlation Energy        =      -1.8235699349098144 [Eh]
	 Total Energy              =    -780.8375069910971433 [Eh]

	 ================> DF-SCS-MP2 Energies <==================
	-----------------------------------------------------------
	 SCS Same-Spin Scale       =       0.3333333333333333 [-]
	 SCS Opposite-Spin Scale   =       1.2000000000000000 [-]
	 SCS Same-Spin Energy      =      -0.1495597048021585 [Eh]
	 SCS Opposite-Spin Energy  =      -1.6498689846040064 [Eh]
	 SCS Correlation Energy    =      -1.7994286894061648 [Eh]
	 SCS Total Energy          =    -780.8133657455933871 [Eh]
	-----------------------------------------------------------

  Dipole Moment: [D]
     X:    -6.8437      Y:    -0.8301      Z:    -0.7770     Total:     6.9375

*** Psi4 exiting successfully. Buy a developer a beer!
