                               Psi4 1.4a3.dev225

  ==> Input File <==

--------------------------------------------------------------------------
#psi4
#
memory 32 gb

molecule  {
-1 1
  S        1.2336270    -0.0202320     0.0299590
  O        1.2252410    -0.2825260     1.4971370
  O        2.1958480    -0.8505260    -0.7431210
  O        1.2556930     1.4274900    -0.3299320
  C       -1.5803950    -0.0804270     0.2439630
  C       -0.3819400    -0.6334240    -0.5238140
  C       -1.8538570     1.3866740    -0.0822530
  C       -2.8221770    -0.9303370    -0.0290390
  H       -1.3285570    -0.1598550     1.3085440
  H       -0.4647110    -0.4152860    -1.5956970
  H       -0.3274510    -1.7212140    -0.4033230
  H       -2.1410800     1.4899610    -1.1367080
  H       -0.8750056     2.0400454     0.0981314
  H       -2.6779900     1.7735750     0.5301930
  H       -3.0772140    -0.9057670    -1.0956550
  H       -2.6591200    -1.9761140     0.2538760
  H       -3.6887270    -0.5571790     0.5306310
units angstrom
no_reorient  #important for SAPT in psi4, default
symmetry c1  #important for SAPT in psi4, default
}

set PROPERTIES_ORIGIN ["COM"]
properties('MP2/aug-cc-pvtz', properties = ['dipole'])
--------------------------------------------------------------------------

    Molecular point group: c1
  Charge       = -1
  Multiplicity = 1
  Basis Set: AUG-CC-PVTZ
    Blend: AUG-CC-PVTZ
  Basis Set: (AUG-CC-PVTZ AUX)
    Blend: AUG-CC-PVTZ-JKFIT

    Orbital Energies [Eh]
    ---------------------

    Doubly Occupied:

       1A    -92.000162     2A    -20.341819     3A    -20.341435
       4A    -20.340937     5A    -11.108828     6A    -11.104857
       7A    -11.098485     8A    -11.094157     9A     -8.961753
      10A     -6.647096    11A     -6.646637    12A     -6.646604
      13A     -1.258526    14A     -1.115531    15A     -1.115207
      16A     -0.965628    17A     -0.826924    18A     -0.804069
      19A     -0.662617    20A     -0.608258    21A     -0.519953
      22A     -0.491701    23A     -0.478938    24A     -0.459955
      25A     -0.446540    26A     -0.433830    27A     -0.419672
      28A     -0.402007    29A     -0.360944    30A     -0.348064
      31A     -0.341120    32A     -0.320732    33A     -0.319328
      34A     -0.278175    35A     -0.274967    36A     -0.248829
      37A     -0.240166

  @DF-RHF Final Energy:  -779.00747994312837

   => Energetics <=

    Nuclear Repulsion Energy =            516.5438260080674127
    One-Electron Energy =               -2110.9537072128541695
    Two-Electron Energy =                 815.4024012616584969
    Total Energy =                       -779.0074799431283736
  Basis Set: (AUG-CC-PVTZ AUX)
    Blend: AUG-CC-PVTZ-RI
    Molecular point group: c1

    Geometry (in Angstrom), charge = -1, multiplicity = 1:

       Center              X                  Y                   Z               Mass
    ------------   -----------------  -----------------  -----------------  -----------------
         S            1.108023120328    -0.024152906629     0.018826182977    31.972071174400
         O            1.099637120328    -0.286446906629     1.486004182977    15.994914619570
         O            2.070244120328    -0.854446906629    -0.754253817023    15.994914619570
         O            1.130089120328     1.423569093371    -0.341064817023    15.994914619570
         C           -1.705998879672    -0.084347906629     0.232830182977    12.000000000000
         C           -0.507543879672    -0.637344906629    -0.534946817023    12.000000000000
         C           -1.979460879672     1.382753093371    -0.093385817023    12.000000000000
         C           -2.947780879672    -0.934257906629    -0.040171817023    12.000000000000
         H           -1.454160879672    -0.163775906629     1.297411182977     1.007825032230
         H           -0.590314879672    -0.419206906629    -1.606829817023     1.007825032230
         H           -0.453054879672    -1.725134906629    -0.414455817023     1.007825032230
         H           -2.266683879672     1.486040093371    -1.147840817023     1.007825032230
         H           -1.000609479672     2.036124493371     0.086998582977     1.007825032230
         H           -2.803593879672     1.769654093371     0.519060182977     1.007825032230
         H           -3.202817879672    -0.909687906629    -1.106787817023     1.007825032230
         H           -2.784723879672    -1.980034906629     0.242743182977     1.007825032230
         H           -3.814330879672    -0.561099906629     0.519498182977     1.007825032230

  Basis Set: AUG-CC-PVTZ
    Blend: AUG-CC-PVTZ
  Basis Set: (AUG-CC-PVTZ AUX)
    Blend: AUG-CC-PVTZ-JKFIT
	 Reference Energy          =    -779.0074799431283736 [Eh]
	 Singles Energy            =      -0.0000000000000000 [Eh]
	 Same-Spin Energy          =      -0.4489740529238859 [Eh]
	 Opposite-Spin Energy      =      -1.3757635968762090 [Eh]
	 Correlation Energy        =      -1.8247376498000949 [Eh]
	 Total Energy              =    -780.8322175929284867 [Eh]

	 ================> DF-SCS-MP2 Energies <==================
	-----------------------------------------------------------
	 SCS Same-Spin Scale       =       0.3333333333333333 [-]
	 SCS Opposite-Spin Scale   =       1.2000000000000000 [-]
	 SCS Same-Spin Energy      =      -0.1496580176412953 [Eh]
	 SCS Opposite-Spin Energy  =      -1.6509163162514506 [Eh]
	 SCS Correlation Energy    =      -1.8005743338927460 [Eh]
	 SCS Total Energy          =    -780.8080542770211423 [Eh]
	-----------------------------------------------------------

  Dipole Moment: [D]
     X:    -6.8049      Y:    -0.8713      Z:    -0.7947     Total:     6.9063

*** Psi4 exiting successfully. Buy a developer a beer!
