                               Psi4 1.4a3.dev225

  ==> Input File <==

--------------------------------------------------------------------------
#psi4
#
memory 32 gb

molecule  {
-1 1
  S        1.2336270    -0.0202320     0.0299590
  O        1.2252410    -0.2825260     1.4971370
  O        2.1958480    -0.8505260    -0.7431210
  O        1.2556930     1.4274900    -0.3299320
  C       -1.5803950    -0.0804270     0.2439630
  C       -0.3819400    -0.6334240    -0.5238140
  C       -1.8538570     1.3866740    -0.0822530
  C       -2.8221770    -0.9303370    -0.0290390
  H       -1.3285570    -0.1598550     1.3085440
  H       -0.4647110    -0.4152860    -1.5956970
  H       -0.3224785    -1.8204832    -0.3923273
  H       -2.1410800     1.4899610    -1.1367080
  H       -0.9572190     1.9851690     0.0829810
  H       -2.6779900     1.7735750     0.5301930
  H       -3.0772140    -0.9057670    -1.0956550
  H       -2.6591200    -1.9761140     0.2538760
  H       -3.6887270    -0.5571790     0.5306310
units angstrom
no_reorient  #important for SAPT in psi4, default
symmetry c1  #important for SAPT in psi4, default
}

set PROPERTIES_ORIGIN ["COM"]
properties('MP2/aug-cc-pvtz', properties = ['dipole'])
--------------------------------------------------------------------------

    Molecular point group: c1
  Charge       = -1
  Multiplicity = 1
  Basis Set: AUG-CC-PVTZ
    Blend: AUG-CC-PVTZ
  Basis Set: (AUG-CC-PVTZ AUX)
    Blend: AUG-CC-PVTZ-JKFIT

    Orbital Energies [Eh]
    ---------------------

    Doubly Occupied:

       1A    -92.000721     2A    -20.342338     3A    -20.341736
       4A    -20.340616     5A    -11.109821     6A    -11.108185
       7A    -11.105202     8A    -11.085711     9A     -8.962237
      10A     -6.647607    11A     -6.647120    12A     -6.647082
      13A     -1.258581    14A     -1.115491    15A     -1.115261
      16A     -0.965629    17A     -0.822201    18A     -0.809929
      19A     -0.664579    20A     -0.605646    21A     -0.520371
      22A     -0.487039    23A     -0.480087    24A     -0.460496
      25A     -0.446069    26A     -0.436803    27A     -0.420511
      28A     -0.398060    29A     -0.367387    30A     -0.347682
      31A     -0.340727    32A     -0.320743    33A     -0.320592
      34A     -0.278096    35A     -0.275100    36A     -0.249551
      37A     -0.240538

  @DF-RHF Final Energy:  -779.00771133765113

   => Energetics <=

    Nuclear Repulsion Energy =            516.3103627812342893
    One-Electron Energy =               -2110.4650552049442922
    Two-Electron Energy =                 815.1469810860588723
    Total Energy =                       -779.0077113376511306
  Basis Set: (AUG-CC-PVTZ AUX)
    Blend: AUG-CC-PVTZ-RI
    Molecular point group: c1

    Geometry (in Angstrom), charge = -1, multiplicity = 1:

       Center              X                  Y                   Z               Mass
    ------------   -----------------  -----------------  -----------------  -----------------
         S            1.108591221330    -0.023019177351     0.018856740482    31.972071174400
         O            1.100205221330    -0.285313177351     1.486034740482    15.994914619570
         O            2.070812221330    -0.853313177351    -0.754223259518    15.994914619570
         O            1.130657221330     1.424702822649    -0.341034259518    15.994914619570
         C           -1.705430778670    -0.083214177351     0.232860740482    12.000000000000
         C           -0.506975778670    -0.636211177351    -0.534916259518    12.000000000000
         C           -1.978892778670     1.383886822649    -0.093355259518    12.000000000000
         C           -2.947212778670    -0.933124177351    -0.040141259518    12.000000000000
         H           -1.453592778670    -0.162642177351     1.297441740482     1.007825032230
         H           -0.589746778670    -0.418073177351    -1.606799259518     1.007825032230
         H           -0.447514278670    -1.823270377351    -0.403429559518     1.007825032230
         H           -2.266115778670     1.487173822649    -1.147810259518     1.007825032230
         H           -1.082254778670     1.982381822649     0.071878740482     1.007825032230
         H           -2.803025778670     1.770787822649     0.519090740482     1.007825032230
         H           -3.202249778670    -0.908554177351    -1.106757259518     1.007825032230
         H           -2.784155778670    -1.978901177351     0.242773740482     1.007825032230
         H           -3.813762778670    -0.559966177351     0.519528740482     1.007825032230

  Basis Set: AUG-CC-PVTZ
    Blend: AUG-CC-PVTZ
  Basis Set: (AUG-CC-PVTZ AUX)
    Blend: AUG-CC-PVTZ-JKFIT
	 Reference Energy          =    -779.0077113376511306 [Eh]
	 Singles Energy            =      -0.0000000000000000 [Eh]
	 Same-Spin Energy          =      -0.4488240310467174 [Eh]
	 Opposite-Spin Energy      =      -1.3756468552800145 [Eh]
	 Correlation Energy        =      -1.8244708863267318 [Eh]
	 Total Energy              =    -780.8321822239778385 [Eh]

	 ================> DF-SCS-MP2 Energies <==================
	-----------------------------------------------------------
	 SCS Same-Spin Scale       =       0.3333333333333333 [-]
	 SCS Opposite-Spin Scale   =       1.2000000000000000 [-]
	 SCS Same-Spin Energy      =      -0.1496080103489058 [Eh]
	 SCS Opposite-Spin Energy  =      -1.6507762263360173 [Eh]
	 SCS Correlation Energy    =      -1.8003842366849230 [Eh]
	 SCS Total Energy          =    -780.8080955743361073 [Eh]
	-----------------------------------------------------------

  Dipole Moment: [D]
     X:    -6.8386      Y:    -0.7559      Z:    -0.7817     Total:     6.9245

*** Psi4 exiting successfully. Buy a developer a beer!
