                               Psi4 1.4a3.dev225

  ==> Input File <==

--------------------------------------------------------------------------
#psi4
#
memory 32 gb

molecule  {
-1 1
  S        1.2336270    -0.0202320     0.0299590
  O        1.2252410    -0.2825260     1.4971370
  O        2.1958480    -0.8505260    -0.7431210
  O        1.2556930     1.4274900    -0.3299320
  C       -1.5803950    -0.0804270     0.2439630
  C       -0.3819400    -0.6334240    -0.5238140
  C       -1.8538570     1.3866740    -0.0822530
  C       -2.8221770    -0.9303370    -0.0290390
  H       -1.3285570    -0.1598550     1.3085440
  H       -0.4647110    -0.4152860    -1.5956970
  H       -0.3274510    -1.7212140    -0.4033230
  H       -2.1410800     1.4899610    -1.1367080
  H       -0.9572190     1.9851690     0.0829810
  H       -2.6779900     1.7735750     0.5301930
  H       -3.0772140    -0.9057670    -1.0956550
  H       -2.6740033    -1.8806591     0.2280525
  H       -3.6887270    -0.5571790     0.5306310
units angstrom
no_reorient  #important for SAPT in psi4, default
symmetry c1  #important for SAPT in psi4, default
}

set PROPERTIES_ORIGIN ["COM"]
properties('MP2/aug-cc-pvtz', properties = ['dipole'])
--------------------------------------------------------------------------

    Molecular point group: c1
  Charge       = -1
  Multiplicity = 1
  Basis Set: AUG-CC-PVTZ
    Blend: AUG-CC-PVTZ
  Basis Set: (AUG-CC-PVTZ AUX)
    Blend: AUG-CC-PVTZ-JKFIT

    Orbital Energies [Eh]
    ---------------------

    Doubly Occupied:

       1A    -91.999780     2A    -20.341530     3A    -20.341007
       4A    -20.340601     5A    -11.103288     6A    -11.098240
       7A    -11.095292     8A    -11.083626     9A     -8.961368
      10A     -6.646714    11A     -6.646248    12A     -6.646221
      13A     -1.258104    14A     -1.115231    15A     -1.114595
      16A     -0.967767    17A     -0.831891    18A     -0.814202
      19A     -0.665784    20A     -0.608091    21A     -0.523439
      22A     -0.494796    23A     -0.486812    24A     -0.463040
      25A     -0.447143    26A     -0.435658    27A     -0.421332
      28A     -0.405042    29A     -0.368232    30A     -0.351275
      31A     -0.340625    32A     -0.320285    33A     -0.320272
      34A     -0.277831    35A     -0.275728    36A     -0.248616
      37A     -0.240038

  @DF-RHF Final Energy:  -779.00850152752241

   => Energetics <=

    Nuclear Repulsion Energy =            517.2952049638098515
    One-Electron Energy =               -2112.4079300170951683
    Two-Electron Energy =                 816.1042235257630182
    Total Energy =                       -779.0085015275224123
  Basis Set: (AUG-CC-PVTZ AUX)
    Blend: AUG-CC-PVTZ-RI
    Molecular point group: c1

    Geometry (in Angstrom), charge = -1, multiplicity = 1:

       Center              X                  Y                   Z               Mass
    ------------   -----------------  -----------------  -----------------  -----------------
         S            1.108737259244    -0.024451358440     0.019127542925    31.972071174400
         O            1.100351259244    -0.286745358440     1.486305542925    15.994914619570
         O            2.070958259244    -0.854745358440    -0.753952457075    15.994914619570
         O            1.130803259244     1.423270641560    -0.340763457075    15.994914619570
         C           -1.705284740756    -0.084646358440     0.233131542925    12.000000000000
         C           -0.506829740756    -0.637643358440    -0.534645457075    12.000000000000
         C           -1.978746740756     1.382454641560    -0.093084457075    12.000000000000
         C           -2.947066740756    -0.934556358440    -0.039870457075    12.000000000000
         H           -1.453446740756    -0.164074358440     1.297712542925     1.007825032230
         H           -0.589600740756    -0.419505358440    -1.606528457075     1.007825032230
         H           -0.452340740756    -1.725433358440    -0.414154457075     1.007825032230
         H           -2.265969740756     1.485741641560    -1.147539457075     1.007825032230
         H           -1.082108740756     1.980949641560     0.072149542925     1.007825032230
         H           -2.802879740756     1.769355641560     0.519361542925     1.007825032230
         H           -3.202103740756    -0.909986358440    -1.106486457075     1.007825032230
         H           -2.798893040756    -1.884878458440     0.217221042925     1.007825032230
         H           -3.813616740756    -0.561398358440     0.519799542925     1.007825032230

  Basis Set: AUG-CC-PVTZ
    Blend: AUG-CC-PVTZ
  Basis Set: (AUG-CC-PVTZ AUX)
    Blend: AUG-CC-PVTZ-JKFIT
	 Reference Energy          =    -779.0085015275224123 [Eh]
	 Singles Energy            =      -0.0000000000000000 [Eh]
	 Same-Spin Energy          =      -0.4486823350114830 [Eh]
	 Opposite-Spin Energy      =      -1.3742616401554322 [Eh]
	 Correlation Energy        =      -1.8229439751669152 [Eh]
	 Total Energy              =    -780.8314455026893484 [Eh]

	 ================> DF-SCS-MP2 Energies <==================
	-----------------------------------------------------------
	 SCS Same-Spin Scale       =       0.3333333333333333 [-]
	 SCS Opposite-Spin Scale   =       1.2000000000000000 [-]
	 SCS Same-Spin Energy      =      -0.1495607783371610 [Eh]
	 SCS Opposite-Spin Energy  =      -1.6491139681865186 [Eh]
	 SCS Correlation Energy    =      -1.7986747465236796 [Eh]
	 SCS Total Energy          =    -780.8071762740461281 [Eh]
	-----------------------------------------------------------

  Dipole Moment: [D]
     X:    -6.8615      Y:    -0.9074      Z:    -0.7774     Total:     6.9648

*** Psi4 exiting successfully. Buy a developer a beer!
