                               Psi4 1.4a3.dev225

  ==> Input File <==

--------------------------------------------------------------------------
#psi4
#
memory 32 gb

molecule  {
-1 1
  S        1.2336270    -0.0202320     0.0299590
  O        1.2252410    -0.2825260     1.4971370
  O        2.1958480    -0.8505260    -0.7431210
  O        1.2556930     1.4274900    -0.3299320
  C       -1.5803950    -0.0804270     0.2439630
  C       -0.3426966    -0.6515319    -0.5489548
  C       -1.8538570     1.3866740    -0.0822530
  C       -2.8221770    -0.9303370    -0.0290390
  H       -1.3285570    -0.1598550     1.3085440
  H       -0.4647110    -0.4152860    -1.5956970
  H       -0.3274510    -1.7212140    -0.4033230
  H       -2.1410800     1.4899610    -1.1367080
  H       -0.9572190     1.9851690     0.0829810
  H       -2.6779900     1.7735750     0.5301930
  H       -3.0772140    -0.9057670    -1.0956550
  H       -2.6591200    -1.9761140     0.2538760
  H       -3.6887270    -0.5571790     0.5306310
units angstrom
no_reorient  #important for SAPT in psi4, default
symmetry c1  #important for SAPT in psi4, default
}

set PROPERTIES_ORIGIN ["COM"]
properties('MP2/aug-cc-pvtz', properties = ['dipole'])
--------------------------------------------------------------------------

    Molecular point group: c1
  Charge       = -1
  Multiplicity = 1
  Basis Set: AUG-CC-PVTZ
    Blend: AUG-CC-PVTZ
  Basis Set: (AUG-CC-PVTZ AUX)
    Blend: AUG-CC-PVTZ-JKFIT

    Orbital Energies [Eh]
    ---------------------

    Doubly Occupied:

       1A    -91.999669     2A    -20.342394     3A    -20.341720
       4A    -20.338132     5A    -11.108346     6A    -11.106474
       7A    -11.097049     8A    -11.084607     9A     -8.961421
      10A     -6.646807    11A     -6.646311    12A     -6.646277
      13A     -1.258596    14A     -1.115541    15A     -1.114309
      16A     -0.960796    17A     -0.829136    18A     -0.810610
      19A     -0.661875    20A     -0.610268    21A     -0.519644
      22A     -0.492941    23A     -0.481232    24A     -0.462457
      25A     -0.447113    26A     -0.437580    27A     -0.420960
      28A     -0.404763    29A     -0.365031    30A     -0.349361
      31A     -0.339518    32A     -0.319744    33A     -0.319249
      34A     -0.277855    35A     -0.274996    36A     -0.251352
      37A     -0.239904

  @DF-RHF Final Energy:  -779.01304556976436

   => Energetics <=

    Nuclear Repulsion Energy =            516.7026377412695410
    One-Electron Energy =               -2111.2632936010581943
    Two-Electron Energy =                 815.5476102900244086
    Total Energy =                       -779.0130455697643583
  Basis Set: (AUG-CC-PVTZ AUX)
    Blend: AUG-CC-PVTZ-RI
    Molecular point group: c1

    Geometry (in Angstrom), charge = -1, multiplicity = 1:

       Center              X                  Y                   Z               Mass
    ------------   -----------------  -----------------  -----------------  -----------------
         S            1.105191098925    -0.022163516717     0.021139289127    31.972071174400
         O            1.096805098925    -0.284457516717     1.488317289127    15.994914619570
         O            2.067412098925    -0.852457516717    -0.751940710873    15.994914619570
         O            1.127257098925     1.425558483283    -0.338751710873    15.994914619570
         C           -1.708830901075    -0.082358516717     0.235143289127    12.000000000000
         C           -0.471132501075    -0.653463416717    -0.557774510873    12.000000000000
         C           -1.982292901075     1.384742483283    -0.091072710873    12.000000000000
         C           -2.950612901075    -0.932268516717    -0.037858710873    12.000000000000
         H           -1.456992901075    -0.161786516717     1.299724289127     1.007825032230
         H           -0.593146901075    -0.417217516717    -1.604516710873     1.007825032230
         H           -0.455886901075    -1.723145516717    -0.412142710873     1.007825032230
         H           -2.269515901075     1.488029483283    -1.145527710873     1.007825032230
         H           -1.085654901075     1.983237483283     0.074161289127     1.007825032230
         H           -2.806425901075     1.771643483283     0.521373289127     1.007825032230
         H           -3.205649901075    -0.907698516717    -1.104474710873     1.007825032230
         H           -2.787555901075    -1.978045516717     0.245056289127     1.007825032230
         H           -3.817162901075    -0.559110516717     0.521811289127     1.007825032230

  Basis Set: AUG-CC-PVTZ
    Blend: AUG-CC-PVTZ
  Basis Set: (AUG-CC-PVTZ AUX)
    Blend: AUG-CC-PVTZ-JKFIT
	 Reference Energy          =    -779.0130455697643583 [Eh]
	 Singles Energy            =      -0.0000000000000000 [Eh]
	 Same-Spin Energy          =      -0.4483090149791710 [Eh]
	 Opposite-Spin Energy      =      -1.3743863473448215 [Eh]
	 Correlation Energy        =      -1.8226953623239925 [Eh]
	 Total Energy              =    -780.8357409320883562 [Eh]

	 ================> DF-SCS-MP2 Energies <==================
	-----------------------------------------------------------
	 SCS Same-Spin Scale       =       0.3333333333333333 [-]
	 SCS Opposite-Spin Scale   =       1.2000000000000000 [-]
	 SCS Same-Spin Energy      =      -0.1494363383263903 [Eh]
	 SCS Opposite-Spin Energy  =      -1.6492636168137857 [Eh]
	 SCS Correlation Energy    =      -1.7986999551401761 [Eh]
	 SCS Total Energy          =    -780.8117455249044951 [Eh]
	-----------------------------------------------------------

  Dipole Moment: [D]
     X:    -6.8706      Y:    -0.8429      Z:    -0.8033     Total:     6.9686

*** Psi4 exiting successfully. Buy a developer a beer!
