                               Psi4 1.4a3.dev225

  ==> Input File <==

--------------------------------------------------------------------------
#psi4
#
memory 32 gb

molecule  {
-1 1
  S        1.2336270    -0.0202320     0.0299590
  O        1.2252410    -0.2825260     1.4971370
  O        2.1958480    -0.8505260    -0.7431210
  O        1.2556930     1.4274900    -0.3299320
  C       -1.5803950    -0.0804270     0.2439630
  C       -0.3819400    -0.6334240    -0.5238140
  C       -1.8538570     1.3866740    -0.0822530
  C       -2.8221770    -0.9303370    -0.0290390
  H       -1.3285570    -0.1598550     1.3085440
  H       -0.4647110    -0.4152860    -1.5956970
  H       -0.3274510    -1.7212140    -0.4033230
  H       -2.1410800     1.4899610    -1.1367080
  H       -0.9572190     1.9851690     0.0829810
  H       -2.6779900     1.7735750     0.5301930
  H       -3.0772140    -0.9057670    -1.0956550
  H       -2.6516784    -2.0238414     0.2667877
  H       -3.6887270    -0.5571790     0.5306310
units angstrom
no_reorient  #important for SAPT in psi4, default
symmetry c1  #important for SAPT in psi4, default
}

set PROPERTIES_ORIGIN ["COM"]
properties('MP2/aug-cc-pvtz', properties = ['dipole'])
--------------------------------------------------------------------------

    Molecular point group: c1
  Charge       = -1
  Multiplicity = 1
  Basis Set: AUG-CC-PVTZ
    Blend: AUG-CC-PVTZ
  Basis Set: (AUG-CC-PVTZ AUX)
    Blend: AUG-CC-PVTZ-JKFIT

    Orbital Energies [Eh]
    ---------------------

    Doubly Occupied:

       1A    -91.999962     2A    -20.341710     3A    -20.341264
       4A    -20.340772     5A    -11.114673     6A    -11.104997
       7A    -11.098368     8A    -11.085446     9A     -8.961554
      10A     -6.646898    11A     -6.646435    12A     -6.646406
      13A     -1.258308    14A     -1.115398    15A     -1.114838
      16A     -0.966101    17A     -0.825554    18A     -0.808902
      19A     -0.663842    20A     -0.608332    21A     -0.520279
      22A     -0.491110    23A     -0.481017    24A     -0.458733
      25A     -0.446486    26A     -0.436872    27A     -0.420755
      28A     -0.400795    29A     -0.368495    30A     -0.349262
      31A     -0.340863    32A     -0.320559    33A     -0.320544
      34A     -0.278025    35A     -0.276012    36A     -0.248992
      37A     -0.240260

  @DF-RHF Final Energy:  -779.01245369554454

   => Energetics <=

    Nuclear Repulsion Energy =            516.6317577709703528
    One-Electron Energy =               -2111.1107876412102087
    Two-Electron Energy =                 815.4665761746953194
    Total Energy =                       -779.0124536955445365
  Basis Set: (AUG-CC-PVTZ AUX)
    Blend: AUG-CC-PVTZ-RI
    Molecular point group: c1

    Geometry (in Angstrom), charge = -1, multiplicity = 1:

       Center              X                  Y                   Z               Mass
    ------------   -----------------  -----------------  -----------------  -----------------
         S            1.108573061286    -0.023398263408     0.018842648447    31.972071174400
         O            1.100187061286    -0.285692263408     1.486020648447    15.994914619570
         O            2.070794061286    -0.853692263408    -0.754237351553    15.994914619570
         O            1.130639061286     1.424323736592    -0.341048351553    15.994914619570
         C           -1.705448938714    -0.083593263408     0.232846648447    12.000000000000
         C           -0.506993938714    -0.636590263408    -0.534930351553    12.000000000000
         C           -1.978910938714     1.383507736592    -0.093369351553    12.000000000000
         C           -2.947230938714    -0.933503263408    -0.040155351553    12.000000000000
         H           -1.453610938714    -0.163021263408     1.297427648447     1.007825032230
         H           -0.589764938714    -0.418452263408    -1.606813351553     1.007825032230
         H           -0.452504938714    -1.724380263408    -0.414439351553     1.007825032230
         H           -2.266133938714     1.486794736592    -1.147824351553     1.007825032230
         H           -1.082272938714     1.982002736592     0.071864648447     1.007825032230
         H           -2.803043938714     1.770408736592     0.519076648447     1.007825032230
         H           -3.202267938714    -0.908933263408    -1.106771351553     1.007825032230
         H           -2.776732338714    -2.027007663408     0.255671348447     1.007825032230
         H           -3.813780938714    -0.560345263408     0.519514648447     1.007825032230

  Basis Set: AUG-CC-PVTZ
    Blend: AUG-CC-PVTZ
  Basis Set: (AUG-CC-PVTZ AUX)
    Blend: AUG-CC-PVTZ-JKFIT
	 Reference Energy          =    -779.0124536955445365 [Eh]
	 Singles Energy            =      -0.0000000000000000 [Eh]
	 Same-Spin Energy          =      -0.4486406369764907 [Eh]
	 Opposite-Spin Energy      =      -1.3750661935149731 [Eh]
	 Correlation Energy        =      -1.8237068304914636 [Eh]
	 Total Energy              =    -780.8361605260359966 [Eh]

	 ================> DF-SCS-MP2 Energies <==================
	-----------------------------------------------------------
	 SCS Same-Spin Scale       =       0.3333333333333333 [-]
	 SCS Opposite-Spin Scale   =       1.2000000000000000 [-]
	 SCS Same-Spin Energy      =      -0.1495468789921636 [Eh]
	 SCS Opposite-Spin Energy  =      -1.6500794322179677 [Eh]
	 SCS Correlation Energy    =      -1.7996263112101312 [Eh]
	 SCS Total Energy          =    -780.8120800067546270 [Eh]
	-----------------------------------------------------------

  Dipole Moment: [D]
     X:    -6.8395      Y:    -0.7856      Z:    -0.7980     Total:     6.9306

*** Psi4 exiting successfully. Buy a developer a beer!
