                               Psi4 1.4a3.dev225

  ==> Input File <==

--------------------------------------------------------------------------
#psi4
#
memory 32 gb

molecule  {
-1 1
  S        1.2336270    -0.0202320     0.0299590
  O        1.2252410    -0.2825260     1.4971370
  O        2.1958480    -0.8505260    -0.7431210
  O        1.2556930     1.4274900    -0.3299320
  C       -1.5803950    -0.0804270     0.2439630
  C       -0.3662426    -0.6406671    -0.5338703
  C       -1.8538570     1.3866740    -0.0822530
  C       -2.8221770    -0.9303370    -0.0290390
  H       -1.3285570    -0.1598550     1.3085440
  H       -0.4647110    -0.4152860    -1.5956970
  H       -0.3274510    -1.7212140    -0.4033230
  H       -2.1410800     1.4899610    -1.1367080
  H       -0.9572190     1.9851690     0.0829810
  H       -2.6779900     1.7735750     0.5301930
  H       -3.0772140    -0.9057670    -1.0956550
  H       -2.6591200    -1.9761140     0.2538760
  H       -3.6887270    -0.5571790     0.5306310
units angstrom
no_reorient  #important for SAPT in psi4, default
symmetry c1  #important for SAPT in psi4, default
}

set PROPERTIES_ORIGIN ["COM"]
properties('MP2/aug-cc-pvtz', properties = ['dipole'])
--------------------------------------------------------------------------

    Molecular point group: c1
  Charge       = -1
  Multiplicity = 1
  Basis Set: AUG-CC-PVTZ
    Blend: AUG-CC-PVTZ
  Basis Set: (AUG-CC-PVTZ AUX)
    Blend: AUG-CC-PVTZ-JKFIT

    Orbital Energies [Eh]
    ---------------------

    Doubly Occupied:

       1A    -91.999790     2A    -20.341929     3A    -20.341376
       4A    -20.339665     5A    -11.108334     6A    -11.105231
       7A    -11.097750     8A    -11.084694     9A     -8.961445
      10A     -6.646803    11A     -6.646329    12A     -6.646302
      13A     -1.258362    14A     -1.115313    15A     -1.114650
      16A     -0.964040    17A     -0.827647    18A     -0.810753
      19A     -0.663315    20A     -0.609023    21A     -0.520300
      22A     -0.492040    23A     -0.482341    24A     -0.461173
      25A     -0.446882    26A     -0.436911    27A     -0.420875
      28A     -0.403384    29A     -0.366973    30A     -0.349522
      31A     -0.340750    32A     -0.320155    33A     -0.320064
      34A     -0.277761    35A     -0.275643    36A     -0.250055
      37A     -0.240065

  @DF-RHF Final Energy:  -779.01444242593288

   => Energetics <=

    Nuclear Repulsion Energy =            516.7832779127874119
    One-Electron Energy =               -2111.4201555682843718
    Two-Electron Energy =                 815.6224352295639619
    Total Energy =                       -779.0144424259328844
  Basis Set: (AUG-CC-PVTZ AUX)
    Blend: AUG-CC-PVTZ-RI
    Molecular point group: c1

    Geometry (in Angstrom), charge = -1, multiplicity = 1:

       Center              X                  Y                   Z               Mass
    ------------   -----------------  -----------------  -----------------  -----------------
         S            1.107253112283    -0.023114988845     0.019818281716    31.972071174400
         O            1.098867112283    -0.285408988845     1.486996281716    15.994914619570
         O            2.069474112283    -0.853408988845    -0.753261718284    15.994914619570
         O            1.129319112283     1.424607011155    -0.340072718284    15.994914619570
         C           -1.706768887717    -0.083309988845     0.233822281716    12.000000000000
         C           -0.492616487717    -0.643550088845    -0.544011018284    12.000000000000
         C           -1.980230887717     1.383791011155    -0.092393718284    12.000000000000
         C           -2.948550887717    -0.933219988845    -0.039179718284    12.000000000000
         H           -1.454930887717    -0.162737988845     1.298403281716     1.007825032230
         H           -0.591084887717    -0.418168988845    -1.605837718284     1.007825032230
         H           -0.453824887717    -1.724096988845    -0.413463718284     1.007825032230
         H           -2.267453887717     1.487078011155    -1.146848718284     1.007825032230
         H           -1.083592887717     1.982286011155     0.072840281716     1.007825032230
         H           -2.804363887717     1.770692011155     0.520052281716     1.007825032230
         H           -3.203587887717    -0.908649988845    -1.105795718284     1.007825032230
         H           -2.785493887717    -1.978996988845     0.243735281716     1.007825032230
         H           -3.815100887717    -0.560061988845     0.520490281716     1.007825032230

  Basis Set: AUG-CC-PVTZ
    Blend: AUG-CC-PVTZ
  Basis Set: (AUG-CC-PVTZ AUX)
    Blend: AUG-CC-PVTZ-JKFIT
	 Reference Energy          =    -779.0144424259328844 [Eh]
	 Singles Energy            =      -0.0000000000000000 [Eh]
	 Same-Spin Energy          =      -0.4484847328327464 [Eh]
	 Opposite-Spin Energy      =      -1.3745487646285435 [Eh]
	 Correlation Energy        =      -1.8230334974612898 [Eh]
	 Total Energy              =    -780.8374759233942086 [Eh]

	 ================> DF-SCS-MP2 Energies <==================
	-----------------------------------------------------------
	 SCS Same-Spin Scale       =       0.3333333333333333 [-]
	 SCS Opposite-Spin Scale   =       1.2000000000000000 [-]
	 SCS Same-Spin Energy      =      -0.1494949109442488 [Eh]
	 SCS Opposite-Spin Energy  =      -1.6494585175542522 [Eh]
	 SCS Correlation Energy    =      -1.7989534284985009 [Eh]
	 SCS Total Energy          =    -780.8133958544314055 [Eh]
	-----------------------------------------------------------

  Dipole Moment: [D]
     X:    -6.8573      Y:    -0.8364      Z:    -0.7958     Total:     6.9539

*** Psi4 exiting successfully. Buy a developer a beer!
