                               Psi4 1.4a3.dev225

  ==> Input File <==

--------------------------------------------------------------------------
#psi4
#
memory 32 gb

molecule  {
-1 1
  S        1.2336270    -0.0202320     0.0299590
  O        1.2252410    -0.2825260     1.4971370
  O        2.1958480    -0.8505260    -0.7431210
  O        1.2556930     1.4274900    -0.3299320
  C       -1.5803950    -0.0804270     0.2439630
  C       -0.3819400    -0.6334240    -0.5238140
  C       -1.8538570     1.3866740    -0.0822530
  C       -2.8221770    -0.9303370    -0.0290390
  H       -1.3285570    -0.1598550     1.3085440
  H       -0.4647110    -0.4152860    -1.5956970
  H       -0.3324235    -1.6219448    -0.4143187
  H       -2.1410800     1.4899610    -1.1367080
  H       -0.9572190     1.9851690     0.0829810
  H       -2.6779900     1.7735750     0.5301930
  H       -3.0772140    -0.9057670    -1.0956550
  H       -2.6591200    -1.9761140     0.2538760
  H       -3.6887270    -0.5571790     0.5306310
units angstrom
no_reorient  #important for SAPT in psi4, default
symmetry c1  #important for SAPT in psi4, default
}

set PROPERTIES_ORIGIN ["COM"]
properties('MP2/aug-cc-pvtz', properties = ['dipole'])
--------------------------------------------------------------------------

    Molecular point group: c1
  Charge       = -1
  Multiplicity = 1
  Basis Set: AUG-CC-PVTZ
    Blend: AUG-CC-PVTZ
  Basis Set: (AUG-CC-PVTZ AUX)
    Blend: AUG-CC-PVTZ-JKFIT

    Orbital Energies [Eh]
    ---------------------

    Doubly Occupied:

       1A    -91.999291     2A    -20.341658     3A    -20.340893
       4A    -20.340255     5A    -11.108517     6A    -11.103633
       7A    -11.086216     8A    -11.084040     9A     -8.960940
      10A     -6.646263    11A     -6.645818    12A     -6.645797
      13A     -1.258041    14A     -1.115400    15A     -1.114274
      16A     -0.967996    17A     -0.834174    18A     -0.811428
      19A     -0.664325    20A     -0.612302    21A     -0.522481
      22A     -0.499697    23A     -0.483805    24A     -0.460343
      25A     -0.447579    26A     -0.436125    27A     -0.421512
      28A     -0.406438    29A     -0.369175    30A     -0.351728
      31A     -0.340646    32A     -0.320376    33A     -0.320230
      34A     -0.277926    35A     -0.276522    36A     -0.248328
      37A     -0.239939

  @DF-RHF Final Energy:  -779.00888290639898

   => Energetics <=

    Nuclear Repulsion Energy =            517.4208033942362590
    One-Electron Energy =               -2112.6511475964398414
    Two-Electron Energy =                 816.2214612958044881
    Total Energy =                       -779.0088829063989806
  Basis Set: (AUG-CC-PVTZ AUX)
    Blend: AUG-CC-PVTZ-RI
    Molecular point group: c1

    Geometry (in Angstrom), charge = -1, multiplicity = 1:

       Center              X                  Y                   Z               Mass
    ------------   -----------------  -----------------  -----------------  -----------------
         S            1.108664366056    -0.024479412329     0.019018485573    31.972071174400
         O            1.100278366056    -0.286773412329     1.486196485573    15.994914619570
         O            2.070885366056    -0.854773412329    -0.754061514427    15.994914619570
         O            1.130730366056     1.423242587671    -0.340872514427    15.994914619570
         C           -1.705357633944    -0.084674412329     0.233022485573    12.000000000000
         C           -0.506902633944    -0.637671412329    -0.534754514427    12.000000000000
         C           -1.978819633944     1.382426587671    -0.093193514427    12.000000000000
         C           -2.947139633944    -0.934584412329    -0.039979514427    12.000000000000
         H           -1.453519633944    -0.164102412329     1.297603485573     1.007825032230
         H           -0.589673633944    -0.419533412329    -1.606637514427     1.007825032230
         H           -0.457386133944    -1.626192212329    -0.425259214427     1.007825032230
         H           -2.266042633944     1.485713587671    -1.147648514427     1.007825032230
         H           -1.082181633944     1.980921587671     0.072040485573     1.007825032230
         H           -2.802952633944     1.769327587671     0.519252485573     1.007825032230
         H           -3.202176633944    -0.910014412329    -1.106595514427     1.007825032230
         H           -2.784082633944    -1.980361412329     0.242935485573     1.007825032230
         H           -3.813689633944    -0.561426412329     0.519690485573     1.007825032230

  Basis Set: AUG-CC-PVTZ
    Blend: AUG-CC-PVTZ
  Basis Set: (AUG-CC-PVTZ AUX)
    Blend: AUG-CC-PVTZ-JKFIT
	 Reference Energy          =    -779.0088829063989806 [Eh]
	 Singles Energy            =      -0.0000000000000000 [Eh]
	 Same-Spin Energy          =      -0.4485196764293889 [Eh]
	 Opposite-Spin Energy      =      -1.3741269785538064 [Eh]
	 Correlation Energy        =      -1.8226466549831952 [Eh]
	 Total Energy              =    -780.8315295613821263 [Eh]

	 ================> DF-SCS-MP2 Energies <==================
	-----------------------------------------------------------
	 SCS Same-Spin Scale       =       0.3333333333333333 [-]
	 SCS Opposite-Spin Scale   =       1.2000000000000000 [-]
	 SCS Same-Spin Energy      =      -0.1495065588097963 [Eh]
	 SCS Opposite-Spin Energy  =      -1.6489523742645675 [Eh]
	 SCS Correlation Energy    =      -1.7984589330743639 [Eh]
	 SCS Total Energy          =    -780.8073418394733380 [Eh]
	-----------------------------------------------------------

  Dipole Moment: [D]
     X:    -6.8533      Y:    -0.8852      Z:    -0.7970     Total:     6.9561

*** Psi4 exiting successfully. Buy a developer a beer!
