                               Psi4 1.4a3.dev225

  ==> Input File <==

--------------------------------------------------------------------------
#psi4
#
memory 32 gb

molecule  {
-1 1
  S        1.2336270    -0.0202320     0.0299590
  O        1.2252410    -0.2825260     1.4971370
  O        2.1958480    -0.8505260    -0.7431210
  O        1.2556930     1.4274900    -0.3299320
  C       -1.5803950    -0.0804270     0.2439630
  C       -0.3819400    -0.6334240    -0.5238140
  C       -1.8538570     1.3866740    -0.0822530
  C       -2.8221770    -0.9303370    -0.0290390
  H       -1.3515173    -0.1526135     1.2114853
  H       -0.4647110    -0.4152860    -1.5956970
  H       -0.3274510    -1.7212140    -0.4033230
  H       -2.1410800     1.4899610    -1.1367080
  H       -0.9572190     1.9851690     0.0829810
  H       -2.6779900     1.7735750     0.5301930
  H       -3.0772140    -0.9057670    -1.0956550
  H       -2.6591200    -1.9761140     0.2538760
  H       -3.6887270    -0.5571790     0.5306310
units angstrom
no_reorient  #important for SAPT in psi4, default
symmetry c1  #important for SAPT in psi4, default
}

set PROPERTIES_ORIGIN ["COM"]
properties('MP2/aug-cc-pvtz', properties = ['dipole'])
--------------------------------------------------------------------------

    Molecular point group: c1
  Charge       = -1
  Multiplicity = 1
  Basis Set: AUG-CC-PVTZ
    Blend: AUG-CC-PVTZ
  Basis Set: (AUG-CC-PVTZ AUX)
    Blend: AUG-CC-PVTZ-JKFIT

    Orbital Energies [Eh]
    ---------------------

    Doubly Occupied:

       1A    -91.999808     2A    -20.341823     3A    -20.341062
       4A    -20.340585     5A    -11.107813     6A    -11.097566
       7A    -11.092288     8A    -11.084122     9A     -8.961397
      10A     -6.646735    11A     -6.646278    12A     -6.646254
      13A     -1.258200    14A     -1.115363    15A     -1.114666
      16A     -0.970703    17A     -0.826302    18A     -0.810483
      19A     -0.676102    20A     -0.612209    21A     -0.523843
      22A     -0.491326    23A     -0.482909    24A     -0.460650
      25A     -0.446743    26A     -0.436146    27A     -0.421050
      28A     -0.402459    29A     -0.368673    30A     -0.352564
      31A     -0.348600    32A     -0.321329    33A     -0.320405
      34A     -0.277983    35A     -0.275781    36A     -0.248589
      37A     -0.240210

  @DF-RHF Final Energy:  -779.00888172449538

   => Energetics <=

    Nuclear Repulsion Energy =            517.3411637998140122
    One-Electron Energy =               -2112.4820538036883590
    Two-Electron Energy =                 816.1320082793789652
    Total Energy =                       -779.0088817244953816
  Basis Set: (AUG-CC-PVTZ AUX)
    Blend: AUG-CC-PVTZ-RI
    Molecular point group: c1

    Geometry (in Angstrom), charge = -1, multiplicity = 1:

       Center              X                  Y                   Z               Mass
    ------------   -----------------  -----------------  -----------------  -----------------
         S            1.108796664971    -0.023802555527     0.019651472456    31.972071174400
         O            1.100410664971    -0.286096555527     1.486829472456    15.994914619570
         O            2.071017664971    -0.854096555527    -0.753428527544    15.994914619570
         O            1.130862664971     1.423919444473    -0.340239527544    15.994914619570
         C           -1.705225335029    -0.083997555527     0.233655472456    12.000000000000
         C           -0.506770335029    -0.636994555527    -0.534121527544    12.000000000000
         C           -1.978687335029     1.383103444473    -0.092560527544    12.000000000000
         C           -2.947007335029    -0.933907555527    -0.039346527544    12.000000000000
         H           -1.476347635029    -0.156184055527     1.201177772456     1.007825032230
         H           -0.589541335029    -0.418856555527    -1.606004527544     1.007825032230
         H           -0.452281335029    -1.724784555527    -0.413630527544     1.007825032230
         H           -2.265910335029     1.486390444473    -1.147015527544     1.007825032230
         H           -1.082049335029     1.981598444473     0.072673472456     1.007825032230
         H           -2.802820335029     1.770004444473     0.519885472456     1.007825032230
         H           -3.202044335029    -0.909337555527    -1.105962527544     1.007825032230
         H           -2.783950335029    -1.979684555527     0.243568472456     1.007825032230
         H           -3.813557335029    -0.560749555527     0.520323472456     1.007825032230

  Basis Set: AUG-CC-PVTZ
    Blend: AUG-CC-PVTZ
  Basis Set: (AUG-CC-PVTZ AUX)
    Blend: AUG-CC-PVTZ-JKFIT
	 Reference Energy          =    -779.0088817244953816 [Eh]
	 Singles Energy            =      -0.0000000000000000 [Eh]
	 Same-Spin Energy          =      -0.4484885324721831 [Eh]
	 Opposite-Spin Energy      =      -1.3741081130265895 [Eh]
	 Correlation Energy        =      -1.8225966454987725 [Eh]
	 Total Energy              =    -780.8314783699941017 [Eh]

	 ================> DF-SCS-MP2 Energies <==================
	-----------------------------------------------------------
	 SCS Same-Spin Scale       =       0.3333333333333333 [-]
	 SCS Opposite-Spin Scale   =       1.2000000000000000 [-]
	 SCS Same-Spin Energy      =      -0.1494961774907277 [Eh]
	 SCS Opposite-Spin Energy  =      -1.6489297356319075 [Eh]
	 SCS Correlation Energy    =      -1.7984259131226352 [Eh]
	 SCS Total Energy          =    -780.8073076376180097 [Eh]
	-----------------------------------------------------------

  Dipole Moment: [D]
     X:    -6.8623      Y:    -0.8370      Z:    -0.7625     Total:     6.9551

*** Psi4 exiting successfully. Buy a developer a beer!
