                               Psi4 1.4a3.dev225

  ==> Input File <==

--------------------------------------------------------------------------
#psi4
#
memory 32 gb

molecule  {
-1 1
  S        1.2336270    -0.0202320     0.0299590
  O        1.2252410    -0.2825260     1.4971370
  O        2.1958480    -0.8505260    -0.7431210
  O        1.2556930     1.4274900    -0.3299320
  C       -1.5803950    -0.0804270     0.2439630
  C       -0.3641336    -0.6266655    -0.5177104
  C       -1.8538570     1.3866740    -0.0822530
  C       -2.8221770    -0.9303370    -0.0290390
  H       -1.3285570    -0.1598550     1.3085440
  H       -0.4647110    -0.4152860    -1.5956970
  H       -0.3274510    -1.7212140    -0.4033230
  H       -2.1410800     1.4899610    -1.1367080
  H       -0.9572190     1.9851690     0.0829810
  H       -2.6779900     1.7735750     0.5301930
  H       -3.0772140    -0.9057670    -1.0956550
  H       -2.6591200    -1.9761140     0.2538760
  H       -3.6887270    -0.5571790     0.5306310
units angstrom
no_reorient  #important for SAPT in psi4, default
symmetry c1  #important for SAPT in psi4, default
}

set PROPERTIES_ORIGIN ["COM"]
properties('MP2/aug-cc-pvtz', properties = ['dipole'])
--------------------------------------------------------------------------

    Molecular point group: c1
  Charge       = -1
  Multiplicity = 1
  Basis Set: AUG-CC-PVTZ
    Blend: AUG-CC-PVTZ
  Basis Set: (AUG-CC-PVTZ AUX)
    Blend: AUG-CC-PVTZ-JKFIT

    Orbital Energies [Eh]
    ---------------------

    Doubly Occupied:

       1A    -91.999935     2A    -20.341431     3A    -20.341010
       4A    -20.340428     5A    -11.108798     6A    -11.105003
       7A    -11.098948     8A    -11.084664     9A     -8.961673
      10A     -6.647064    11A     -6.646556    12A     -6.646528
      13A     -1.258774    14A     -1.115368    15A     -1.114802
      16A     -0.965464    17A     -0.828462    18A     -0.810787
      19A     -0.665134    20A     -0.608066    21A     -0.520626
      22A     -0.491648    23A     -0.482994    24A     -0.460867
      25A     -0.446732    26A     -0.436355    27A     -0.420866
      28A     -0.401678    29A     -0.368192    30A     -0.348985
      31A     -0.339791    32A     -0.320487    33A     -0.320083
      34A     -0.277520    35A     -0.275403    36A     -0.252307
      37A     -0.240103

  @DF-RHF Final Energy:  -779.01420419144313

   => Energetics <=

    Nuclear Repulsion Energy =            517.1537990857515297
    One-Electron Energy =               -2112.1489406688519921
    Two-Electron Energy =                 815.9809373916574486
    Total Energy =                       -779.0142041914431275
  Basis Set: (AUG-CC-PVTZ AUX)
    Blend: AUG-CC-PVTZ-RI
    Molecular point group: c1

    Geometry (in Angstrom), charge = -1, multiplicity = 1:

       Center              X                  Y                   Z               Mass
    ------------   -----------------  -----------------  -----------------  -----------------
         S            1.107068419079    -0.024341162558     0.018403097410    31.972071174400
         O            1.098682419079    -0.286635162558     1.485581097410    15.994914619570
         O            2.069289419079    -0.854635162558    -0.754676902590    15.994914619570
         O            1.129134419079     1.423380837442    -0.341487902590    15.994914619570
         C           -1.706953580921    -0.084536162558     0.232407097410    12.000000000000
         C           -0.490692180921    -0.630774662558    -0.529266302590    12.000000000000
         C           -1.980415580921     1.382564837442    -0.093808902590    12.000000000000
         C           -2.948735580921    -0.934446162558    -0.040594902590    12.000000000000
         H           -1.455115580921    -0.163964162558     1.296988097410     1.007825032230
         H           -0.591269580921    -0.419395162558    -1.607252902590     1.007825032230
         H           -0.454009580921    -1.725323162558    -0.414878902590     1.007825032230
         H           -2.267638580921     1.485851837442    -1.148263902590     1.007825032230
         H           -1.083777580921     1.981059837442     0.071425097410     1.007825032230
         H           -2.804548580921     1.769465837442     0.518637097410     1.007825032230
         H           -3.203772580921    -0.909876162558    -1.107210902590     1.007825032230
         H           -2.785678580921    -1.980223162558     0.242320097410     1.007825032230
         H           -3.815285580921    -0.561288162558     0.519075097410     1.007825032230

  Basis Set: AUG-CC-PVTZ
    Blend: AUG-CC-PVTZ
  Basis Set: (AUG-CC-PVTZ AUX)
    Blend: AUG-CC-PVTZ-JKFIT
	 Reference Energy          =    -779.0142041914431275 [Eh]
	 Singles Energy            =      -0.0000000000000000 [Eh]
	 Same-Spin Energy          =      -0.4486014056836774 [Eh]
	 Opposite-Spin Energy      =      -1.3746207069101715 [Eh]
	 Correlation Energy        =      -1.8232221125938488 [Eh]
	 Total Energy              =    -780.8374263040369669 [Eh]

	 ================> DF-SCS-MP2 Energies <==================
	-----------------------------------------------------------
	 SCS Same-Spin Scale       =       0.3333333333333333 [-]
	 SCS Opposite-Spin Scale   =       1.2000000000000000 [-]
	 SCS Same-Spin Energy      =      -0.1495338018945591 [Eh]
	 SCS Opposite-Spin Energy  =      -1.6495448482922057 [Eh]
	 SCS Correlation Energy    =      -1.7990786501867648 [Eh]
	 SCS Total Energy          =    -780.8132828416298707 [Eh]
	-----------------------------------------------------------

  Dipole Moment: [D]
     X:    -6.8731      Y:    -0.8419      Z:    -0.7943     Total:     6.9699

*** Psi4 exiting successfully. Buy a developer a beer!
