                               Psi4 1.4a3.dev225

  ==> Input File <==

--------------------------------------------------------------------------
#psi4
#
memory 32 gb

molecule  {
-1 1
  S        1.2336270    -0.0202320     0.0299590
  O        1.2252410    -0.2825260     1.4971370
  O        2.1958480    -0.8505260    -0.7431210
  O        1.2556930     1.4274900    -0.3299320
  C       -1.5803950    -0.0804270     0.2439630
  C       -0.3819400    -0.6334240    -0.5238140
  C       -1.8538570     1.3866740    -0.0822530
  C       -2.8221770    -0.9303370    -0.0290390
  H       -1.3285570    -0.1598550     1.3085440
  H       -0.4722563    -0.3954007    -1.6934090
  H       -0.3274510    -1.7212140    -0.4033230
  H       -2.1410800     1.4899610    -1.1367080
  H       -0.9572190     1.9851690     0.0829810
  H       -2.6779900     1.7735750     0.5301930
  H       -3.0772140    -0.9057670    -1.0956550
  H       -2.6591200    -1.9761140     0.2538760
  H       -3.6887270    -0.5571790     0.5306310
units angstrom
no_reorient  #important for SAPT in psi4, default
symmetry c1  #important for SAPT in psi4, default
}

set PROPERTIES_ORIGIN ["COM"]
properties('MP2/aug-cc-pvtz', properties = ['dipole'])
--------------------------------------------------------------------------

    Molecular point group: c1
  Charge       = -1
  Multiplicity = 1
  Basis Set: AUG-CC-PVTZ
    Blend: AUG-CC-PVTZ
  Basis Set: (AUG-CC-PVTZ AUX)
    Blend: AUG-CC-PVTZ-JKFIT

    Orbital Energies [Eh]
    ---------------------

    Doubly Occupied:

       1A    -92.000860     2A    -20.342934     3A    -20.341284
       4A    -20.340902     5A    -11.109956     6A    -11.108466
       7A    -11.105454     8A    -11.084829     9A     -8.962379
      10A     -6.647747    11A     -6.647250    12A     -6.647234
      13A     -1.258729    14A     -1.116077    15A     -1.114947
      16A     -0.965590    17A     -0.822273    18A     -0.810389
      19A     -0.664279    20A     -0.603899    21A     -0.519739
      22A     -0.491796    23A     -0.482236    24A     -0.458578
      25A     -0.446808    26A     -0.431815    27A     -0.420828
      28A     -0.397083    29A     -0.369023    30A     -0.350685
      31A     -0.337786    32A     -0.320871    33A     -0.320731
      34A     -0.277853    35A     -0.275923    36A     -0.249705
      37A     -0.240652

  @DF-RHF Final Energy:  -779.00784764269235

   => Energetics <=

    Nuclear Repulsion Energy =            516.3132231685739271
    One-Electron Energy =               -2110.4669693370437926
    Two-Electron Energy =                 815.1458985257773975
    Total Energy =                       -779.0078476426923544
  Basis Set: (AUG-CC-PVTZ AUX)
    Blend: AUG-CC-PVTZ-RI
    Molecular point group: c1

    Geometry (in Angstrom), charge = -1, multiplicity = 1:

       Center              X                  Y                   Z               Mass
    ------------   -----------------  -----------------  -----------------  -----------------
         S            1.108683288807    -0.023895549724     0.019656277429    31.972071174400
         O            1.100297288807    -0.286189549724     1.486834277429    15.994914619570
         O            2.070904288807    -0.854189549724    -0.753423722571    15.994914619570
         O            1.130749288807     1.423826450276    -0.340234722571    15.994914619570
         C           -1.705338711193    -0.084090549724     0.233660277429    12.000000000000
         C           -0.506883711193    -0.637087549724    -0.534116722571    12.000000000000
         C           -1.978800711193     1.383010450276    -0.092555722571    12.000000000000
         C           -2.947120711193    -0.934000549724    -0.039341722571    12.000000000000
         H           -1.453500711193    -0.163518549724     1.298241277429     1.007825032230
         H           -0.597200011193    -0.399064249724    -1.703711722571     1.007825032230
         H           -0.452394711193    -1.724877549724    -0.413625722571     1.007825032230
         H           -2.266023711193     1.486297450276    -1.147010722571     1.007825032230
         H           -1.082162711193     1.981505450276     0.072678277429     1.007825032230
         H           -2.802933711193     1.769911450276     0.519890277429     1.007825032230
         H           -3.202157711193    -0.909430549724    -1.105957722571     1.007825032230
         H           -2.784063711193    -1.979777549724     0.243573277429     1.007825032230
         H           -3.813670711193    -0.560842549724     0.520328277429     1.007825032230

  Basis Set: AUG-CC-PVTZ
    Blend: AUG-CC-PVTZ
  Basis Set: (AUG-CC-PVTZ AUX)
    Blend: AUG-CC-PVTZ-JKFIT
	 Reference Energy          =    -779.0078476426923544 [Eh]
	 Singles Energy            =      -0.0000000000000000 [Eh]
	 Same-Spin Energy          =      -0.4488074736199640 [Eh]
	 Opposite-Spin Energy      =      -1.3755948847396637 [Eh]
	 Correlation Energy        =      -1.8244023583596278 [Eh]
	 Total Energy              =    -780.8322500010519889 [Eh]

	 ================> DF-SCS-MP2 Energies <==================
	-----------------------------------------------------------
	 SCS Same-Spin Scale       =       0.3333333333333333 [-]
	 SCS Opposite-Spin Scale   =       1.2000000000000000 [-]
	 SCS Same-Spin Energy      =      -0.1496024912066546 [Eh]
	 SCS Opposite-Spin Energy  =      -1.6507138616875965 [Eh]
	 SCS Correlation Energy    =      -1.8003163528942512 [Eh]
	 SCS Total Energy          =    -780.8081639955865967 [Eh]
	-----------------------------------------------------------

  Dipole Moment: [D]
     X:    -6.8268      Y:    -0.8253      Z:    -0.7173     Total:     6.9138

*** Psi4 exiting successfully. Buy a developer a beer!
