                               Psi4 1.4a3.dev225

  ==> Input File <==

--------------------------------------------------------------------------
#psi4
#
memory 32 gb

molecule  {
-1 1
  S        1.2336270    -0.0202320     0.0299590
  O        1.2252410    -0.2825260     1.4971370
  O        2.1958480    -0.8505260    -0.7431210
  O        1.2556930     1.4274900    -0.3299320
  C       -1.5803950    -0.0804270     0.2439630
  C       -0.3819400    -0.6334240    -0.5238140
  C       -1.8538570     1.3866740    -0.0822530
  C       -2.9845708    -1.0414838    -0.0647408
  H       -1.3285570    -0.1598550     1.3085440
  H       -0.4647110    -0.4152860    -1.5956970
  H       -0.3274510    -1.7212140    -0.4033230
  H       -2.1410800     1.4899610    -1.1367080
  H       -0.9572190     1.9851690     0.0829810
  H       -2.6779900     1.7735750     0.5301930
  H       -3.0772140    -0.9057670    -1.0956550
  H       -2.6591200    -1.9761140     0.2538760
  H       -3.6887270    -0.5571790     0.5306310
units angstrom
no_reorient  #important for SAPT in psi4, default
symmetry c1  #important for SAPT in psi4, default
}

set PROPERTIES_ORIGIN ["COM"]
properties('MP2/aug-cc-pvtz', properties = ['dipole'])
--------------------------------------------------------------------------

    Molecular point group: c1
  Charge       = -1
  Multiplicity = 1
  Basis Set: AUG-CC-PVTZ
    Blend: AUG-CC-PVTZ
  Basis Set: (AUG-CC-PVTZ AUX)
    Blend: AUG-CC-PVTZ-JKFIT

    Orbital Energies [Eh]
    ---------------------

    Doubly Occupied:

       1A    -92.000496     2A    -20.342162     3A    -20.341718
       4A    -20.341347     5A    -11.114687     6A    -11.101897
       7A    -11.098998     8A    -11.085870     9A     -8.962090
      10A     -6.647440    11A     -6.646960    12A     -6.646930
      13A     -1.258763    14A     -1.115853    15A     -1.115281
      16A     -0.948233    17A     -0.829266    18A     -0.813817
      19A     -0.662669    20A     -0.606417    21A     -0.518235
      22A     -0.496187    23A     -0.484177    24A     -0.468185
      25A     -0.453600    26A     -0.444420    27A     -0.425821
      28A     -0.413366    29A     -0.359410    30A     -0.346216
      31A     -0.326112    32A     -0.321243    33A     -0.315048
      34A     -0.277954    35A     -0.276222    36A     -0.243563
      37A     -0.239307

  @DF-RHF Final Energy:  -778.98846669778993

   => Energetics <=

    Nuclear Repulsion Energy =            513.4344795967562050
    One-Electron Energy =               -2104.6659700783411608
    Two-Electron Energy =                 812.2430237837949107
    Total Energy =                       -778.9884666977899315
  Basis Set: (AUG-CC-PVTZ AUX)
    Blend: AUG-CC-PVTZ-RI
    Molecular point group: c1

    Geometry (in Angstrom), charge = -1, multiplicity = 1:

       Center              X                  Y                   Z               Mass
    ------------   -----------------  -----------------  -----------------  -----------------
         S            1.122849240432    -0.014015744074     0.022064156327    31.972071174400
         O            1.114463240432    -0.276309744074     1.489242156327    15.994914619570
         O            2.085070240432    -0.844309744074    -0.751015843673    15.994914619570
         O            1.144915240432     1.433706255926    -0.337826843673    15.994914619570
         C           -1.691172759568    -0.074210744074     0.236068156327    12.000000000000
         C           -0.492717759568    -0.627207744074    -0.531708843673    12.000000000000
         C           -1.964634759568     1.392890255926    -0.090147843673    12.000000000000
         C           -3.095348559568    -1.035267544074    -0.072635643673    12.000000000000
         H           -1.439334759568    -0.153638744074     1.300649156327     1.007825032230
         H           -0.575488759568    -0.409069744074    -1.603591843673     1.007825032230
         H           -0.438228759568    -1.714997744074    -0.411217843673     1.007825032230
         H           -2.251857759568     1.496177255926    -1.144602843673     1.007825032230
         H           -1.067996759568     1.991385255926     0.075086156327     1.007825032230
         H           -2.788767759568     1.779791255926     0.522298156327     1.007825032230
         H           -3.187991759568    -0.899550744074    -1.103549843673     1.007825032230
         H           -2.769897759568    -1.969897744074     0.245981156327     1.007825032230
         H           -3.799504759568    -0.550962744074     0.522736156327     1.007825032230

  Basis Set: AUG-CC-PVTZ
    Blend: AUG-CC-PVTZ
  Basis Set: (AUG-CC-PVTZ AUX)
    Blend: AUG-CC-PVTZ-JKFIT
	 Reference Energy          =    -778.9884666977899315 [Eh]
	 Singles Energy            =      -0.0000000000000000 [Eh]
	 Same-Spin Energy          =      -0.4487820468850426 [Eh]
	 Opposite-Spin Energy      =      -1.3760713525587003 [Eh]
	 Correlation Energy        =      -1.8248533994437430 [Eh]
	 Total Energy              =    -780.8133200972337136 [Eh]

	 ================> DF-SCS-MP2 Energies <==================
	-----------------------------------------------------------
	 SCS Same-Spin Scale       =       0.3333333333333333 [-]
	 SCS Opposite-Spin Scale   =       1.2000000000000000 [-]
	 SCS Same-Spin Energy      =      -0.1495940156283475 [Eh]
	 SCS Opposite-Spin Energy  =      -1.6512856230704402 [Eh]
	 SCS Correlation Energy    =      -1.8008796386987878 [Eh]
	 SCS Total Energy          =    -780.7893463364887339 [Eh]
	-----------------------------------------------------------

  Dipole Moment: [D]
     X:    -6.7304      Y:    -0.7530      Z:    -0.7834     Total:     6.8176

*** Psi4 exiting successfully. Buy a developer a beer!
