                               Psi4 1.4a3.dev225

  ==> Input File <==

--------------------------------------------------------------------------
#psi4
#
memory 32 gb

molecule  {
-1 1
  S        1.2336270    -0.0202320     0.0299590
  O        1.2252410    -0.2825260     1.4971370
  O        2.1958480    -0.8505260    -0.7431210
  O        1.2556930     1.4274900    -0.3299320
  C       -1.5803950    -0.0804270     0.2439630
  C       -0.2249665    -0.7058555    -0.6243774
  C       -1.8538570     1.3866740    -0.0822530
  C       -2.8221770    -0.9303370    -0.0290390
  H       -1.3285570    -0.1598550     1.3085440
  H       -0.4647110    -0.4152860    -1.5956970
  H       -0.3274510    -1.7212140    -0.4033230
  H       -2.1410800     1.4899610    -1.1367080
  H       -0.9572190     1.9851690     0.0829810
  H       -2.6779900     1.7735750     0.5301930
  H       -3.0772140    -0.9057670    -1.0956550
  H       -2.6591200    -1.9761140     0.2538760
  H       -3.6887270    -0.5571790     0.5306310
units angstrom
no_reorient  #important for SAPT in psi4, default
symmetry c1  #important for SAPT in psi4, default
}

set PROPERTIES_ORIGIN ["COM"]
properties('MP2/aug-cc-pvtz', properties = ['dipole'])
--------------------------------------------------------------------------

    Molecular point group: c1
  Charge       = -1
  Multiplicity = 1
  Basis Set: AUG-CC-PVTZ
    Blend: AUG-CC-PVTZ
  Basis Set: (AUG-CC-PVTZ AUX)
    Blend: AUG-CC-PVTZ-JKFIT

    Orbital Energies [Eh]
    ---------------------

    Doubly Occupied:

       1A    -91.999630     2A    -20.345141     3A    -20.343798
       4A    -20.331194     5A    -11.111037     6A    -11.108342
       7A    -11.096490     8A    -11.084393     9A     -8.961866
      10A     -6.647444    11A     -6.646775    12A     -6.646636
      13A     -1.260349    14A     -1.117349    15A     -1.113052
      16A     -0.948498    17A     -0.836935    18A     -0.809749
      19A     -0.655890    20A     -0.616810    21A     -0.518914
      22A     -0.499013    23A     -0.476777    24A     -0.469519
      25A     -0.449076    26A     -0.439566    27A     -0.421720
      28A     -0.410555    29A     -0.359295    30A     -0.351229
      31A     -0.332445    32A     -0.318191    33A     -0.308666
      34A     -0.279802    35A     -0.275604    36A     -0.243885
      37A     -0.239317

  @DF-RHF Final Energy:  -778.98732378662805

   => Energetics <=

    Nuclear Repulsion Energy =            516.3277861233096928
    One-Electron Energy =               -2110.4803146763688346
    Two-Electron Energy =                 815.1652047664312022
    Total Energy =                       -778.9873237866280533
  Basis Set: (AUG-CC-PVTZ AUX)
    Blend: AUG-CC-PVTZ-RI
    Molecular point group: c1

    Geometry (in Angstrom), charge = -1, multiplicity = 1:

       Center              X                  Y                   Z               Mass
    ------------   -----------------  -----------------  -----------------  -----------------
         S            1.094881023376    -0.017406191104     0.027744334941    31.972071174400
         O            1.086495023376    -0.279700191104     1.494922334941    15.994914619570
         O            2.057102023376    -0.847700191104    -0.745335665059    15.994914619570
         O            1.116947023376     1.430315808896    -0.332146665059    15.994914619570
         C           -1.719140976624    -0.077601191104     0.241748334941    12.000000000000
         C           -0.363712476624    -0.703029691104    -0.626592065059    12.000000000000
         C           -1.992602976624     1.389499808896    -0.084467665059    12.000000000000
         C           -2.960922976624    -0.927511191104    -0.031253665059    12.000000000000
         H           -1.467302976624    -0.157029191104     1.306329334941     1.007825032230
         H           -0.603456976624    -0.412460191104    -1.597911665059     1.007825032230
         H           -0.466196976624    -1.718388191104    -0.405537665059     1.007825032230
         H           -2.279825976624     1.492786808896    -1.138922665059     1.007825032230
         H           -1.095964976624     1.987994808896     0.080766334941     1.007825032230
         H           -2.816735976624     1.776400808896     0.527978334941     1.007825032230
         H           -3.215959976624    -0.902941191104    -1.097869665059     1.007825032230
         H           -2.797865976624    -1.973288191104     0.251661334941     1.007825032230
         H           -3.827472976624    -0.554353191104     0.528416334941     1.007825032230

  Basis Set: AUG-CC-PVTZ
    Blend: AUG-CC-PVTZ
  Basis Set: (AUG-CC-PVTZ AUX)
    Blend: AUG-CC-PVTZ-JKFIT
	 Reference Energy          =    -778.9873237866280533 [Eh]
	 Singles Energy            =      -0.0000000000000000 [Eh]
	 Same-Spin Energy          =      -0.4486280220927518 [Eh]
	 Opposite-Spin Energy      =      -1.3756938471968914 [Eh]
	 Correlation Energy        =      -1.8243218692896432 [Eh]
	 Total Energy              =    -780.8116456559176868 [Eh]

	 ================> DF-SCS-MP2 Energies <==================
	-----------------------------------------------------------
	 SCS Same-Spin Scale       =       0.3333333333333333 [-]
	 SCS Opposite-Spin Scale   =       1.2000000000000000 [-]
	 SCS Same-Spin Energy      =      -0.1495426740309173 [Eh]
	 SCS Opposite-Spin Energy  =      -1.6508326166362697 [Eh]
	 SCS Correlation Energy    =      -1.8003752906671870 [Eh]
	 SCS Total Energy          =    -780.7876990772952013 [Eh]
	-----------------------------------------------------------

  Dipole Moment: [D]
     X:    -6.8951      Y:    -0.8575      Z:    -0.8229     Total:     6.9968

*** Psi4 exiting successfully. Buy a developer a beer!
