                               Psi4 1.4a3.dev225

  ==> Input File <==

--------------------------------------------------------------------------
#psi4
#
memory 32 gb

molecule  {
-1 1
  S        1.2336270    -0.0202320     0.0299590
  O        1.2252410    -0.2825260     1.4971370
  O        2.1958480    -0.8505260    -0.7431210
  O        1.2556930     1.4274900    -0.3299320
  C       -1.5803950    -0.0804270     0.2439630
  C       -0.3819400    -0.6334240    -0.5238140
  C       -1.8538570     1.3866740    -0.0822530
  C       -2.8221770    -0.9303370    -0.0290390
  H       -1.3285570    -0.1598550     1.3085440
  H       -0.4647110    -0.4152860    -1.5956970
  H       -0.3274510    -1.7212140    -0.4033230
  H       -2.1410800     1.4899610    -1.1367080
  H       -0.9572190     1.9851690     0.0829810
  H       -2.6779900     1.7735750     0.5301930
  H       -3.0725641    -0.9062150    -1.0762082
  H       -2.6591200    -1.9761140     0.2538760
  H       -3.6887270    -0.5571790     0.5306310
units angstrom
no_reorient  #important for SAPT in psi4, default
symmetry c1  #important for SAPT in psi4, default
}

set PROPERTIES_ORIGIN ["COM"]
properties('MP2/aug-cc-pvtz', properties = ['dipole'])
--------------------------------------------------------------------------

    Molecular point group: c1
  Charge       = -1
  Multiplicity = 1
  Basis Set: AUG-CC-PVTZ
    Blend: AUG-CC-PVTZ
  Basis Set: (AUG-CC-PVTZ AUX)
    Blend: AUG-CC-PVTZ-JKFIT

    Orbital Energies [Eh]
    ---------------------

    Doubly Occupied:

       1A    -91.999837     2A    -20.341578     3A    -20.341118
       4A    -20.340660     5A    -11.105764     6A    -11.104010
       7A    -11.098246     8A    -11.084717     9A     -8.961428
      10A     -6.646773    11A     -6.646309    12A     -6.646280
      13A     -1.258176    14A     -1.115276    15A     -1.114696
      16A     -0.966630    17A     -0.827435    18A     -0.811459
      19A     -0.664842    20A     -0.608261    21A     -0.521071
      22A     -0.491622    23A     -0.483202    24A     -0.460771
      25A     -0.446764    26A     -0.436505    27A     -0.422969
      28A     -0.402407    29A     -0.368265    30A     -0.349919
      31A     -0.341027    32A     -0.320413    33A     -0.320397
      34A     -0.277892    35A     -0.275855    36A     -0.248774
      37A     -0.240122

  @DF-RHF Final Energy:  -779.01449423873476

   => Energetics <=

    Nuclear Repulsion Energy =            516.9265808368965054
    One-Electron Energy =               -2111.6992125123661026
    Two-Electron Energy =                 815.7581374367349554
    Total Energy =                       -779.0144942387347555
  Basis Set: (AUG-CC-PVTZ AUX)
    Blend: AUG-CC-PVTZ-RI
    Molecular point group: c1

    Geometry (in Angstrom), charge = -1, multiplicity = 1:

       Center              X                  Y                   Z               Mass
    ------------   -----------------  -----------------  -----------------  -----------------
         S            1.108593594029    -0.023745999834     0.018794583278    31.972071174400
         O            1.100207594029    -0.286039999834     1.485972583278    15.994914619570
         O            2.070814594029    -0.854039999834    -0.754285416722    15.994914619570
         O            1.130659594029     1.423976000166    -0.341096416722    15.994914619570
         C           -1.705428405971    -0.083940999834     0.232798583278    12.000000000000
         C           -0.506973405971    -0.636937999834    -0.534978416722    12.000000000000
         C           -1.978890405971     1.383160000166    -0.093417416722    12.000000000000
         C           -2.947210405971    -0.933850999834    -0.040203416722    12.000000000000
         H           -1.453590405971    -0.163368999834     1.297379583278     1.007825032230
         H           -0.589744405971    -0.418799999834    -1.606861416722     1.007825032230
         H           -0.452484405971    -1.724727999834    -0.414487416722     1.007825032230
         H           -2.266113405971     1.486447000166    -1.147872416722     1.007825032230
         H           -1.082252405971     1.981655000166     0.071816583278     1.007825032230
         H           -2.803023405971     1.770061000166     0.519028583278     1.007825032230
         H           -3.197597505971    -0.909728999834    -1.087372616722     1.007825032230
         H           -2.784153405971    -1.979627999834     0.242711583278     1.007825032230
         H           -3.813760405971    -0.560692999834     0.519466583278     1.007825032230

  Basis Set: AUG-CC-PVTZ
    Blend: AUG-CC-PVTZ
  Basis Set: (AUG-CC-PVTZ AUX)
    Blend: AUG-CC-PVTZ-JKFIT
	 Reference Energy          =    -779.0144942387347555 [Eh]
	 Singles Energy            =      -0.0000000000000000 [Eh]
	 Same-Spin Energy          =      -0.4486563104193346 [Eh]
	 Opposite-Spin Energy      =      -1.3746308736643644 [Eh]
	 Correlation Energy        =      -1.8232871840836991 [Eh]
	 Total Energy              =    -780.8377814228184661 [Eh]

	 ================> DF-SCS-MP2 Energies <==================
	-----------------------------------------------------------
	 SCS Same-Spin Scale       =       0.3333333333333333 [-]
	 SCS Opposite-Spin Scale   =       1.2000000000000000 [-]
	 SCS Same-Spin Energy      =      -0.1495521034731115 [Eh]
	 SCS Opposite-Spin Energy  =      -1.6495570483972373 [Eh]
	 SCS Correlation Energy    =      -1.7991091518703488 [Eh]
	 SCS Total Energy          =    -780.8136033906050670 [Eh]
	-----------------------------------------------------------

  Dipole Moment: [D]
     X:    -6.8556      Y:    -0.8337      Z:    -0.8037     Total:     6.9527

*** Psi4 exiting successfully. Buy a developer a beer!
