                               Psi4 1.4a3.dev225

  ==> Input File <==

--------------------------------------------------------------------------
#psi4
#
memory 32 gb

molecule  {
-1 1
  S        1.2336270    -0.0202320     0.0299590
  O        1.2252410    -0.2825260     1.4971370
  O        2.1958480    -0.8505260    -0.7431210
  O        1.2556930     1.4274900    -0.3299320
  C       -1.5803950    -0.0804270     0.2439630
  C       -0.3819400    -0.6334240    -0.5238140
  C       -1.8538570     1.3866740    -0.0822530
  C       -2.8221770    -0.9303370    -0.0290390
  H       -1.3285570    -0.1598550     1.3085440
  H       -0.4647110    -0.4152860    -1.5956970
  H       -0.3264565    -1.7410678    -0.4011239
  H       -2.1410800     1.4899610    -1.1367080
  H       -0.9572190     1.9851690     0.0829810
  H       -2.6779900     1.7735750     0.5301930
  H       -3.0772140    -0.9057670    -1.0956550
  H       -2.6591200    -1.9761140     0.2538760
  H       -3.6887270    -0.5571790     0.5306310
units angstrom
no_reorient  #important for SAPT in psi4, default
symmetry c1  #important for SAPT in psi4, default
}

set PROPERTIES_ORIGIN ["COM"]
properties('MP2/aug-cc-pvtz', properties = ['dipole'])
--------------------------------------------------------------------------

    Molecular point group: c1
  Charge       = -1
  Multiplicity = 1
  Basis Set: AUG-CC-PVTZ
    Blend: AUG-CC-PVTZ
  Basis Set: (AUG-CC-PVTZ AUX)
    Blend: AUG-CC-PVTZ-JKFIT

    Orbital Energies [Eh]
    ---------------------

    Doubly Occupied:

       1A    -92.000033     2A    -20.341647     3A    -20.341374
       4A    -20.340676     5A    -11.108310     6A    -11.104506
       7A    -11.100653     8A    -11.084938     9A     -8.961611
      10A     -6.646960    11A     -6.646491    12A     -6.646462
      13A     -1.258282    14A     -1.115329    15A     -1.114854
      16A     -0.966179    17A     -0.825587    18A     -0.810680
      19A     -0.664336    20A     -0.607594    21A     -0.520683
      22A     -0.490192    23A     -0.482785    24A     -0.460395
      25A     -0.446627    26A     -0.436474    27A     -0.420740
      28A     -0.401655    29A     -0.368236    30A     -0.349653
      31A     -0.340882    32A     -0.320504    33A     -0.320463
      34A     -0.277966    35A     -0.275759    36A     -0.248974
      37A     -0.240234

  @DF-RHF Final Energy:  -779.01391538172652

   => Energetics <=

    Nuclear Repulsion Energy =            516.7298923341123782
    One-Electron Energy =               -2111.3101712090610818
    Two-Electron Energy =                 815.5663634932222976
    Total Energy =                       -779.0139153817265196
  Basis Set: (AUG-CC-PVTZ AUX)
    Blend: AUG-CC-PVTZ-RI
    Molecular point group: c1

    Geometry (in Angstrom), charge = -1, multiplicity = 1:

       Center              X                  Y                   Z               Mass
    ------------   -----------------  -----------------  -----------------  -----------------
         S            1.108620479221    -0.023603271636     0.018921438813    31.972071174400
         O            1.100234479221    -0.285897271636     1.486099438813    15.994914619570
         O            2.070841479221    -0.853897271636    -0.754158561187    15.994914619570
         O            1.130686479221     1.424118728364    -0.340969561187    15.994914619570
         C           -1.705401520779    -0.083798271636     0.232925438813    12.000000000000
         C           -0.506946520779    -0.636795271636    -0.534851561187    12.000000000000
         C           -1.978863520779     1.383302728364    -0.093290561187    12.000000000000
         C           -2.947183520779    -0.933708271636    -0.040076561187    12.000000000000
         H           -1.453563520779    -0.163226271636     1.297506438813     1.007825032230
         H           -0.589717520779    -0.418657271636    -1.606734561187     1.007825032230
         H           -0.451463020779    -1.744439071636    -0.412161461187     1.007825032230
         H           -2.266086520779     1.486589728364    -1.147745561187     1.007825032230
         H           -1.082225520779     1.981797728364     0.071943438813     1.007825032230
         H           -2.802996520779     1.770203728364     0.519155438813     1.007825032230
         H           -3.202220520779    -0.909138271636    -1.106692561187     1.007825032230
         H           -2.784126520779    -1.979485271636     0.242838438813     1.007825032230
         H           -3.813733520779    -0.560550271636     0.519593438813     1.007825032230

  Basis Set: AUG-CC-PVTZ
    Blend: AUG-CC-PVTZ
  Basis Set: (AUG-CC-PVTZ AUX)
    Blend: AUG-CC-PVTZ-JKFIT
	 Reference Energy          =    -779.0139153817265196 [Eh]
	 Singles Energy            =      -0.0000000000000000 [Eh]
	 Same-Spin Energy          =      -0.4486820272233738 [Eh]
	 Opposite-Spin Energy      =      -1.3749009651133912 [Eh]
	 Correlation Energy        =      -1.8235829923367650 [Eh]
	 Total Energy              =    -780.8374983740633297 [Eh]

	 ================> DF-SCS-MP2 Energies <==================
	-----------------------------------------------------------
	 SCS Same-Spin Scale       =       0.3333333333333333 [-]
	 SCS Opposite-Spin Scale   =       1.2000000000000000 [-]
	 SCS Same-Spin Energy      =      -0.1495606757411246 [Eh]
	 SCS Opposite-Spin Energy  =      -1.6498811581360695 [Eh]
	 SCS Correlation Energy    =      -1.7994418338771940 [Eh]
	 SCS Total Energy          =    -780.8133572156036735 [Eh]
	-----------------------------------------------------------

  Dipole Moment: [D]
     X:    -6.8458      Y:    -0.8180      Z:    -0.7884     Total:     6.9395

*** Psi4 exiting successfully. Buy a developer a beer!
