                               Psi4 1.4a3.dev225

  ==> Input File <==

--------------------------------------------------------------------------
#psi4
#
memory 32 gb

molecule  {
-1 1
  S        1.2336270    -0.0202320     0.0299590
  O        1.2252410    -0.2825260     1.4971370
  O        2.1958480    -0.8505260    -0.7431210
  O        1.2556930     1.4274900    -0.3299320
  C       -1.5803950    -0.0804270     0.2439630
  C       -0.3819400    -0.6334240    -0.5238140
  C       -1.8538570     1.3866740    -0.0822530
  C       -2.8221770    -0.9303370    -0.0290390
  H       -1.3285570    -0.1598550     1.3085440
  H       -0.4647110    -0.4152860    -1.5956970
  H       -0.3274510    -1.7212140    -0.4033230
  H       -2.1410800     1.4899610    -1.1367080
  H       -0.9572190     1.9851690     0.0829810
  H       -2.6779900     1.7735750     0.5301930
  H       -3.0888387    -0.9046471    -1.1442720
  H       -2.6591200    -1.9761140     0.2538760
  H       -3.6887270    -0.5571790     0.5306310
units angstrom
no_reorient  #important for SAPT in psi4, default
symmetry c1  #important for SAPT in psi4, default
}

set PROPERTIES_ORIGIN ["COM"]
properties('MP2/aug-cc-pvtz', properties = ['dipole'])
--------------------------------------------------------------------------

    Molecular point group: c1
  Charge       = -1
  Multiplicity = 1
  Basis Set: AUG-CC-PVTZ
    Blend: AUG-CC-PVTZ
  Basis Set: (AUG-CC-PVTZ AUX)
    Blend: AUG-CC-PVTZ-JKFIT

    Orbital Energies [Eh]
    ---------------------

    Doubly Occupied:

       1A    -92.000021     2A    -20.341802     3A    -20.341281
       4A    -20.340822     5A    -11.114763     6A    -11.105133
       7A    -11.098480     8A    -11.084910     9A     -8.961613
      10A     -6.646957    11A     -6.646493    12A     -6.646466
      13A     -1.258365    14A     -1.115480    15A     -1.114867
      16A     -0.965969    17A     -0.825394    18A     -0.809289
      19A     -0.663138    20A     -0.608148    21A     -0.520411
      22A     -0.491464    23A     -0.483006    24A     -0.459599
      25A     -0.446862    26A     -0.436375    27A     -0.414988
      28A     -0.402816    29A     -0.368850    30A     -0.350503
      31A     -0.340326    32A     -0.320595    33A     -0.320511
      34A     -0.278098    35A     -0.276031    36A     -0.249043
      37A     -0.240311

  @DF-RHF Final Energy:  -779.01252897326117

   => Energetics <=

    Nuclear Repulsion Energy =            516.6302860763527178
    One-Electron Energy =               -2111.1072672027507906
    Two-Electron Energy =                 815.4644521531370174
    Total Energy =                       -779.0125289732611691
  Basis Set: (AUG-CC-PVTZ AUX)
    Blend: AUG-CC-PVTZ-RI
    Molecular point group: c1

    Geometry (in Angstrom), charge = -1, multiplicity = 1:

       Center              X                  Y                   Z               Mass
    ------------   -----------------  -----------------  -----------------  -----------------
         S            1.108713292486    -0.023757531620     0.019295187401    31.972071174400
         O            1.100327292486    -0.286051531620     1.486473187401    15.994914619570
         O            2.070934292486    -0.854051531620    -0.753784812599    15.994914619570
         O            1.130779292486     1.423964468380    -0.340595812599    15.994914619570
         C           -1.705308707514    -0.083952531620     0.233299187401    12.000000000000
         C           -0.506853707514    -0.636949531620    -0.534477812599    12.000000000000
         C           -1.978770707514     1.383148468380    -0.092916812599    12.000000000000
         C           -2.947090707514    -0.933862531620    -0.039702812599    12.000000000000
         H           -1.453470707514    -0.163380531620     1.297880187401     1.007825032230
         H           -0.589624707514    -0.418811531620    -1.606360812599     1.007825032230
         H           -0.452364707514    -1.724739531620    -0.413986812599     1.007825032230
         H           -2.265993707514     1.486435468380    -1.147371812599     1.007825032230
         H           -1.082132707514     1.981643468380     0.072317187401     1.007825032230
         H           -2.802903707514     1.770049468380     0.519529187401     1.007825032230
         H           -3.213752407514    -0.908172631620    -1.154935812599     1.007825032230
         H           -2.784033707514    -1.979639531620     0.243212187401     1.007825032230
         H           -3.813640707514    -0.560704531620     0.519967187401     1.007825032230

  Basis Set: AUG-CC-PVTZ
    Blend: AUG-CC-PVTZ
  Basis Set: (AUG-CC-PVTZ AUX)
    Blend: AUG-CC-PVTZ-JKFIT
	 Reference Energy          =    -779.0125289732611691 [Eh]
	 Singles Energy            =      -0.0000000000000000 [Eh]
	 Same-Spin Energy          =      -0.4486336182008225 [Eh]
	 Opposite-Spin Energy      =      -1.3750446220664763 [Eh]
	 Correlation Energy        =      -1.8236782402672986 [Eh]
	 Total Energy              =    -780.8362072135284961 [Eh]

	 ================> DF-SCS-MP2 Energies <==================
	-----------------------------------------------------------
	 SCS Same-Spin Scale       =       0.3333333333333333 [-]
	 SCS Opposite-Spin Scale   =       1.2000000000000000 [-]
	 SCS Same-Spin Energy      =      -0.1495445394002742 [Eh]
	 SCS Opposite-Spin Energy  =      -1.6500535464797714 [Eh]
	 SCS Correlation Energy    =      -1.7995980858800456 [Eh]
	 SCS Total Energy          =    -780.8121270591411758 [Eh]
	-----------------------------------------------------------

  Dipole Moment: [D]
     X:    -6.8252      Y:    -0.8249      Z:    -0.7525     Total:     6.9159

*** Psi4 exiting successfully. Buy a developer a beer!
