                               Psi4 1.4a3.dev225

  ==> Input File <==

--------------------------------------------------------------------------
#psi4
#
memory 32 gb

molecule  {
-1 1
  S        1.2336270    -0.0202320     0.0299590
  O        1.2252410    -0.2825260     1.4971370
  O        2.1958480    -0.8505260    -0.7431210
  O        1.2556930     1.4274900    -0.3299320
  C       -1.5803950    -0.0804270     0.2439630
  C       -0.3976374    -0.6261809    -0.5137577
  C       -1.8538570     1.3866740    -0.0822530
  C       -2.8221770    -0.9303370    -0.0290390
  H       -1.3285570    -0.1598550     1.3085440
  H       -0.4647110    -0.4152860    -1.5956970
  H       -0.3274510    -1.7212140    -0.4033230
  H       -2.1410800     1.4899610    -1.1367080
  H       -0.9572190     1.9851690     0.0829810
  H       -2.6779900     1.7735750     0.5301930
  H       -3.0772140    -0.9057670    -1.0956550
  H       -2.6591200    -1.9761140     0.2538760
  H       -3.6887270    -0.5571790     0.5306310
units angstrom
no_reorient  #important for SAPT in psi4, default
symmetry c1  #important for SAPT in psi4, default
}

set PROPERTIES_ORIGIN ["COM"]
properties('MP2/aug-cc-pvtz', properties = ['dipole'])
--------------------------------------------------------------------------

    Molecular point group: c1
  Charge       = -1
  Multiplicity = 1
  Basis Set: AUG-CC-PVTZ
    Blend: AUG-CC-PVTZ
  Basis Set: (AUG-CC-PVTZ AUX)
    Blend: AUG-CC-PVTZ-JKFIT

    Orbital Energies [Eh]
    ---------------------

    Doubly Occupied:

       1A    -91.999991     2A    -20.341752     3A    -20.341359
       4A    -20.340957     5A    -11.108369     6A    -11.103388
       7A    -11.098928     8A    -11.084853     9A     -8.961520
      10A     -6.646853    11A     -6.646395    12A     -6.646364
      13A     -1.258104    14A     -1.115544    15A     -1.114659
      16A     -0.968906    17A     -0.825828    18A     -0.810913
      19A     -0.665307    20A     -0.607440    21A     -0.521478
      22A     -0.491088    23A     -0.483920    24A     -0.459639
      25A     -0.446724    26A     -0.435850    27A     -0.420804
      28A     -0.401794    29A     -0.369958    30A     -0.350951
      31A     -0.340353    32A     -0.320746    33A     -0.320731
      34A     -0.278384    35A     -0.275930    36A     -0.247421
      37A     -0.240268

  @DF-RHF Final Energy:  -779.01379764657429

   => Energetics <=

    Nuclear Repulsion Energy =            516.8981209221219615
    One-Electron Energy =               -2111.6368938820060066
    Two-Electron Energy =                 815.7249753133097556
    Total Energy =                       -779.0137976465742895
  Basis Set: (AUG-CC-PVTZ AUX)
    Blend: AUG-CC-PVTZ-RI
    Molecular point group: c1

    Geometry (in Angstrom), charge = -1, multiplicity = 1:

       Center              X                  Y                   Z               Mass
    ------------   -----------------  -----------------  -----------------  -----------------
         S            1.110002475104    -0.024383600835     0.018056944339    31.972071174400
         O            1.101616475104    -0.286677600835     1.485234944339    15.994914619570
         O            2.072223475104    -0.854677600835    -0.755023055661    15.994914619570
         O            1.132068475104     1.423338399165    -0.341834055661    15.994914619570
         C           -1.704019524896    -0.084578600835     0.232060944339    12.000000000000
         C           -0.521261924896    -0.630332500835    -0.525659755661    12.000000000000
         C           -1.977481524896     1.382522399165    -0.094155055661    12.000000000000
         C           -2.945801524896    -0.934488600835    -0.040941055661    12.000000000000
         H           -1.452181524896    -0.164006600835     1.296641944339     1.007825032230
         H           -0.588335524896    -0.419437600835    -1.607599055661     1.007825032230
         H           -0.451075524896    -1.725365600835    -0.415225055661     1.007825032230
         H           -2.264704524896     1.485809399165    -1.148610055661     1.007825032230
         H           -1.080843524896     1.981017399165     0.071078944339     1.007825032230
         H           -2.801614524896     1.769423399165     0.518290944339     1.007825032230
         H           -3.200838524896    -0.909918600835    -1.107557055661     1.007825032230
         H           -2.782744524896    -1.980265600835     0.241973944339     1.007825032230
         H           -3.812351524896    -0.561330600835     0.518728944339     1.007825032230

  Basis Set: AUG-CC-PVTZ
    Blend: AUG-CC-PVTZ
  Basis Set: (AUG-CC-PVTZ AUX)
    Blend: AUG-CC-PVTZ-JKFIT
	 Reference Energy          =    -779.0137976465742895 [Eh]
	 Singles Energy            =      -0.0000000000000000 [Eh]
	 Same-Spin Energy          =      -0.4488536182552643 [Eh]
	 Opposite-Spin Energy      =      -1.3749962412832795 [Eh]
	 Correlation Energy        =      -1.8238498595385437 [Eh]
	 Total Energy              =    -780.8376475061128303 [Eh]

	 ================> DF-SCS-MP2 Energies <==================
	-----------------------------------------------------------
	 SCS Same-Spin Scale       =       0.3333333333333333 [-]
	 SCS Opposite-Spin Scale   =       1.2000000000000000 [-]
	 SCS Same-Spin Energy      =      -0.1496178727517548 [Eh]
	 SCS Opposite-Spin Energy  =      -1.6499954895399354 [Eh]
	 SCS Correlation Energy    =      -1.7996133622916901 [Eh]
	 SCS Total Energy          =    -780.8134110088659554 [Eh]
	-----------------------------------------------------------

  Dipole Moment: [D]
     X:    -6.8366      Y:    -0.8254      Z:    -0.7833     Total:     6.9307

*** Psi4 exiting successfully. Buy a developer a beer!
