                               Psi4 1.4a3.dev225

  ==> Input File <==

--------------------------------------------------------------------------
#psi4
#
memory 32 gb

molecule  {
-1 1
  S        1.2336270    -0.0202320     0.0299590
  O        1.2252410    -0.2825260     1.4971370
  O        2.1958480    -0.8505260    -0.7431210
  O        1.2556930     1.4274900    -0.3299320
  C       -1.5803950    -0.0804270     0.2439630
  C       -0.3819400    -0.6334240    -0.5238140
  C       -1.8538570     1.3866740    -0.0822530
  C       -2.8221770    -0.9303370    -0.0290390
  H       -1.3285570    -0.1598550     1.3085440
  H       -0.4647110    -0.4152860    -1.5956970
  H       -0.3274510    -1.7212140    -0.4033230
  H       -2.1410800     1.4899610    -1.1367080
  H       -0.9572190     1.9851690     0.0829810
  H       -2.6779900     1.7735750     0.5301930
  H       -3.0772140    -0.9057670    -1.0956550
  H       -2.6665616    -1.9283866     0.2409643
  H       -3.6887270    -0.5571790     0.5306310
units angstrom
no_reorient  #important for SAPT in psi4, default
symmetry c1  #important for SAPT in psi4, default
}

set PROPERTIES_ORIGIN ["COM"]
properties('MP2/aug-cc-pvtz', properties = ['dipole'])
--------------------------------------------------------------------------

    Molecular point group: c1
  Charge       = -1
  Multiplicity = 1
  Basis Set: AUG-CC-PVTZ
    Blend: AUG-CC-PVTZ
  Basis Set: (AUG-CC-PVTZ AUX)
    Blend: AUG-CC-PVTZ-JKFIT

    Orbital Energies [Eh]
    ---------------------

    Doubly Occupied:

       1A    -91.999825     2A    -20.341578     3A    -20.341076
       4A    -20.340646     5A    -11.103827     6A    -11.101803
       7A    -11.098266     8A    -11.084160     9A     -8.961415
      10A     -6.646760    11A     -6.646295    12A     -6.646268
      13A     -1.258158    14A     -1.115275    15A     -1.114661
      16A     -0.966932    17A     -0.828725    18A     -0.812684
      19A     -0.664951    20A     -0.608140    21A     -0.521843
      22A     -0.492621    23A     -0.485273    24A     -0.461848
      25A     -0.446991    26A     -0.436000    27A     -0.421035
      28A     -0.403949    29A     -0.368329    30A     -0.350740
      31A     -0.340756    32A     -0.320359    33A     -0.320349
      34A     -0.277883    35A     -0.275807    36A     -0.248721
      37A     -0.240098

  @DF-RHF Final Energy:  -779.01351028641875

   => Energetics <=

    Nuclear Repulsion Energy =            517.0600516344821926
    One-Electron Energy =               -2111.9590289818947895
    Two-Electron Energy =                 815.8854670609939603
    Total Energy =                       -779.0135102864187502
  Basis Set: (AUG-CC-PVTZ AUX)
    Blend: AUG-CC-PVTZ-RI
    Molecular point group: c1

    Geometry (in Angstrom), charge = -1, multiplicity = 1:

       Center              X                  Y                   Z               Mass
    ------------   -----------------  -----------------  -----------------  -----------------
         S            1.108682526101    -0.024100326272     0.019032577609    31.972071174400
         O            1.100296526101    -0.286394326272     1.486210577609    15.994914619570
         O            2.070903526101    -0.854394326272    -0.754047422391    15.994914619570
         O            1.130748526101     1.423621673728    -0.340858422391    15.994914619570
         C           -1.705339473899    -0.084295326272     0.233036577609    12.000000000000
         C           -0.506884473899    -0.637292326272    -0.534740422391    12.000000000000
         C           -1.978801473899     1.382805673728    -0.093179422391    12.000000000000
         C           -2.947121473899    -0.934205326272    -0.039965422391    12.000000000000
         H           -1.453501473899    -0.163723326272     1.297617577609     1.007825032230
         H           -0.589655473899    -0.419154326272    -1.606623422391     1.007825032230
         H           -0.452395473899    -1.725082326272    -0.414249422391     1.007825032230
         H           -2.266024473899     1.486092673728    -1.147634422391     1.007825032230
         H           -1.082163473899     1.981300673728     0.072054577609     1.007825032230
         H           -2.802934473899     1.769706673728     0.519266577609     1.007825032230
         H           -3.202158473899    -0.909635326272    -1.106581422391     1.007825032230
         H           -2.791506073899    -1.932254926272     0.230037877609     1.007825032230
         H           -3.813671473899    -0.561047326272     0.519704577609     1.007825032230

  Basis Set: AUG-CC-PVTZ
    Blend: AUG-CC-PVTZ
  Basis Set: (AUG-CC-PVTZ AUX)
    Blend: AUG-CC-PVTZ-JKFIT
	 Reference Energy          =    -779.0135102864187502 [Eh]
	 Singles Energy            =      -0.0000000000000000 [Eh]
	 Same-Spin Energy          =      -0.4486617936427587 [Eh]
	 Opposite-Spin Energy      =      -1.3744652075630321 [Eh]
	 Correlation Energy        =      -1.8231270012057910 [Eh]
	 Total Energy              =    -780.8366372876245123 [Eh]

	 ================> DF-SCS-MP2 Energies <==================
	-----------------------------------------------------------
	 SCS Same-Spin Scale       =       0.3333333333333333 [-]
	 SCS Opposite-Spin Scale   =       1.2000000000000000 [-]
	 SCS Same-Spin Energy      =      -0.1495539312142529 [Eh]
	 SCS Opposite-Spin Energy  =      -1.6493582490756384 [Eh]
	 SCS Correlation Energy    =      -1.7989121802898913 [Eh]
	 SCS Total Energy          =    -780.8124224667086537 [Eh]
	-----------------------------------------------------------

  Dipole Moment: [D]
     X:    -6.8547      Y:    -0.8719      Z:    -0.7831     Total:     6.9542

*** Psi4 exiting successfully. Buy a developer a beer!
