                               Psi4 1.4a3.dev225

  ==> Input File <==

--------------------------------------------------------------------------
#psi4
#
memory 32 gb

molecule  {
-1 1
  S        1.2336270    -0.0202320     0.0299590
  O        1.2252410    -0.2825260     1.4971370
  O        2.1958480    -0.8505260    -0.7431210
  O        1.2556930     1.4274900    -0.3299320
  C       -1.5803950    -0.0804270     0.2439630
  C       -0.3819400    -0.6334240    -0.5238140
  C       -1.8538570     1.3866740    -0.0822530
  C       -2.8221770    -0.9303370    -0.0290390
  H       -1.3285570    -0.1598550     1.3085440
  H       -0.4647110    -0.4152860    -1.5956970
  H       -0.3274510    -1.7212140    -0.4033230
  H       -2.1410800     1.4899610    -1.1367080
  H       -0.7927922     2.0949219     0.1132819
  H       -2.6779900     1.7735750     0.5301930
  H       -3.0772140    -0.9057670    -1.0956550
  H       -2.6591200    -1.9761140     0.2538760
  H       -3.6887270    -0.5571790     0.5306310
units angstrom
no_reorient  #important for SAPT in psi4, default
symmetry c1  #important for SAPT in psi4, default
}

set PROPERTIES_ORIGIN ["COM"]
properties('MP2/aug-cc-pvtz', properties = ['dipole'])
--------------------------------------------------------------------------

    Molecular point group: c1
  Charge       = -1
  Multiplicity = 1
  Basis Set: AUG-CC-PVTZ
    Blend: AUG-CC-PVTZ
  Basis Set: (AUG-CC-PVTZ AUX)
    Blend: AUG-CC-PVTZ-JKFIT

    Orbital Energies [Eh]
    ---------------------

    Doubly Occupied:

       1A    -92.000533     2A    -20.342062     3A    -20.341878
       4A    -20.341255     5A    -11.109408     6A    -11.105495
       7A    -11.102333     8A    -11.098739     9A     -8.962123
      10A     -6.647464    11A     -6.647011    12A     -6.646973
      13A     -1.258924    14A     -1.115828    15A     -1.115785
      16A     -0.965287    17A     -0.827250    18A     -0.799285
      19A     -0.661477    20A     -0.608449    21A     -0.519659
      22A     -0.492004    23A     -0.476546    24A     -0.459855
      25A     -0.446602    26A     -0.432127    27A     -0.418550
      28A     -0.401693    29A     -0.356796    30A     -0.342834
      31A     -0.341390    32A     -0.321117    33A     -0.316784
      34A     -0.278476    35A     -0.273269    36A     -0.248794
      37A     -0.239965

  @DF-RHF Final Energy:  -778.99315884692453

   => Energetics <=

    Nuclear Repulsion Energy =            516.2864950415531666
    One-Electron Energy =               -2110.4312703981863706
    Two-Electron Energy =                 815.1516165097085604
    Total Energy =                       -778.9931588469245298
  Basis Set: (AUG-CC-PVTZ AUX)
    Blend: AUG-CC-PVTZ-RI
    Molecular point group: c1

    Geometry (in Angstrom), charge = -1, multiplicity = 1:

       Center              X                  Y                   Z               Mass
    ------------   -----------------  -----------------  -----------------  -----------------
         S            1.107418446963    -0.024556519153     0.018714752190    31.972071174400
         O            1.099032446963    -0.286850519153     1.485892752190    15.994914619570
         O            2.069639446963    -0.854850519153    -0.754365247810    15.994914619570
         O            1.129484446963     1.423165480847    -0.341176247810    15.994914619570
         C           -1.706603553037    -0.084751519153     0.232718752190    12.000000000000
         C           -0.508148553037    -0.637748519153    -0.535058247810    12.000000000000
         C           -1.980065553037     1.382349480847    -0.093497247810    12.000000000000
         C           -2.948385553037    -0.934661519153    -0.040283247810    12.000000000000
         H           -1.454765553037    -0.164179519153     1.297299752190     1.007825032230
         H           -0.590919553037    -0.419610519153    -1.606941247810     1.007825032230
         H           -0.453659553037    -1.725538519153    -0.414567247810     1.007825032230
         H           -2.267288553037     1.485636480847    -1.147952247810     1.007825032230
         H           -0.919000753037     2.090597380847     0.102037652190     1.007825032230
         H           -2.804198553037     1.769250480847     0.518948752190     1.007825032230
         H           -3.203422553037    -0.910091519153    -1.106899247810     1.007825032230
         H           -2.785328553037    -1.980438519153     0.242631752190     1.007825032230
         H           -3.814935553037    -0.561503519153     0.519386752190     1.007825032230

  Basis Set: AUG-CC-PVTZ
    Blend: AUG-CC-PVTZ
  Basis Set: (AUG-CC-PVTZ AUX)
    Blend: AUG-CC-PVTZ-JKFIT
	 Reference Energy          =    -778.9931588469245298 [Eh]
	 Singles Energy            =      -0.0000000000000000 [Eh]
	 Same-Spin Energy          =      -0.4493627287586538 [Eh]
	 Opposite-Spin Energy      =      -1.3770143273047479 [Eh]
	 Correlation Energy        =      -1.8263770560634018 [Eh]
	 Total Energy              =    -780.8195359029879228 [Eh]

	 ================> DF-SCS-MP2 Energies <==================
	-----------------------------------------------------------
	 SCS Same-Spin Scale       =       0.3333333333333333 [-]
	 SCS Opposite-Spin Scale   =       1.2000000000000000 [-]
	 SCS Same-Spin Energy      =      -0.1497875762528846 [Eh]
	 SCS Opposite-Spin Energy  =      -1.6524171927656974 [Eh]
	 SCS Correlation Energy    =      -1.8022047690185821 [Eh]
	 SCS Total Energy          =    -780.7953636159430744 [Eh]
	-----------------------------------------------------------

  Dipole Moment: [D]
     X:    -6.7531      Y:    -0.9214      Z:    -0.8012     Total:     6.8626

*** Psi4 exiting successfully. Buy a developer a beer!
