                               Psi4 1.4a3.dev225

  ==> Input File <==

--------------------------------------------------------------------------
#psi4
#
memory 32 gb

molecule  {
-1 1
  S        1.2336270    -0.0202320     0.0299590
  O        1.2252410    -0.2825260     1.4971370
  O        2.1958480    -0.8505260    -0.7431210
  O        1.2556930     1.4274900    -0.3299320
  C       -1.5803950    -0.0804270     0.2439630
  C       -0.3819400    -0.6334240    -0.5238140
  C       -1.8538570     1.3866740    -0.0822530
  C       -2.8221770    -0.9303370    -0.0290390
  H       -1.3055967    -0.1670965     1.4056027
  H       -0.4647110    -0.4152860    -1.5956970
  H       -0.3274510    -1.7212140    -0.4033230
  H       -2.1410800     1.4899610    -1.1367080
  H       -0.9572190     1.9851690     0.0829810
  H       -2.6779900     1.7735750     0.5301930
  H       -3.0772140    -0.9057670    -1.0956550
  H       -2.6591200    -1.9761140     0.2538760
  H       -3.6887270    -0.5571790     0.5306310
units angstrom
no_reorient  #important for SAPT in psi4, default
symmetry c1  #important for SAPT in psi4, default
}

set PROPERTIES_ORIGIN ["COM"]
properties('MP2/aug-cc-pvtz', properties = ['dipole'])
--------------------------------------------------------------------------

    Molecular point group: c1
  Charge       = -1
  Multiplicity = 1
  Basis Set: AUG-CC-PVTZ
    Blend: AUG-CC-PVTZ
  Basis Set: (AUG-CC-PVTZ AUX)
    Blend: AUG-CC-PVTZ-JKFIT

    Orbital Energies [Eh]
    ---------------------

    Doubly Occupied:

       1A    -92.000025     2A    -20.341411     3A    -20.341302
       4A    -20.340874     5A    -11.115702     6A    -11.109025
       7A    -11.099309     8A    -11.085625     9A     -8.961611
      10A     -6.646965    11A     -6.646491    12A     -6.646458
      13A     -1.258274    14A     -1.115312    15A     -1.114832
      16A     -0.963710    17A     -0.827280    18A     -0.811395
      19A     -0.656809    20A     -0.604049    21A     -0.517674
      22A     -0.491844    23A     -0.483499    24A     -0.460163
      25A     -0.446868    26A     -0.436799    27A     -0.420835
      28A     -0.402784    29A     -0.368803    30A     -0.350977
      31A     -0.330659    32A     -0.320523    33A     -0.317376
      34A     -0.277732    35A     -0.276038    36A     -0.249181
      37A     -0.240117

  @DF-RHF Final Energy:  -779.00787097514058

   => Energetics <=

    Nuclear Repulsion Energy =            516.3865693959503460
    One-Electron Energy =               -2110.6322188044882751
    Two-Electron Energy =                 815.2377784333973523
    Total Energy =                       -779.0078709751405768
  Basis Set: (AUG-CC-PVTZ AUX)
    Blend: AUG-CC-PVTZ-RI
    Molecular point group: c1

    Geometry (in Angstrom), charge = -1, multiplicity = 1:

       Center              X                  Y                   Z               Mass
    ------------   -----------------  -----------------  -----------------  -----------------
         S            1.108458922416    -0.023696034153     0.018223753599    31.972071174400
         O            1.100072922416    -0.285990034153     1.485401753599    15.994914619570
         O            2.070679922416    -0.853990034153    -0.754856246401    15.994914619570
         O            1.130524922416     1.424025965847    -0.341667246401    15.994914619570
         C           -1.705563077584    -0.083891034153     0.232227753599    12.000000000000
         C           -0.507108077584    -0.636888034153    -0.535549246401    12.000000000000
         C           -1.979025077584     1.383209965847    -0.093988246401    12.000000000000
         C           -2.947345077584    -0.933801034153    -0.040774246401    12.000000000000
         H           -1.430764777584    -0.170560534153     1.393867453599     1.007825032230
         H           -0.589879077584    -0.418750034153    -1.607432246401     1.007825032230
         H           -0.452619077584    -1.724678034153    -0.415058246401     1.007825032230
         H           -2.266248077584     1.486496965847    -1.148443246401     1.007825032230
         H           -1.082387077584     1.981704965847     0.071245753599     1.007825032230
         H           -2.803158077584     1.770110965847     0.518457753599     1.007825032230
         H           -3.202382077584    -0.909231034153    -1.107390246401     1.007825032230
         H           -2.784288077584    -1.979578034153     0.242140753599     1.007825032230
         H           -3.813895077584    -0.560643034153     0.518895753599     1.007825032230

  Basis Set: AUG-CC-PVTZ
    Blend: AUG-CC-PVTZ
  Basis Set: (AUG-CC-PVTZ AUX)
    Blend: AUG-CC-PVTZ-JKFIT
	 Reference Energy          =    -779.0078709751405768 [Eh]
	 Singles Energy            =      -0.0000000000000000 [Eh]
	 Same-Spin Energy          =      -0.4488582994676673 [Eh]
	 Opposite-Spin Energy      =      -1.3756586607642030 [Eh]
	 Correlation Energy        =      -1.8245169602318703 [Eh]
	 Total Energy              =    -780.8323879353724806 [Eh]

	 ================> DF-SCS-MP2 Energies <==================
	-----------------------------------------------------------
	 SCS Same-Spin Scale       =       0.3333333333333333 [-]
	 SCS Opposite-Spin Scale   =       1.2000000000000000 [-]
	 SCS Same-Spin Energy      =      -0.1496194331558891 [Eh]
	 SCS Opposite-Spin Energy  =      -1.6507903929170435 [Eh]
	 SCS Correlation Energy    =      -1.8004098260729327 [Eh]
	 SCS Total Energy          =    -780.8082808012135274 [Eh]
	-----------------------------------------------------------

  Dipole Moment: [D]
     X:    -6.8316      Y:    -0.8240      Z:    -0.8350     Total:     6.9316

*** Psi4 exiting successfully. Buy a developer a beer!
