                               Psi4 1.4a3.dev225

  ==> Input File <==

--------------------------------------------------------------------------
#psi4
#
memory 32 gb

molecule  {
-1 1
  S        1.2336270    -0.0202320     0.0299590
  O        1.2252410    -0.2825260     1.4971370
  O        2.1958480    -0.8505260    -0.7431210
  O        1.2556930     1.4274900    -0.3299320
  C       -1.5803950    -0.0804270     0.2439630
  C       -0.3819400    -0.6334240    -0.5238140
  C       -1.8538570     1.3866740    -0.0822530
  C       -2.8221770    -0.9303370    -0.0290390
  H       -1.3170769    -0.1634758     1.3570733
  H       -0.4647110    -0.4152860    -1.5956970
  H       -0.3274510    -1.7212140    -0.4033230
  H       -2.1410800     1.4899610    -1.1367080
  H       -0.9572190     1.9851690     0.0829810
  H       -2.6779900     1.7735750     0.5301930
  H       -3.0772140    -0.9057670    -1.0956550
  H       -2.6591200    -1.9761140     0.2538760
  H       -3.6887270    -0.5571790     0.5306310
units angstrom
no_reorient  #important for SAPT in psi4, default
symmetry c1  #important for SAPT in psi4, default
}

set PROPERTIES_ORIGIN ["COM"]
properties('MP2/aug-cc-pvtz', properties = ['dipole'])
--------------------------------------------------------------------------

    Molecular point group: c1
  Charge       = -1
  Multiplicity = 1
  Basis Set: AUG-CC-PVTZ
    Blend: AUG-CC-PVTZ
  Basis Set: (AUG-CC-PVTZ AUX)
    Blend: AUG-CC-PVTZ-JKFIT

    Orbital Energies [Eh]
    ---------------------

    Doubly Occupied:

       1A    -91.999947     2A    -20.341528     3A    -20.341226
       4A    -20.340781     5A    -11.110183     6A    -11.108594
       7A    -11.098784     8A    -11.085168     9A     -8.961536
      10A     -6.646885    11A     -6.646416    12A     -6.646386
      13A     -1.258246    14A     -1.115316    15A     -1.114786
      16A     -0.964871    17A     -0.826972    18A     -0.811090
      19A     -0.660086    20A     -0.606110    21A     -0.519262
      22A     -0.491669    23A     -0.483285    24A     -0.460262
      25A     -0.446817    26A     -0.436584    27A     -0.420806
      28A     -0.402637    29A     -0.368557    30A     -0.350468
      31A     -0.335407    32A     -0.320482    33A     -0.319415
      34A     -0.277869    35A     -0.275970    36A     -0.249004
      37A     -0.240147

  @DF-RHF Final Energy:  -779.01231044439226

   => Energetics <=

    Nuclear Repulsion Energy =            516.6077037379095600
    One-Electron Energy =               -2111.0729232068779311
    Two-Electron Energy =                 815.4529090245761154
    Total Energy =                       -779.0123104443922557
  Basis Set: (AUG-CC-PVTZ AUX)
    Blend: AUG-CC-PVTZ-RI
    Molecular point group: c1

    Geometry (in Angstrom), charge = -1, multiplicity = 1:

       Center              X                  Y                   Z               Mass
    ------------   -----------------  -----------------  -----------------  -----------------
         S            1.108543358422    -0.023722664129     0.018580683681    31.972071174400
         O            1.100157358422    -0.286016664129     1.485758683681    15.994914619570
         O            2.070764358422    -0.854016664129    -0.754499316319    15.994914619570
         O            1.130609358422     1.423999335871    -0.341310316319    15.994914619570
         C           -1.705478641578    -0.083917664129     0.232584683681    12.000000000000
         C           -0.507023641578    -0.636914664129    -0.535192316319    12.000000000000
         C           -1.978940641578     1.383183335871    -0.093631316319    12.000000000000
         C           -2.947260641578    -0.933827664129    -0.040417316319    12.000000000000
         H           -1.442160541578    -0.166966464129     1.345694983681     1.007825032230
         H           -0.589794641578    -0.418776664129    -1.607075316319     1.007825032230
         H           -0.452534641578    -1.724704664129    -0.414701316319     1.007825032230
         H           -2.266163641578     1.486470335871    -1.148086316319     1.007825032230
         H           -1.082302641578     1.981678335871     0.071602683681     1.007825032230
         H           -2.803073641578     1.770084335871     0.518814683681     1.007825032230
         H           -3.202297641578    -0.909257664129    -1.107033316319     1.007825032230
         H           -2.784203641578    -1.979604664129     0.242497683681     1.007825032230
         H           -3.813810641578    -0.560669664129     0.519252683681     1.007825032230

  Basis Set: AUG-CC-PVTZ
    Blend: AUG-CC-PVTZ
  Basis Set: (AUG-CC-PVTZ AUX)
    Blend: AUG-CC-PVTZ-JKFIT
	 Reference Energy          =    -779.0123104443922557 [Eh]
	 Singles Energy            =      -0.0000000000000000 [Eh]
	 Same-Spin Energy          =      -0.4487499072578054 [Eh]
	 Opposite-Spin Energy      =      -1.3751709684827405 [Eh]
	 Correlation Energy        =      -1.8239208757405458 [Eh]
	 Total Energy              =    -780.8362313201328107 [Eh]

	 ================> DF-SCS-MP2 Energies <==================
	-----------------------------------------------------------
	 SCS Same-Spin Scale       =       0.3333333333333333 [-]
	 SCS Opposite-Spin Scale   =       1.2000000000000000 [-]
	 SCS Same-Spin Energy      =      -0.1495833024192685 [Eh]
	 SCS Opposite-Spin Energy  =      -1.6502051621792886 [Eh]
	 SCS Correlation Energy    =      -1.7997884645985571 [Eh]
	 SCS Total Energy          =    -780.8120989089908335 [Eh]
	-----------------------------------------------------------

  Dipole Moment: [D]
     X:    -6.8396      Y:    -0.8279      Z:    -0.8103     Total:     6.9370

*** Psi4 exiting successfully. Buy a developer a beer!
