                               Psi4 1.4a3.dev225

  ==> Input File <==

--------------------------------------------------------------------------
#psi4
#
memory 32 gb

molecule  {
-1 1
  S        1.2336270    -0.0202320     0.0299590
  O        1.1515393    -0.2096471     1.5060563
  O        2.1958480    -0.8505260    -0.7431210
  O        1.2556930     1.4274900    -0.3299320
  C       -1.5803950    -0.0804270     0.2439630
  C       -0.3819400    -0.6334240    -0.5238140
  C       -1.8538570     1.3866740    -0.0822530
  C       -2.8221770    -0.9303370    -0.0290390
  H       -1.3285570    -0.1598550     1.3085440
  H       -0.4647110    -0.4152860    -1.5956970
  H       -0.3274510    -1.7212140    -0.4033230
  H       -2.1410800     1.4899610    -1.1367080
  H       -0.9572190     1.9851690     0.0829810
  H       -2.6779900     1.7735750     0.5301930
  H       -3.0772140    -0.9057670    -1.0956550
  H       -2.6591200    -1.9761140     0.2538760
  H       -3.6887270    -0.5571790     0.5306310
units angstrom
no_reorient  #important for SAPT in psi4, default
symmetry c1  #important for SAPT in psi4, default
}

set PROPERTIES_ORIGIN ["COM"]
properties('MP2/aug-cc-pvtz', properties = ['dipole'])
--------------------------------------------------------------------------

    Molecular point group: c1
  Charge       = -1
  Multiplicity = 1
  Basis Set: AUG-CC-PVTZ
    Blend: AUG-CC-PVTZ
  Basis Set: (AUG-CC-PVTZ AUX)
    Blend: AUG-CC-PVTZ-JKFIT

    Orbital Energies [Eh]
    ---------------------

    Doubly Occupied:

       1A    -92.000468     2A    -20.347619     3A    -20.342052
       4A    -20.336904     5A    -11.106912     6A    -11.102049
       7A    -11.096345     8A    -11.082878     9A     -8.962037
      10A     -6.647402    11A     -6.646980    12A     -6.646807
      13A     -1.259050    14A     -1.122070    15A     -1.110444
      16A     -0.964371    17A     -0.825077    18A     -0.809086
      19A     -0.663176    20A     -0.607171    21A     -0.520106
      22A     -0.491063    23A     -0.482010    24A     -0.459678
      25A     -0.448756    26A     -0.434764    27A     -0.419297
      28A     -0.401314    29A     -0.367260    30A     -0.348498
      31A     -0.338564    32A     -0.322992    33A     -0.319552
      34A     -0.282070    35A     -0.273689    36A     -0.247721
      37A     -0.240809

  @DF-RHF Final Energy:  -779.01252051207018

   => Energetics <=

    Nuclear Repulsion Energy =            517.4347012773282586
    One-Electron Energy =               -2112.7403561436512973
    Two-Electron Energy =                 816.2931343542528566
    Total Energy =                       -779.0125205120701821
  Basis Set: (AUG-CC-PVTZ AUX)
    Blend: AUG-CC-PVTZ-RI
    Molecular point group: c1

    Geometry (in Angstrom), charge = -1, multiplicity = 1:

       Center              X                  Y                   Z               Mass
    ------------   -----------------  -----------------  -----------------  -----------------
         S            1.117230845145    -0.032256302500     0.017896481048    31.972071174400
         O            1.035143145145    -0.221671402500     1.493993781048    15.994914619570
         O            2.079451845145    -0.862550302500    -0.755183518952    15.994914619570
         O            1.139296845145     1.415465697500    -0.341994518952    15.994914619570
         C           -1.696791154855    -0.092451302500     0.231900481048    12.000000000000
         C           -0.498336154855    -0.645448302500    -0.535876518952    12.000000000000
         C           -1.970253154855     1.374649697500    -0.094315518952    12.000000000000
         C           -2.938573154855    -0.942361302500    -0.041101518952    12.000000000000
         H           -1.444953154855    -0.171879302500     1.296481481048     1.007825032230
         H           -0.581107154855    -0.427310302500    -1.607759518952     1.007825032230
         H           -0.443847154855    -1.733238302500    -0.415385518952     1.007825032230
         H           -2.257476154855     1.477936697500    -1.148770518952     1.007825032230
         H           -1.073615154855     1.973144697500     0.070918481048     1.007825032230
         H           -2.794386154855     1.761550697500     0.518130481048     1.007825032230
         H           -3.193610154855    -0.917791302500    -1.107717518952     1.007825032230
         H           -2.775516154855    -1.988138302500     0.241813481048     1.007825032230
         H           -3.805123154855    -0.569203302500     0.518568481048     1.007825032230

  Basis Set: AUG-CC-PVTZ
    Blend: AUG-CC-PVTZ
  Basis Set: (AUG-CC-PVTZ AUX)
    Blend: AUG-CC-PVTZ-JKFIT
	 Reference Energy          =    -779.0125205120701821 [Eh]
	 Singles Energy            =      -0.0000000000000000 [Eh]
	 Same-Spin Energy          =      -0.4489149867537467 [Eh]
	 Opposite-Spin Energy      =      -1.3751689672301326 [Eh]
	 Correlation Energy        =      -1.8240839539838793 [Eh]
	 Total Energy              =    -780.8366044660540410 [Eh]

	 ================> DF-SCS-MP2 Energies <==================
	-----------------------------------------------------------
	 SCS Same-Spin Scale       =       0.3333333333333333 [-]
	 SCS Opposite-Spin Scale   =       1.2000000000000000 [-]
	 SCS Same-Spin Energy      =      -0.1496383289179156 [Eh]
	 SCS Opposite-Spin Energy  =      -1.6502027606761591 [Eh]
	 SCS Correlation Energy    =      -1.7998410895940746 [Eh]
	 SCS Total Energy          =    -780.8123616016642927 [Eh]
	-----------------------------------------------------------

  Dipole Moment: [D]
     X:    -6.6253      Y:    -1.0047      Z:    -0.7956     Total:     6.7481

*** Psi4 exiting successfully. Buy a developer a beer!
