                               Psi4 1.4a3.dev225

  ==> Input File <==

--------------------------------------------------------------------------
#psi4
#
memory 32 gb

molecule  {
-1 1
  S        1.2336270    -0.0202320     0.0299590
  O        1.2436869    -0.3005598     1.4937878
  O        2.1958480    -0.8505260    -0.7431210
  O        1.2556930     1.4274900    -0.3299320
  C       -1.5803950    -0.0804270     0.2439630
  C       -0.3819400    -0.6334240    -0.5238140
  C       -1.8538570     1.3866740    -0.0822530
  C       -2.8221770    -0.9303370    -0.0290390
  H       -1.3285570    -0.1598550     1.3085440
  H       -0.4647110    -0.4152860    -1.5956970
  H       -0.3274510    -1.7212140    -0.4033230
  H       -2.1410800     1.4899610    -1.1367080
  H       -0.9572190     1.9851690     0.0829810
  H       -2.6779900     1.7735750     0.5301930
  H       -3.0772140    -0.9057670    -1.0956550
  H       -2.6591200    -1.9761140     0.2538760
  H       -3.6887270    -0.5571790     0.5306310
units angstrom
no_reorient  #important for SAPT in psi4, default
symmetry c1  #important for SAPT in psi4, default
}

set PROPERTIES_ORIGIN ["COM"]
properties('MP2/aug-cc-pvtz', properties = ['dipole'])
--------------------------------------------------------------------------

    Molecular point group: c1
  Charge       = -1
  Multiplicity = 1
  Basis Set: AUG-CC-PVTZ
    Blend: AUG-CC-PVTZ
  Basis Set: (AUG-CC-PVTZ AUX)
    Blend: AUG-CC-PVTZ-JKFIT

    Orbital Energies [Eh]
    ---------------------

    Doubly Occupied:

       1A    -91.999712     2A    -20.342200     3A    -20.341460
       4A    -20.338911     5A    -11.108695     6A    -11.104890
       7A    -11.098801     8A    -11.085229     9A     -8.961317
      10A     -6.646658    11A     -6.646200    12A     -6.646166
      13A     -1.258038    14A     -1.115859    15A     -1.113454
      16A     -0.966886    17A     -0.827111    18A     -0.811268
      19A     -0.664596    20A     -0.608481    21A     -0.521038
      22A     -0.491635    23A     -0.483398    24A     -0.460556
      25A     -0.446224    26A     -0.436788    27A     -0.421207
      28A     -0.402823    29A     -0.368742    30A     -0.350470
      31A     -0.341413    32A     -0.320676    33A     -0.319785
      34A     -0.277493    35A     -0.275747    36A     -0.249078
      37A     -0.239740

  @DF-RHF Final Energy:  -779.01453790247058

   => Energetics <=

    Nuclear Repulsion Energy =            516.7046336340572452
    One-Electron Energy =               -2111.2528492817746155
    Two-Electron Energy =                 815.5336777452467913
    Total Energy =                       -779.0145379024705790
  Basis Set: (AUG-CC-PVTZ AUX)
    Blend: AUG-CC-PVTZ-RI
    Molecular point group: c1

    Geometry (in Angstrom), charge = -1, multiplicity = 1:

       Center              X                  Y                   Z               Mass
    ------------   -----------------  -----------------  -----------------  -----------------
         S            1.106474640825    -0.021644245577     0.019328558419    31.972071174400
         O            1.116534540825    -0.301972045577     1.483157358419    15.994914619570
         O            2.068695640825    -0.851938245577    -0.753751441581    15.994914619570
         O            1.128540640825     1.426077754423    -0.340562441581    15.994914619570
         C           -1.707547359175    -0.081839245577     0.233332558419    12.000000000000
         C           -0.509092359175    -0.634836245577    -0.534444441581    12.000000000000
         C           -1.981009359175     1.385261754423    -0.092883441581    12.000000000000
         C           -2.949329359175    -0.931749245577    -0.039669441581    12.000000000000
         H           -1.455709359175    -0.161267245577     1.297913558419     1.007825032230
         H           -0.591863359175    -0.416698245577    -1.606327441581     1.007825032230
         H           -0.454603359175    -1.722626245577    -0.413953441581     1.007825032230
         H           -2.268232359175     1.488548754423    -1.147338441581     1.007825032230
         H           -1.084371359175     1.983756754423     0.072350558419     1.007825032230
         H           -2.805142359175     1.772162754423     0.519562558419     1.007825032230
         H           -3.204366359175    -0.907179245577    -1.106285441581     1.007825032230
         H           -2.786272359175    -1.977526245577     0.243245558419     1.007825032230
         H           -3.815879359175    -0.558591245577     0.520000558419     1.007825032230

  Basis Set: AUG-CC-PVTZ
    Blend: AUG-CC-PVTZ
  Basis Set: (AUG-CC-PVTZ AUX)
    Blend: AUG-CC-PVTZ-JKFIT
	 Reference Energy          =    -779.0145379024705790 [Eh]
	 Singles Energy            =      -0.0000000000000000 [Eh]
	 Same-Spin Energy          =      -0.4486058492902757 [Eh]
	 Opposite-Spin Energy      =      -1.3746752154223110 [Eh]
	 Correlation Energy        =      -1.8232810647125866 [Eh]
	 Total Energy              =    -780.8378189671831251 [Eh]

	 ================> DF-SCS-MP2 Energies <==================
	-----------------------------------------------------------
	 SCS Same-Spin Scale       =       0.3333333333333333 [-]
	 SCS Opposite-Spin Scale   =       1.2000000000000000 [-]
	 SCS Same-Spin Energy      =      -0.1495352830967586 [Eh]
	 SCS Opposite-Spin Energy  =      -1.6496102585067731 [Eh]
	 SCS Correlation Energy    =      -1.7991455416035316 [Eh]
	 SCS Total Energy          =    -780.8136834440740586 [Eh]
	-----------------------------------------------------------

  Dipole Moment: [D]
     X:    -6.9029      Y:    -0.7880      Z:    -0.7862     Total:     6.9921

*** Psi4 exiting successfully. Buy a developer a beer!
