                               Psi4 1.4a3.dev225

  ==> Input File <==

--------------------------------------------------------------------------
#psi4
#
memory 32 gb

molecule  {
-1 1
  S        1.2336270    -0.0202320     0.0299590
  O        1.2252410    -0.2825260     1.4971370
  O        2.1958480    -0.8505260    -0.7431210
  O        1.2556930     1.4274900    -0.3299320
  C       -1.5803950    -0.0804270     0.2439630
  C       -0.3819400    -0.6334240    -0.5238140
  C       -1.8538570     1.3866740    -0.0822530
  C       -2.7815785    -0.9025503    -0.0201136
  H       -1.3285570    -0.1598550     1.3085440
  H       -0.4647110    -0.4152860    -1.5956970
  H       -0.3274510    -1.7212140    -0.4033230
  H       -2.1410800     1.4899610    -1.1367080
  H       -0.9572190     1.9851690     0.0829810
  H       -2.6779900     1.7735750     0.5301930
  H       -3.0772140    -0.9057670    -1.0956550
  H       -2.6591200    -1.9761140     0.2538760
  H       -3.6887270    -0.5571790     0.5306310
units angstrom
no_reorient  #important for SAPT in psi4, default
symmetry c1  #important for SAPT in psi4, default
}

set PROPERTIES_ORIGIN ["COM"]
properties('MP2/aug-cc-pvtz', properties = ['dipole'])
--------------------------------------------------------------------------

    Molecular point group: c1
  Charge       = -1
  Multiplicity = 1
  Basis Set: AUG-CC-PVTZ
    Blend: AUG-CC-PVTZ
  Basis Set: (AUG-CC-PVTZ AUX)
    Blend: AUG-CC-PVTZ-JKFIT

    Orbital Energies [Eh]
    ---------------------

    Doubly Occupied:

       1A    -91.999999     2A    -20.341758     3A    -20.341267
       4A    -20.340801     5A    -11.111667     6A    -11.101731
       7A    -11.098594     8A    -11.084998     9A     -8.961590
      10A     -6.646934    11A     -6.646471    12A     -6.646444
      13A     -1.258345    14A     -1.115448    15A     -1.114851
      16A     -0.973590    17A     -0.826771    18A     -0.810112
      19A     -0.664850    20A     -0.609199    21A     -0.522865
      22A     -0.491977    23A     -0.484191    24A     -0.459824
      25A     -0.446296    26A     -0.436669    27A     -0.416522
      28A     -0.399952    29A     -0.374672    30A     -0.349304
      31A     -0.338586    32A     -0.320671    33A     -0.320313
      34A     -0.278101    35A     -0.276010    36A     -0.249615
      37A     -0.240332

  @DF-RHF Final Energy:  -779.01147675988386

   => Energetics <=

    Nuclear Repulsion Energy =            517.7505742008131620
    One-Electron Energy =               -2113.3214602783168630
    Two-Electron Energy =                 816.5594093176198385
    Total Energy =                       -779.0114767598838625
  Basis Set: (AUG-CC-PVTZ AUX)
    Blend: AUG-CC-PVTZ-RI
    Molecular point group: c1

    Geometry (in Angstrom), charge = -1, multiplicity = 1:

       Center              X                  Y                   Z               Mass
    ------------   -----------------  -----------------  -----------------  -----------------
         S            1.105072427630    -0.026182682531     0.018155981582    31.972071174400
         O            1.096686427630    -0.288476682531     1.485333981582    15.994914619570
         O            2.067293427630    -0.856476682531    -0.754924018418    15.994914619570
         O            1.127138427630     1.421539317469    -0.341735018418    15.994914619570
         C           -1.708949572370    -0.086377682531     0.232159981582    12.000000000000
         C           -0.510494572370    -0.639374682531    -0.535617018418    12.000000000000
         C           -1.982411572370     1.380723317469    -0.094056018418    12.000000000000
         C           -2.910133072370    -0.908500982531    -0.031916618418    12.000000000000
         H           -1.457111572370    -0.165805682531     1.296740981582     1.007825032230
         H           -0.593265572370    -0.421236682531    -1.607500018418     1.007825032230
         H           -0.456005572370    -1.727164682531    -0.415126018418     1.007825032230
         H           -2.269634572370     1.484010317469    -1.148511018418     1.007825032230
         H           -1.085773572370     1.979218317469     0.071177981582     1.007825032230
         H           -2.806544572370     1.767624317469     0.518389981582     1.007825032230
         H           -3.205768572370    -0.911717682531    -1.107458018418     1.007825032230
         H           -2.787674572370    -1.982064682531     0.242072981582     1.007825032230
         H           -3.817281572370    -0.563129682531     0.518827981582     1.007825032230

  Basis Set: AUG-CC-PVTZ
    Blend: AUG-CC-PVTZ
  Basis Set: (AUG-CC-PVTZ AUX)
    Blend: AUG-CC-PVTZ-JKFIT
	 Reference Energy          =    -779.0114767598838625 [Eh]
	 Singles Energy            =      -0.0000000000000000 [Eh]
	 Same-Spin Energy          =      -0.4490733429265542 [Eh]
	 Opposite-Spin Energy      =      -1.3752081490044359 [Eh]
	 Correlation Energy        =      -1.8242814919309900 [Eh]
	 Total Energy              =    -780.8357582518148092 [Eh]

	 ================> DF-SCS-MP2 Energies <==================
	-----------------------------------------------------------
	 SCS Same-Spin Scale       =       0.3333333333333333 [-]
	 SCS Opposite-Spin Scale   =       1.2000000000000000 [-]
	 SCS Same-Spin Energy      =      -0.1496911143088514 [Eh]
	 SCS Opposite-Spin Energy  =      -1.6502497788053230 [Eh]
	 SCS Correlation Energy    =      -1.7999408931141743 [Eh]
	 SCS Total Energy          =    -780.8114176529979886 [Eh]
	-----------------------------------------------------------

  Dipole Moment: [D]
     X:    -6.8268      Y:    -0.8217      Z:    -0.7855     Total:     6.9208

*** Psi4 exiting successfully. Buy a developer a beer!
