                               Psi4 1.4a3.dev225

  ==> Input File <==

--------------------------------------------------------------------------
#psi4
#
memory 32 gb

molecule  {
-1 1
  S        1.2336270    -0.0202320     0.0299590
  O        1.2252410    -0.2825260     1.4971370
  O        2.1958480    -0.8505260    -0.7431210
  O        1.2556930     1.4274900    -0.3299320
  C       -1.5803950    -0.0804270     0.2439630
  C       -0.3819400    -0.6334240    -0.5238140
  C       -1.8538570     1.3866740    -0.0822530
  C       -2.8221770    -0.9303370    -0.0290390
  H       -1.3285570    -0.1598550     1.3085440
  H       -0.4647110    -0.4152860    -1.5956970
  H       -0.3274510    -1.7212140    -0.4033230
  H       -2.1410800     1.4899610    -1.1367080
  H       -0.9572190     1.9851690     0.0829810
  H       -2.6779900     1.7735750     0.5301930
  H       -3.0772140    -0.9057670    -1.0956550
  H       -2.7193104    -1.9700488     0.3006516
  H       -3.6887270    -0.5571790     0.5306310
units angstrom
no_reorient  #important for SAPT in psi4, default
symmetry c1  #important for SAPT in psi4, default
}

set PROPERTIES_ORIGIN ["COM"]
properties('MP2/aug-cc-pvtz', properties = ['dipole'])
--------------------------------------------------------------------------

    Molecular point group: c1
  Charge       = -1
  Multiplicity = 1
  Basis Set: AUG-CC-PVTZ
    Blend: AUG-CC-PVTZ
  Basis Set: (AUG-CC-PVTZ AUX)
    Blend: AUG-CC-PVTZ-JKFIT

    Orbital Energies [Eh]
    ---------------------

    Doubly Occupied:

       1A    -91.999796     2A    -20.341582     3A    -20.341115
       4A    -20.340628     5A    -11.108407     6A    -11.104812
       7A    -11.098195     8A    -11.085023     9A     -8.961392
      10A     -6.646735    11A     -6.646273    12A     -6.646245
      13A     -1.258166    14A     -1.115267    15A     -1.114693
      16A     -0.966195    17A     -0.827026    18A     -0.810861
      19A     -0.664921    20A     -0.608070    21A     -0.522401
      22A     -0.490394    23A     -0.481415    24A     -0.461298
      25A     -0.446209    26A     -0.436185    27A     -0.422203
      28A     -0.400003    29A     -0.369506    30A     -0.350082
      31A     -0.341359    32A     -0.320429    33A     -0.320400
      34A     -0.277875    35A     -0.275828    36A     -0.248757
      37A     -0.240123

  @DF-RHF Final Energy:  -779.01400184313195

   => Energetics <=

    Nuclear Repulsion Energy =            516.7383713169347175
    One-Electron Energy =               -2111.3250014739155631
    Two-Electron Energy =                 815.5726283138488952
    Total Energy =                       -779.0140018431319504
  Basis Set: (AUG-CC-PVTZ AUX)
    Blend: AUG-CC-PVTZ-RI
    Molecular point group: c1

    Geometry (in Angstrom), charge = -1, multiplicity = 1:

       Center              X                  Y                   Z               Mass
    ------------   -----------------  -----------------  -----------------  -----------------
         S            1.109070489552    -0.023793903929     0.018593582013    31.972071174400
         O            1.100684489552    -0.286087903929     1.485771582013    15.994914619570
         O            2.071291489552    -0.854087903929    -0.754486417987    15.994914619570
         O            1.131136489552     1.423928096071    -0.341297417987    15.994914619570
         C           -1.704951510448    -0.083988903929     0.232597582013    12.000000000000
         C           -0.506496510448    -0.636985903929    -0.535179417987    12.000000000000
         C           -1.978413510448     1.383112096071    -0.093618417987    12.000000000000
         C           -2.946733510448    -0.933898903929    -0.040404417987    12.000000000000
         H           -1.453113510448    -0.163416903929     1.297178582013     1.007825032230
         H           -0.589267510448    -0.418847903929    -1.607062417987     1.007825032230
         H           -0.452007510448    -1.724775903929    -0.414688417987     1.007825032230
         H           -2.265636510448     1.486399096071    -1.148073417987     1.007825032230
         H           -1.081775510448     1.981607096071     0.071615582013     1.007825032230
         H           -2.802546510448     1.770013096071     0.518827582013     1.007825032230
         H           -3.201770510448    -0.909328903929    -1.107020417987     1.007825032230
         H           -2.843866910448    -1.973610703929     0.289286182013     1.007825032230
         H           -3.813283510448    -0.560740903929     0.519265582013     1.007825032230

  Basis Set: AUG-CC-PVTZ
    Blend: AUG-CC-PVTZ
  Basis Set: (AUG-CC-PVTZ AUX)
    Blend: AUG-CC-PVTZ-JKFIT
	 Reference Energy          =    -779.0140018431319504 [Eh]
	 Singles Energy            =      -0.0000000000000000 [Eh]
	 Same-Spin Energy          =      -0.4486300106760644 [Eh]
	 Opposite-Spin Energy      =      -1.3746935108558362 [Eh]
	 Correlation Energy        =      -1.8233235215319006 [Eh]
	 Total Energy              =    -780.8373253646637977 [Eh]

	 ================> DF-SCS-MP2 Energies <==================
	-----------------------------------------------------------
	 SCS Same-Spin Scale       =       0.3333333333333333 [-]
	 SCS Opposite-Spin Scale   =       1.2000000000000000 [-]
	 SCS Same-Spin Energy      =      -0.1495433368920215 [Eh]
	 SCS Opposite-Spin Energy  =      -1.6496322130270034 [Eh]
	 SCS Correlation Energy    =      -1.7991755499190247 [Eh]
	 SCS Total Energy          =    -780.8131773930509780 [Eh]
	-----------------------------------------------------------

  Dipole Moment: [D]
     X:    -6.8631      Y:    -0.8344      Z:    -0.7732     Total:     6.9567

*** Psi4 exiting successfully. Buy a developer a beer!
