                               Psi4 1.4a3.dev225

  ==> Input File <==

--------------------------------------------------------------------------
#psi4
#
memory 32 gb

molecule  {
-1 1
  S        1.2336270    -0.0202320     0.0299590
  O        1.2252410    -0.2825260     1.4971370
  O        2.1958480    -0.8505260    -0.7431210
  O        1.2556930     1.4274900    -0.3299320
  C       -1.5803950    -0.0804270     0.2439630
  C       -0.5600044    -0.7010087    -0.5848497
  C       -1.8538570     1.3866740    -0.0822530
  C       -2.8221770    -0.9303370    -0.0290390
  H       -1.3285570    -0.1598550     1.3085440
  H       -0.4647110    -0.4152860    -1.5956970
  H       -0.3274510    -1.7212140    -0.4033230
  H       -2.1410800     1.4899610    -1.1367080
  H       -0.9572190     1.9851690     0.0829810
  H       -2.6779900     1.7735750     0.5301930
  H       -3.0772140    -0.9057670    -1.0956550
  H       -2.6591200    -1.9761140     0.2538760
  H       -3.6887270    -0.5571790     0.5306310
units angstrom
no_reorient  #important for SAPT in psi4, default
symmetry c1  #important for SAPT in psi4, default
}

set PROPERTIES_ORIGIN ["COM"]
properties('MP2/aug-cc-pvtz', properties = ['dipole'])
--------------------------------------------------------------------------

    Molecular point group: c1
  Charge       = -1
  Multiplicity = 1
  Basis Set: AUG-CC-PVTZ
    Blend: AUG-CC-PVTZ
  Basis Set: (AUG-CC-PVTZ AUX)
    Blend: AUG-CC-PVTZ-JKFIT

    Orbital Energies [Eh]
    ---------------------

    Doubly Occupied:

       1A    -91.995675     2A    -20.343372     3A    -20.342342
       4A    -20.342106     5A    -11.105347     6A    -11.100632
       7A    -11.097205     8A    -11.086453     9A     -8.957112
      10A     -6.642081    11A     -6.641796    12A     -6.641769
      13A     -1.253808    14A     -1.114589    15A     -1.113750
      16A     -0.977928    17A     -0.814244    18A     -0.813030
      19A     -0.660353    20A     -0.607578    21A     -0.527660
      22A     -0.492664    23A     -0.483995    24A     -0.455891
      25A     -0.446757    26A     -0.438040    27A     -0.421351
      28A     -0.406663    29A     -0.372895    30A     -0.362553
      31A     -0.346984    32A     -0.321375    33A     -0.319526
      34A     -0.279904    35A     -0.278338    36A     -0.241114
      37A     -0.206825

  @DF-RHF Final Energy:  -778.98736096897392

   => Energetics <=

    Nuclear Repulsion Energy =            513.9810753825837537
    One-Electron Energy =               -2105.8294613106386350
    Two-Electron Energy =                 812.8610249590810781
    Total Energy =                       -778.9873609689739169
  Basis Set: (AUG-CC-PVTZ AUX)
    Blend: AUG-CC-PVTZ-RI
    Molecular point group: c1

    Geometry (in Angstrom), charge = -1, multiplicity = 1:

       Center              X                  Y                   Z               Mass
    ------------   -----------------  -----------------  -----------------  -----------------
         S            1.124221574864    -0.017830643935     0.024282742932    31.972071174400
         O            1.115835574864    -0.280124643935     1.491460742932    15.994914619570
         O            2.086442574864    -0.848124643935    -0.748797257068    15.994914619570
         O            1.146287574864     1.429891356065    -0.335608257068    15.994914619570
         C           -1.689800425136    -0.078025643935     0.238286742932    12.000000000000
         C           -0.669409825136    -0.698607343935    -0.590525957068    12.000000000000
         C           -1.963262425136     1.389075356065    -0.087929257068    12.000000000000
         C           -2.931582425136    -0.927935643935    -0.034715257068    12.000000000000
         H           -1.437962425136    -0.157453643935     1.302867742932     1.007825032230
         H           -0.574116425136    -0.412884643935    -1.601373257068     1.007825032230
         H           -0.436856425136    -1.718812643935    -0.408999257068     1.007825032230
         H           -2.250485425136     1.492362356065    -1.142384257068     1.007825032230
         H           -1.066624425136     1.987570356065     0.077304742932     1.007825032230
         H           -2.787395425136     1.775976356065     0.524516742932     1.007825032230
         H           -3.186619425136    -0.903365643935    -1.101331257068     1.007825032230
         H           -2.768525425136    -1.973712643935     0.248199742932     1.007825032230
         H           -3.798132425136    -0.554777643935     0.524954742932     1.007825032230

  Basis Set: AUG-CC-PVTZ
    Blend: AUG-CC-PVTZ
  Basis Set: (AUG-CC-PVTZ AUX)
    Blend: AUG-CC-PVTZ-JKFIT
	 Reference Energy          =    -778.9873609689739169 [Eh]
	 Singles Energy            =      -0.0000000000000000 [Eh]
	 Same-Spin Energy          =      -0.4510788195235343 [Eh]
	 Opposite-Spin Energy      =      -1.3792440109744928 [Eh]
	 Correlation Energy        =      -1.8303228304980270 [Eh]
	 Total Energy              =    -780.8176837994719790 [Eh]

	 ================> DF-SCS-MP2 Energies <==================
	-----------------------------------------------------------
	 SCS Same-Spin Scale       =       0.3333333333333333 [-]
	 SCS Opposite-Spin Scale   =       1.2000000000000000 [-]
	 SCS Same-Spin Energy      =      -0.1503596065078448 [Eh]
	 SCS Opposite-Spin Energy  =      -1.6550928131693914 [Eh]
	 SCS Correlation Energy    =      -1.8054524196772361 [Eh]
	 SCS Total Energy          =    -780.7928133886510977 [Eh]
	-----------------------------------------------------------

  Dipole Moment: [D]
     X:    -6.5508      Y:    -0.6966      Z:    -0.7152     Total:     6.6264

*** Psi4 exiting successfully. Buy a developer a beer!
