                               Psi4 1.4a3.dev225

  ==> Input File <==

--------------------------------------------------------------------------
#psi4
#
memory 32 gb

molecule  {
-1 1
  S        1.2336270    -0.0202320     0.0299590
  O        1.2252410    -0.2825260     1.4971370
  O        2.1958480    -0.8505260    -0.7431210
  O        1.2556930     1.4274900    -0.3299320
  C       -1.5803950    -0.0804270     0.2439630
  C       -0.3819400    -0.6334240    -0.5238140
  C       -1.8538570     1.3866740    -0.0822530
  C       -2.8221770    -0.9303370    -0.0290390
  H       -1.3285570    -0.1598550     1.3085440
  H       -0.4647110    -0.4152860    -1.5956970
  H       -0.3274510    -1.7212140    -0.4033230
  H       -2.1410800     1.4899610    -1.1367080
  H       -0.9572190     1.9851690     0.0829810
  H       -2.6779900     1.7735750     0.5301930
  H       -3.0655893    -0.9068869    -1.0470380
  H       -2.6591200    -1.9761140     0.2538760
  H       -3.6887270    -0.5571790     0.5306310
units angstrom
no_reorient  #important for SAPT in psi4, default
symmetry c1  #important for SAPT in psi4, default
}

set PROPERTIES_ORIGIN ["COM"]
properties('MP2/aug-cc-pvtz', properties = ['dipole'])
--------------------------------------------------------------------------

    Molecular point group: c1
  Charge       = -1
  Multiplicity = 1
  Basis Set: AUG-CC-PVTZ
    Blend: AUG-CC-PVTZ
  Basis Set: (AUG-CC-PVTZ AUX)
    Blend: AUG-CC-PVTZ-JKFIT

    Orbital Energies [Eh]
    ---------------------

    Doubly Occupied:

       1A    -91.999771     2A    -20.341496     3A    -20.341059
       4A    -20.340601     5A    -11.103699     6A    -11.101712
       7A    -11.098161     8A    -11.084649     9A     -8.961361
      10A     -6.646706    11A     -6.646242    12A     -6.646213
      13A     -1.258106    14A     -1.115201    15A     -1.114634
      16A     -0.967072    17A     -0.828789    18A     -0.812355
      19A     -0.665724    20A     -0.608335    21A     -0.521474
      22A     -0.491856    23A     -0.483372    24A     -0.461453
      25A     -0.446760    26A     -0.436799    27A     -0.425830
      28A     -0.402218    29A     -0.368044    30A     -0.349701
      31A     -0.341246    32A     -0.320372    33A     -0.320324
      34A     -0.277816    35A     -0.275790    36A     -0.248674
      37A     -0.240052

  @DF-RHF Final Energy:  -779.01346491642698

   => Energetics <=

    Nuclear Repulsion Energy =            517.0611583141696883
    One-Electron Energy =               -2111.9619084558416944
    Two-Electron Energy =                 815.8872852252450230
    Total Energy =                       -779.0134649164269831
  Basis Set: (AUG-CC-PVTZ AUX)
    Blend: AUG-CC-PVTZ-RI
    Molecular point group: c1

    Geometry (in Angstrom), charge = -1, multiplicity = 1:

       Center              X                  Y                   Z               Mass
    ------------   -----------------  -----------------  -----------------  -----------------
         S            1.108542294900    -0.023741058060     0.018580038654    31.972071174400
         O            1.100156294900    -0.286035058060     1.485758038654    15.994914619570
         O            2.070763294900    -0.854035058060    -0.754499961346    15.994914619570
         O            1.130608294900     1.423980941940    -0.341310961346    15.994914619570
         C           -1.705479705100    -0.083936058060     0.232584038654    12.000000000000
         C           -0.507024705100    -0.636933058060    -0.535192961346    12.000000000000
         C           -1.978941705100     1.383164941940    -0.093631961346    12.000000000000
         C           -2.947261705100    -0.933846058060    -0.040417961346    12.000000000000
         H           -1.453641705100    -0.163364058060     1.297165038654     1.007825032230
         H           -0.589795705100    -0.418795058060    -1.607075961346     1.007825032230
         H           -0.452535705100    -1.724723058060    -0.414701961346     1.007825032230
         H           -2.266164705100     1.486451941940    -1.148086961346     1.007825032230
         H           -1.082303705100     1.981659941940     0.071602038654     1.007825032230
         H           -2.803074705100     1.770065941940     0.518814038654     1.007825032230
         H           -3.190674005100    -0.910395958060    -1.058416961346     1.007825032230
         H           -2.784204705100    -1.979623058060     0.242497038654     1.007825032230
         H           -3.813811705100    -0.560688058060     0.519252038654     1.007825032230

  Basis Set: AUG-CC-PVTZ
    Blend: AUG-CC-PVTZ
  Basis Set: (AUG-CC-PVTZ AUX)
    Blend: AUG-CC-PVTZ-JKFIT
	 Reference Energy          =    -779.0134649164269831 [Eh]
	 Singles Energy            =      -0.0000000000000000 [Eh]
	 Same-Spin Energy          =      -0.4486677809343771 [Eh]
	 Opposite-Spin Energy      =      -1.3744867641595773 [Eh]
	 Correlation Energy        =      -1.8231545450939544 [Eh]
	 Total Energy              =    -780.8366194615209679 [Eh]

	 ================> DF-SCS-MP2 Energies <==================
	-----------------------------------------------------------
	 SCS Same-Spin Scale       =       0.3333333333333333 [-]
	 SCS Opposite-Spin Scale   =       1.2000000000000000 [-]
	 SCS Same-Spin Energy      =      -0.1495559269781257 [Eh]
	 SCS Opposite-Spin Energy  =      -1.6493841169914927 [Eh]
	 SCS Correlation Energy    =      -1.7989400439696184 [Eh]
	 SCS Total Energy          =    -780.8124049603966341 [Eh]
	-----------------------------------------------------------

  Dipole Moment: [D]
     X:    -6.8672      Y:    -0.8371      Z:    -0.8231     Total:     6.9669

*** Psi4 exiting successfully. Buy a developer a beer!
