                               Psi4 1.4a3.dev225

  ==> Input File <==

--------------------------------------------------------------------------
#psi4
#
memory 32 gb

molecule  {
-1 1
  S        1.2336270    -0.0202320     0.0299590
  O        1.2252410    -0.2825260     1.4971370
  O        2.1958480    -0.8505260    -0.7431210
  O        1.2556930     1.4274900    -0.3299320
  C       -1.5803950    -0.0804270     0.2439630
  C       -0.3819400    -0.6334240    -0.5238140
  C       -1.8538570     1.3866740    -0.0822530
  C       -2.8221770    -0.9303370    -0.0290390
  H       -1.3285570    -0.1598550     1.3085440
  H       -0.4647110    -0.4152860    -1.5956970
  H       -0.3274510    -1.7212140    -0.4033230
  H       -2.1410800     1.4899610    -1.1367080
  H       -0.9572190     1.9851690     0.0829810
  H       -2.6779900     1.7735750     0.5301930
  H       -3.0772140    -0.9057670    -1.0956550
  H       -2.6888866    -1.7852042     0.2022290
  H       -3.6887270    -0.5571790     0.5306310
units angstrom
no_reorient  #important for SAPT in psi4, default
symmetry c1  #important for SAPT in psi4, default
}

set PROPERTIES_ORIGIN ["COM"]
properties('MP2/aug-cc-pvtz', properties = ['dipole'])
--------------------------------------------------------------------------

    Molecular point group: c1
  Charge       = -1
  Multiplicity = 1
  Basis Set: AUG-CC-PVTZ
    Blend: AUG-CC-PVTZ
  Basis Set: (AUG-CC-PVTZ AUX)
    Blend: AUG-CC-PVTZ-JKFIT

    Orbital Energies [Eh]
    ---------------------

    Doubly Occupied:

       1A    -91.999722     2A    -20.341463     3A    -20.340908
       4A    -20.340540     5A    -11.102488     6A    -11.098224
       7A    -11.082766     8A    -11.082424     9A     -8.961309
      10A     -6.646655    11A     -6.646187    12A     -6.646161
      13A     -1.258029    14A     -1.115170    15A     -1.114500
      16A     -0.970560    17A     -0.841986    18A     -0.816013
      19A     -0.667977    20A     -0.608074    21A     -0.529169
      22A     -0.500719    23A     -0.487974    24A     -0.464645
      25A     -0.447344    26A     -0.435158    27A     -0.422089
      28A     -0.406487    29A     -0.368090    30A     -0.352071
      31A     -0.340374    32A     -0.320174    33A     -0.320156
      34A     -0.277759    35A     -0.275609    36A     -0.248459
      37A     -0.239949

  @DF-RHF Final Energy:  -778.98086159200489

   => Energetics <=

    Nuclear Repulsion Energy =            517.8185227028527606
    One-Electron Energy =               -2113.3640049853961500
    Two-Electron Energy =                 816.5646206905385043
    Total Energy =                       -778.9808615920048851
  Basis Set: (AUG-CC-PVTZ AUX)
    Blend: AUG-CC-PVTZ-RI
    Molecular point group: c1

    Geometry (in Angstrom), charge = -1, multiplicity = 1:

       Center              X                  Y                   Z               Mass
    ------------   -----------------  -----------------  -----------------  -----------------
         S            1.108846724794    -0.025153422040     0.019317472823    31.972071174400
         O            1.100460724794    -0.287447422040     1.486495472823    15.994914619570
         O            2.071067724794    -0.855447422040    -0.753762527177    15.994914619570
         O            1.130912724794     1.422568577960    -0.340573527177    15.994914619570
         C           -1.705175275206    -0.085348422040     0.233321472823    12.000000000000
         C           -0.506720275206    -0.638345422040    -0.534455527177    12.000000000000
         C           -1.978637275206     1.381752577960    -0.092894527177    12.000000000000
         C           -2.946957275206    -0.935258422040    -0.039680527177    12.000000000000
         H           -1.453337275206    -0.164776422040     1.297902472823     1.007825032230
         H           -0.589491275206    -0.420207422040    -1.606338527177     1.007825032230
         H           -0.452231275206    -1.726135422040    -0.413964527177     1.007825032230
         H           -2.265860275206     1.485039577960    -1.147349527177     1.007825032230
         H           -1.081999275206     1.980247577960     0.072339472823     1.007825032230
         H           -2.802770275206     1.768653577960     0.519551472823     1.007825032230
         H           -3.201994275206    -0.910688422040    -1.106296527177     1.007825032230
         H           -2.813666875206    -1.790125622040     0.191587472823     1.007825032230
         H           -3.813507275206    -0.562100422040     0.519989472823     1.007825032230

  Basis Set: AUG-CC-PVTZ
    Blend: AUG-CC-PVTZ
  Basis Set: (AUG-CC-PVTZ AUX)
    Blend: AUG-CC-PVTZ-JKFIT
	 Reference Energy          =    -778.9808615920048851 [Eh]
	 Singles Energy            =      -0.0000000000000000 [Eh]
	 Same-Spin Energy          =      -0.4487666859008159 [Eh]
	 Opposite-Spin Energy      =      -1.3741275208571351 [Eh]
	 Correlation Energy        =      -1.8228942067579510 [Eh]
	 Total Energy              =    -780.8037557987628361 [Eh]

	 ================> DF-SCS-MP2 Energies <==================
	-----------------------------------------------------------
	 SCS Same-Spin Scale       =       0.3333333333333333 [-]
	 SCS Opposite-Spin Scale   =       1.2000000000000000 [-]
	 SCS Same-Spin Energy      =      -0.1495888953002720 [Eh]
	 SCS Opposite-Spin Energy  =      -1.6489530250285620 [Eh]
	 SCS Correlation Energy    =      -1.7985419203288340 [Eh]
	 SCS Total Energy          =    -780.7794035123337153 [Eh]
	-----------------------------------------------------------

  Dipole Moment: [D]
     X:    -6.8744      Y:    -0.9630      Z:    -0.7697     Total:     6.9841

*** Psi4 exiting successfully. Buy a developer a beer!
