                               Psi4 1.4a3.dev225

  ==> Input File <==

--------------------------------------------------------------------------
#psi4
#
memory 32 gb

molecule  {
-1 1
  S        1.2336270    -0.0202320     0.0299590
  O        1.2252410    -0.2825260     1.4971370
  O        2.1958480    -0.8505260    -0.7431210
  O        1.2556930     1.4274900    -0.3299320
  C       -1.5803950    -0.0804270     0.2439630
  C       -0.3819400    -0.6334240    -0.5238140
  C       -1.8538570     1.3866740    -0.0822530
  C       -2.8221770    -0.9303370    -0.0290390
  H       -1.3285570    -0.1598550     1.3085440
  H       -0.4647110    -0.4152860    -1.5956970
  H       -0.3274510    -1.7212140    -0.4033230
  H       -2.1410800     1.4899610    -1.1367080
  H       -0.9572190     1.9851690     0.0829810
  H       -2.6779900     1.7735750     0.5301930
  H       -3.0818639    -0.9053190    -1.1151018
  H       -2.6591200    -1.9761140     0.2538760
  H       -3.6887270    -0.5571790     0.5306310
units angstrom
no_reorient  #important for SAPT in psi4, default
symmetry c1  #important for SAPT in psi4, default
}

set PROPERTIES_ORIGIN ["COM"]
properties('MP2/aug-cc-pvtz', properties = ['dipole'])
--------------------------------------------------------------------------

    Molecular point group: c1
  Charge       = -1
  Multiplicity = 1
  Basis Set: AUG-CC-PVTZ
    Blend: AUG-CC-PVTZ
  Basis Set: (AUG-CC-PVTZ AUX)
    Blend: AUG-CC-PVTZ-JKFIT

    Orbital Energies [Eh]
    ---------------------

    Doubly Occupied:

       1A    -91.999937     2A    -20.341700     3A    -20.341207
       4A    -20.340748     5A    -11.110926     6A    -11.104646
       7A    -11.098373     8A    -11.084821     9A     -8.961528
      10A     -6.646873    11A     -6.646409    12A     -6.646381
      13A     -1.258279    14A     -1.115387    15A     -1.114789
      16A     -0.966193    17A     -0.826105    18A     -0.810212
      19A     -0.663807    20A     -0.608186    21A     -0.520650
      22A     -0.491473    23A     -0.483055    24A     -0.460033
      25A     -0.446806    26A     -0.436360    27A     -0.418561
      28A     -0.402658    29A     -0.368588    30A     -0.350240
      31A     -0.340665    32A     -0.320505    33A     -0.320468
      34A     -0.278005    35A     -0.275951    36A     -0.248922
      37A     -0.240225

  @DF-RHF Final Energy:  -779.01402401554935

   => Energetics <=

    Nuclear Repulsion Energy =            516.7544109848671496
    One-Electron Energy =               -2111.3575219753083729
    Two-Electron Energy =                 815.5890869748917567
    Total Energy =                       -779.0140240155493530
  Basis Set: (AUG-CC-PVTZ AUX)
    Blend: AUG-CC-PVTZ-RI
    Molecular point group: c1

    Geometry (in Angstrom), charge = -1, multiplicity = 1:

       Center              X                  Y                   Z               Mass
    ------------   -----------------  -----------------  -----------------  -----------------
         S            1.108661993358    -0.023752589846     0.019080642777    31.972071174400
         O            1.100275993358    -0.286046589846     1.486258642777    15.994914619570
         O            2.070882993358    -0.854046589846    -0.753999357223    15.994914619570
         O            1.130727993358     1.423969410154    -0.340810357223    15.994914619570
         C           -1.705360006642    -0.083947589846     0.233084642777    12.000000000000
         C           -0.506905006642    -0.636944589846    -0.534692357223    12.000000000000
         C           -1.978822006642     1.383153410154    -0.093131357223    12.000000000000
         C           -2.947142006642    -0.933857589846    -0.039917357223    12.000000000000
         H           -1.453522006642    -0.163375589846     1.297665642777     1.007825032230
         H           -0.589676006642    -0.418806589846    -1.606575357223     1.007825032230
         H           -0.452416006642    -1.724734589846    -0.414201357223     1.007825032230
         H           -2.266045006642     1.486440410154    -1.147586357223     1.007825032230
         H           -1.082184006642     1.981648410154     0.072102642777     1.007825032230
         H           -2.802955006642     1.770054410154     0.519314642777     1.007825032230
         H           -3.206828906642    -0.908839589846    -1.125980157223     1.007825032230
         H           -2.784085006642    -1.979634589846     0.242997642777     1.007825032230
         H           -3.813692006642    -0.560699589846     0.519752642777     1.007825032230

  Basis Set: AUG-CC-PVTZ
    Blend: AUG-CC-PVTZ
  Basis Set: (AUG-CC-PVTZ AUX)
    Blend: AUG-CC-PVTZ-JKFIT
	 Reference Energy          =    -779.0140240155493530 [Eh]
	 Singles Energy            =      -0.0000000000000000 [Eh]
	 Same-Spin Energy          =      -0.4486431709193254 [Eh]
	 Opposite-Spin Energy      =      -1.3748558024776929 [Eh]
	 Correlation Energy        =      -1.8234989733970184 [Eh]
	 Total Energy              =    -780.8375229889463753 [Eh]

	 ================> DF-SCS-MP2 Energies <==================
	-----------------------------------------------------------
	 SCS Same-Spin Scale       =       0.3333333333333333 [-]
	 SCS Opposite-Spin Scale   =       1.2000000000000000 [-]
	 SCS Same-Spin Energy      =      -0.1495477236397751 [Eh]
	 SCS Opposite-Spin Energy  =      -1.6498269629732314 [Eh]
	 SCS Correlation Energy    =      -1.7993746866130065 [Eh]
	 SCS Total Energy          =    -780.8133987021623170 [Eh]
	-----------------------------------------------------------

  Dipole Moment: [D]
     X:    -6.8388      Y:    -0.8288      Z:    -0.7755     Total:     6.9323

*** Psi4 exiting successfully. Buy a developer a beer!
