                               Psi4 1.4a3.dev225

  ==> Input File <==

--------------------------------------------------------------------------
#psi4
#
memory 32 gb

molecule  {
-1 1
  S        1.2336270    -0.0202320     0.0299590
  O        1.2252410    -0.2825260     1.4971370
  O        2.1958480    -0.8505260    -0.7431210
  O        1.2556930     1.4274900    -0.3299320
  C       -1.5803950    -0.0804270     0.2439630
  C       -0.3819400    -0.6334240    -0.5238140
  C       -1.8538570     1.3866740    -0.0822530
  C       -2.8221770    -0.9303370    -0.0290390
  H       -1.3285570    -0.1598550     1.3085440
  H       -0.4647110    -0.4152860    -1.5956970
  H       -0.3274510    -1.7212140    -0.4033230
  H       -2.1410800     1.4899610    -1.1367080
  H       -0.9572190     1.9851690     0.0829810
  H       -2.6779900     1.7735750     0.5301930
  H       -3.0772140    -0.9057670    -1.0956550
  H       -2.6891342    -1.9737170     0.2774505
  H       -3.6887270    -0.5571790     0.5306310
units angstrom
no_reorient  #important for SAPT in psi4, default
symmetry c1  #important for SAPT in psi4, default
}

set PROPERTIES_ORIGIN ["COM"]
properties('MP2/aug-cc-pvtz', properties = ['dipole'])
--------------------------------------------------------------------------

    Molecular point group: c1
  Charge       = -1
  Multiplicity = 1
  Basis Set: AUG-CC-PVTZ
    Blend: AUG-CC-PVTZ
  Basis Set: (AUG-CC-PVTZ AUX)
    Blend: AUG-CC-PVTZ-JKFIT

    Orbital Energies [Eh]
    ---------------------

    Doubly Occupied:

       1A    -91.999839     2A    -20.341608     3A    -20.341137
       4A    -20.340664     5A    -11.108375     6A    -11.104568
       7A    -11.098248     8A    -11.084899     9A     -8.961432
      10A     -6.646776    11A     -6.646313    12A     -6.646285
      13A     -1.258194    14A     -1.115297    15A     -1.114716
      16A     -0.966283    17A     -0.826856    18A     -0.810840
      19A     -0.664604    20A     -0.608139    21A     -0.521602
      22A     -0.490881    23A     -0.482298    24A     -0.460816
      25A     -0.446481    26A     -0.436295    27A     -0.421547
      28A     -0.401340    29A     -0.368968    30A     -0.350132
      31A     -0.341118    32A     -0.320438    33A     -0.320420
      34A     -0.277910    35A     -0.275863    36A     -0.248799
      37A     -0.240146

  @DF-RHF Final Energy:  -779.01439223645502

   => Energetics <=

    Nuclear Repulsion Energy =            516.7879121913654217
    One-Electron Energy =               -2111.4243562885894789
    Two-Electron Energy =                 815.6220518607690337
    Total Energy =                       -779.0143922364550235
  Basis Set: (AUG-CC-PVTZ AUX)
    Blend: AUG-CC-PVTZ-RI
    Molecular point group: c1

    Geometry (in Angstrom), charge = -1, multiplicity = 1:

       Center              X                  Y                   Z               Mass
    ------------   -----------------  -----------------  -----------------  -----------------
         S            1.108848545874    -0.023766924594     0.018764224356    31.972071174400
         O            1.100462545874    -0.286060924594     1.485942224356    15.994914619570
         O            2.071069545874    -0.854060924594    -0.754315775644    15.994914619570
         O            1.130914545874     1.423955075406    -0.341126775644    15.994914619570
         C           -1.705173454126    -0.083961924594     0.232768224356    12.000000000000
         C           -0.506718454126    -0.636958924594    -0.535008775644    12.000000000000
         C           -1.978635454126     1.383139075406    -0.093447775644    12.000000000000
         C           -2.946955454126    -0.933871924594    -0.040233775644    12.000000000000
         H           -1.453335454126    -0.163389924594     1.297349224356     1.007825032230
         H           -0.589489454126    -0.418820924594    -1.606891775644     1.007825032230
         H           -0.452229454126    -1.724748924594    -0.414517775644     1.007825032230
         H           -2.265858454126     1.486426075406    -1.147902775644     1.007825032230
         H           -1.081997454126     1.981634075406     0.071786224356     1.007825032230
         H           -2.802768454126     1.770040075406     0.518998224356     1.007825032230
         H           -3.201992454126    -0.909301924594    -1.106849775644     1.007825032230
         H           -2.813912654126    -1.977251924594     0.266255724356     1.007825032230
         H           -3.813505454126    -0.560713924594     0.519436224356     1.007825032230

  Basis Set: AUG-CC-PVTZ
    Blend: AUG-CC-PVTZ
  Basis Set: (AUG-CC-PVTZ AUX)
    Blend: AUG-CC-PVTZ-JKFIT
	 Reference Energy          =    -779.0143922364550235 [Eh]
	 Singles Energy            =      -0.0000000000000000 [Eh]
	 Same-Spin Energy          =      -0.4486324223256033 [Eh]
	 Opposite-Spin Energy      =      -1.3747055398282799 [Eh]
	 Correlation Energy        =      -1.8233379621538832 [Eh]
	 Total Energy              =    -780.8377301986089378 [Eh]

	 ================> DF-SCS-MP2 Energies <==================
	-----------------------------------------------------------
	 SCS Same-Spin Scale       =       0.3333333333333333 [-]
	 SCS Opposite-Spin Scale   =       1.2000000000000000 [-]
	 SCS Same-Spin Energy      =      -0.1495441407752011 [Eh]
	 SCS Opposite-Spin Energy  =      -1.6496466477939358 [Eh]
	 SCS Correlation Energy    =      -1.7991907885691369 [Eh]
	 SCS Total Energy          =    -780.8135830250241725 [Eh]
	-----------------------------------------------------------

  Dipole Moment: [D]
     X:    -6.8552      Y:    -0.8332      Z:    -0.7817     Total:     6.9497

*** Psi4 exiting successfully. Buy a developer a beer!
