                               Psi4 1.4a3.dev225

  ==> Input File <==

--------------------------------------------------------------------------
#psi4
#
memory 32 gb

molecule  {
-1 1
  S        1.2336270    -0.0202320     0.0299590
  O        1.2252410    -0.2825260     1.4971370
  O        2.1958480    -0.8505260    -0.7431210
  O        1.2556930     1.4274900    -0.3299320
  C       -1.5803950    -0.0804270     0.2439630
  C       -0.3819400    -0.6334240    -0.5238140
  C       -1.8538570     1.3866740    -0.0822530
  C       -2.8627755    -0.9581237    -0.0379644
  H       -1.3285570    -0.1598550     1.3085440
  H       -0.4647110    -0.4152860    -1.5956970
  H       -0.3274510    -1.7212140    -0.4033230
  H       -2.1410800     1.4899610    -1.1367080
  H       -0.9572190     1.9851690     0.0829810
  H       -2.6779900     1.7735750     0.5301930
  H       -3.0772140    -0.9057670    -1.0956550
  H       -2.6591200    -1.9761140     0.2538760
  H       -3.6887270    -0.5571790     0.5306310
units angstrom
no_reorient  #important for SAPT in psi4, default
symmetry c1  #important for SAPT in psi4, default
}

set PROPERTIES_ORIGIN ["COM"]
properties('MP2/aug-cc-pvtz', properties = ['dipole'])
--------------------------------------------------------------------------

    Molecular point group: c1
  Charge       = -1
  Multiplicity = 1
  Basis Set: AUG-CC-PVTZ
    Blend: AUG-CC-PVTZ
  Basis Set: (AUG-CC-PVTZ AUX)
    Blend: AUG-CC-PVTZ-JKFIT

    Orbital Energies [Eh]
    ---------------------

    Doubly Occupied:

       1A    -91.999873     2A    -20.341614     3A    -20.341149
       4A    -20.340705     5A    -11.106961     6A    -11.105602
       7A    -11.098206     8A    -11.084745     9A     -8.961465
      10A     -6.646810    11A     -6.646343    12A     -6.646315
      13A     -1.258204    14A     -1.115308    15A     -1.114726
      16A     -0.960407    17A     -0.827018    18A     -0.811609
      19A     -0.663705    20A     -0.607455    21A     -0.519472
      22A     -0.491717    23A     -0.482741    24A     -0.461582
      25A     -0.447704    26A     -0.437819    27A     -0.423759
      28A     -0.405676    29A     -0.362563    30A     -0.347929
      31A     -0.342287    32A     -0.320558    33A     -0.320206
      34A     -0.277853    35A     -0.275867    36A     -0.247871
      37A     -0.240074

  @DF-RHF Final Energy:  -779.01289531658665

   => Energetics <=

    Nuclear Repulsion Energy =            515.9569638366285744
    One-Electron Energy =               -2109.7719239546936478
    Two-Electron Energy =                 814.8020648014784229
    Total Energy =                       -779.0128953165866506
  Basis Set: (AUG-CC-PVTZ AUX)
    Blend: AUG-CC-PVTZ-RI
    Molecular point group: c1

    Geometry (in Angstrom), charge = -1, multiplicity = 1:

       Center              X                  Y                   Z               Mass
    ------------   -----------------  -----------------  -----------------  -----------------
         S            1.112183159757    -0.021315907148     0.019719244474    31.972071174400
         O            1.103797159757    -0.283609907148     1.486897244474    15.994914619570
         O            2.074404159757    -0.851609907148    -0.753360755526    15.994914619570
         O            1.134249159757     1.426406092852    -0.340171755526    15.994914619570
         C           -1.701838840243    -0.081510907148     0.233723244474    12.000000000000
         C           -0.503383840243    -0.634507907148    -0.534053755526    12.000000000000
         C           -1.975300840243     1.385590092852    -0.092492755526    12.000000000000
         C           -2.984219340243    -0.959207607148    -0.048204155526    12.000000000000
         H           -1.450000840243    -0.160938907148     1.298304244474     1.007825032230
         H           -0.586154840243    -0.416369907148    -1.605936755526     1.007825032230
         H           -0.448894840243    -1.722297907148    -0.413562755526     1.007825032230
         H           -2.262523840243     1.488877092852    -1.146947755526     1.007825032230
         H           -1.078662840243     1.984085092852     0.072741244474     1.007825032230
         H           -2.799433840243     1.772491092852     0.519953244474     1.007825032230
         H           -3.198657840243    -0.906850907148    -1.105894755526     1.007825032230
         H           -2.780563840243    -1.977197907148     0.243636244474     1.007825032230
         H           -3.810170840243    -0.558262907148     0.520391244474     1.007825032230

  Basis Set: AUG-CC-PVTZ
    Blend: AUG-CC-PVTZ
  Basis Set: (AUG-CC-PVTZ AUX)
    Blend: AUG-CC-PVTZ-JKFIT
	 Reference Energy          =    -779.0128953165866506 [Eh]
	 Singles Energy            =      -0.0000000000000000 [Eh]
	 Same-Spin Energy          =      -0.4484236462375867 [Eh]
	 Opposite-Spin Energy      =      -1.3746082297789082 [Eh]
	 Correlation Energy        =      -1.8230318760164947 [Eh]
	 Total Energy              =    -780.8359271926030942 [Eh]

	 ================> DF-SCS-MP2 Energies <==================
	-----------------------------------------------------------
	 SCS Same-Spin Scale       =       0.3333333333333333 [-]
	 SCS Opposite-Spin Scale   =       1.2000000000000000 [-]
	 SCS Same-Spin Energy      =      -0.1494745487458622 [Eh]
	 SCS Opposite-Spin Energy  =      -1.6495298757346897 [Eh]
	 SCS Correlation Energy    =      -1.7990044244805519 [Eh]
	 SCS Total Energy          =    -780.8118997410672364 [Eh]
	-----------------------------------------------------------

  Dipole Moment: [D]
     X:    -6.8486      Y:    -0.8296      Z:    -0.7920     Total:     6.9440

*** Psi4 exiting successfully. Buy a developer a beer!
