                               Psi4 1.4a3.dev225

  ==> Input File <==

--------------------------------------------------------------------------
#psi4
#
memory 32 gb

molecule  {
-1 1
  S        1.2336270    -0.0202320     0.0299590
  O        1.2252410    -0.2825260     1.4971370
  O        2.1958480    -0.8505260    -0.7431210
  O        1.2556930     1.4274900    -0.3299320
  C       -1.5803950    -0.0804270     0.2439630
  C       -0.3819400    -0.6334240    -0.5238140
  C       -1.8538570     1.3866740    -0.0822530
  C       -2.8221770    -0.9303370    -0.0290390
  H       -1.3285570    -0.1598550     1.3085440
  H       -0.4571657    -0.4351713    -1.4979850
  H       -0.3274510    -1.7212140    -0.4033230
  H       -2.1410800     1.4899610    -1.1367080
  H       -0.9572190     1.9851690     0.0829810
  H       -2.6779900     1.7735750     0.5301930
  H       -3.0772140    -0.9057670    -1.0956550
  H       -2.6591200    -1.9761140     0.2538760
  H       -3.6887270    -0.5571790     0.5306310
units angstrom
no_reorient  #important for SAPT in psi4, default
symmetry c1  #important for SAPT in psi4, default
}

set PROPERTIES_ORIGIN ["COM"]
properties('MP2/aug-cc-pvtz', properties = ['dipole'])
--------------------------------------------------------------------------

    Molecular point group: c1
  Charge       = -1
  Multiplicity = 1
  Basis Set: AUG-CC-PVTZ
    Blend: AUG-CC-PVTZ
  Basis Set: (AUG-CC-PVTZ AUX)
    Blend: AUG-CC-PVTZ-JKFIT

    Orbital Energies [Eh]
    ---------------------

    Doubly Occupied:

       1A    -91.999167     2A    -20.341166     3A    -20.340636
       4A    -20.340607     5A    -11.108280     6A    -11.103409
       7A    -11.086082     8A    -11.084756     9A     -8.960811
      10A     -6.646136    11A     -6.645700    12A     -6.645659
      13A     -1.257906    14A     -1.114929    15A     -1.114500
      16A     -0.968024    17A     -0.833735    18A     -0.811203
      19A     -0.664873    20A     -0.614213    21A     -0.522618
      22A     -0.491970    23A     -0.484618    24A     -0.463483
      25A     -0.447185    26A     -0.440513    27A     -0.420849
      28A     -0.406103    29A     -0.367984    30A     -0.349664
      31A     -0.342918    32A     -0.320267    33A     -0.320099
      34A     -0.278061    35A     -0.275882    36A     -0.248211
      37A     -0.239834

  @DF-RHF Final Energy:  -779.00883451634365

   => Energetics <=

    Nuclear Repulsion Energy =            517.4174301589915785
    One-Electron Energy =               -2112.6484295943528195
    Two-Electron Energy =                 816.2221649190177004
    Total Energy =                       -779.0088345163436543
  Basis Set: (AUG-CC-PVTZ AUX)
    Blend: AUG-CC-PVTZ-RI
    Molecular point group: c1

    Geometry (in Angstrom), charge = -1, multiplicity = 1:

       Center              X                  Y                   Z               Mass
    ------------   -----------------  -----------------  -----------------  -----------------
         S            1.108572298580    -0.023603039956     0.018218948627    31.972071174400
         O            1.100186298580    -0.285897039956     1.485396948627    15.994914619570
         O            2.070793298580    -0.853897039956    -0.754861051373    15.994914619570
         O            1.130638298580     1.424118960044    -0.341672051373    15.994914619570
         C           -1.705449701420    -0.083798039956     0.232222948627    12.000000000000
         C           -0.506994701420    -0.636795039956    -0.535554051373    12.000000000000
         C           -1.978911701420     1.383302960044    -0.093993051373    12.000000000000
         C           -2.947231701420    -0.933708039956    -0.040779051373    12.000000000000
         H           -1.453611701420    -0.163226039956     1.296803948627     1.007825032230
         H           -0.582220401420    -0.438542339956    -1.509725051373     1.007825032230
         H           -0.452505701420    -1.724585039956    -0.415063051373     1.007825032230
         H           -2.266134701420     1.486589960044    -1.148448051373     1.007825032230
         H           -1.082273701420     1.981797960044     0.071240948627     1.007825032230
         H           -2.803044701420     1.770203960044     0.518452948627     1.007825032230
         H           -3.202268701420    -0.909138039956    -1.107395051373     1.007825032230
         H           -2.784174701420    -1.979485039956     0.242135948627     1.007825032230
         H           -3.813781701420    -0.560550039956     0.518890948627     1.007825032230

  Basis Set: AUG-CC-PVTZ
    Blend: AUG-CC-PVTZ
  Basis Set: (AUG-CC-PVTZ AUX)
    Blend: AUG-CC-PVTZ-JKFIT
	 Reference Energy          =    -779.0088345163436543 [Eh]
	 Singles Energy            =      -0.0000000000000000 [Eh]
	 Same-Spin Energy          =      -0.4485312975872519 [Eh]
	 Opposite-Spin Energy      =      -1.3741763308916854 [Eh]
	 Correlation Energy        =      -1.8227076284789372 [Eh]
	 Total Energy              =    -780.8315421448226061 [Eh]

	 ================> DF-SCS-MP2 Energies <==================
	-----------------------------------------------------------
	 SCS Same-Spin Scale       =       0.3333333333333333 [-]
	 SCS Opposite-Spin Scale   =       1.2000000000000000 [-]
	 SCS Same-Spin Energy      =      -0.1495104325290839 [Eh]
	 SCS Opposite-Spin Energy  =      -1.6490115970700225 [Eh]
	 SCS Correlation Energy    =      -1.7985220295991065 [Eh]
	 SCS Total Energy          =    -780.8073565459427527 [Eh]
	-----------------------------------------------------------

  Dipole Moment: [D]
     X:    -6.8628      Y:    -0.8368      Z:    -0.8428     Total:     6.9648

*** Psi4 exiting successfully. Buy a developer a beer!
