                               Psi4 1.4a3.dev225

  ==> Input File <==

--------------------------------------------------------------------------
#psi4
#
memory 32 gb

molecule  {
-1 1
  S        1.2336270    -0.0202320     0.0299590
  O        1.2067977    -0.2644123     1.5000392
  O        2.1958480    -0.8505260    -0.7431210
  O        1.2556930     1.4274900    -0.3299320
  C       -1.5803950    -0.0804270     0.2439630
  C       -0.3819400    -0.6334240    -0.5238140
  C       -1.8538570     1.3866740    -0.0822530
  C       -2.8221770    -0.9303370    -0.0290390
  H       -1.3285570    -0.1598550     1.3085440
  H       -0.4647110    -0.4152860    -1.5956970
  H       -0.3274510    -1.7212140    -0.4033230
  H       -2.1410800     1.4899610    -1.1367080
  H       -0.9572190     1.9851690     0.0829810
  H       -2.6779900     1.7735750     0.5301930
  H       -3.0772140    -0.9057670    -1.0956550
  H       -2.6591200    -1.9761140     0.2538760
  H       -3.6887270    -0.5571790     0.5306310
units angstrom
no_reorient  #important for SAPT in psi4, default
symmetry c1  #important for SAPT in psi4, default
}

set PROPERTIES_ORIGIN ["COM"]
properties('MP2/aug-cc-pvtz', properties = ['dipole'])
--------------------------------------------------------------------------

    Molecular point group: c1
  Charge       = -1
  Multiplicity = 1
  Basis Set: AUG-CC-PVTZ
    Blend: AUG-CC-PVTZ
  Basis Set: (AUG-CC-PVTZ AUX)
    Blend: AUG-CC-PVTZ-JKFIT

    Orbital Energies [Eh]
    ---------------------

    Doubly Occupied:

       1A    -92.000048     2A    -20.342470     3A    -20.341784
       4A    -20.340112     5A    -11.107991     6A    -11.103770
       7A    -11.097815     8A    -11.084300     9A     -8.961628
      10A     -6.646977    11A     -6.646525    12A     -6.646463
      13A     -1.258421    14A     -1.117032    15A     -1.113739
      16A     -0.965892    17A     -0.826304    18A     -0.810405
      19A     -0.664015    20A     -0.607958    21A     -0.520655
      22A     -0.491414    23A     -0.482837    24A     -0.460200
      25A     -0.447313    26A     -0.436010    27A     -0.420455
      28A     -0.402240    29A     -0.368113    30A     -0.349681
      31A     -0.340293    32A     -0.321105    33A     -0.320209
      34A     -0.278913    35A     -0.275493    36A     -0.248594
      37A     -0.240492

  @DF-RHF Final Energy:  -779.01427535386176

   => Energetics <=

    Nuclear Repulsion Energy =            516.9799623139554114
    One-Electron Energy =               -2111.8131433560374717
    Two-Electron Energy =                 815.8189056882202976
    Total Energy =                       -779.0142753538617626
  Basis Set: (AUG-CC-PVTZ AUX)
    Blend: AUG-CC-PVTZ-RI
    Molecular point group: c1

    Geometry (in Angstrom), charge = -1, multiplicity = 1:

       Center              X                  Y                   Z               Mass
    ------------   -----------------  -----------------  -----------------  -----------------
         S            1.110780643069    -0.025863670670     0.018598845049    31.972071174400
         O            1.083951343069    -0.270043970670     1.488679045049    15.994914619570
         O            2.073001643069    -0.856157670670    -0.754481154951    15.994914619570
         O            1.132846643069     1.421858329330    -0.341292154951    15.994914619570
         C           -1.703241356931    -0.086058670670     0.232602845049    12.000000000000
         C           -0.504786356931    -0.639055670670    -0.535174154951    12.000000000000
         C           -1.976703356931     1.381042329330    -0.093613154951    12.000000000000
         C           -2.945023356931    -0.935968670670    -0.040399154951    12.000000000000
         H           -1.451403356931    -0.165486670670     1.297183845049     1.007825032230
         H           -0.587557356931    -0.420917670670    -1.607057154951     1.007825032230
         H           -0.450297356931    -1.726845670670    -0.414683154951     1.007825032230
         H           -2.263926356931     1.484329329330    -1.148068154951     1.007825032230
         H           -1.080065356931     1.979537329330     0.071620845049     1.007825032230
         H           -2.800836356931     1.767943329330     0.518832845049     1.007825032230
         H           -3.200060356931    -0.911398670670    -1.107015154951     1.007825032230
         H           -2.781966356931    -1.981745670670     0.242515845049     1.007825032230
         H           -3.811573356931    -0.562810670670     0.519270845049     1.007825032230

  Basis Set: AUG-CC-PVTZ
    Blend: AUG-CC-PVTZ
  Basis Set: (AUG-CC-PVTZ AUX)
    Blend: AUG-CC-PVTZ-JKFIT
	 Reference Energy          =    -779.0142753538617626 [Eh]
	 Singles Energy            =      -0.0000000000000000 [Eh]
	 Same-Spin Energy          =      -0.4487023627952927 [Eh]
	 Opposite-Spin Energy      =      -1.3748203215827197 [Eh]
	 Correlation Energy        =      -1.8235226843780126 [Eh]
	 Total Energy              =    -780.8377980382397254 [Eh]

	 ================> DF-SCS-MP2 Energies <==================
	-----------------------------------------------------------
	 SCS Same-Spin Scale       =       0.3333333333333333 [-]
	 SCS Opposite-Spin Scale   =       1.2000000000000000 [-]
	 SCS Same-Spin Energy      =      -0.1495674542650976 [Eh]
	 SCS Opposite-Spin Energy  =      -1.6497843858992636 [Eh]
	 SCS Correlation Energy    =      -1.7993518401643611 [Eh]
	 SCS Total Energy          =    -780.8136271940261395 [Eh]
	-----------------------------------------------------------

  Dipole Moment: [D]
     X:    -6.7918      Y:    -0.8746      Z:    -0.7928     Total:     6.8936

*** Psi4 exiting successfully. Buy a developer a beer!
