                               Psi4 1.4a3.dev225

  ==> Input File <==

--------------------------------------------------------------------------
#psi4
#
memory 32 gb

molecule  {
-1 1
  S        1.2336270    -0.0202320     0.0299590
  O        1.2252410    -0.2825260     1.4971370
  O        2.1958480    -0.8505260    -0.7431210
  O        1.2556930     1.4274900    -0.3299320
  C       -1.5803950    -0.0804270     0.2439630
  C       -0.3819400    -0.6334240    -0.5238140
  C       -1.8538570     1.3866740    -0.0822530
  C       -2.8221770    -0.9303370    -0.0290390
  H       -1.3285570    -0.1598550     1.3085440
  H       -0.4647110    -0.4152860    -1.5956970
  H       -0.3274510    -1.7212140    -0.4033230
  H       -2.1410800     1.4899610    -1.1367080
  H       -0.9572190     1.9851690     0.0829810
  H       -2.6779900     1.7735750     0.5301930
  H       -3.0772140    -0.9057670    -1.0956550
  H       -2.5997240    -1.9770843     0.2057220
  H       -3.6887270    -0.5571790     0.5306310
units angstrom
no_reorient  #important for SAPT in psi4, default
symmetry c1  #important for SAPT in psi4, default
}

set PROPERTIES_ORIGIN ["COM"]
properties('MP2/aug-cc-pvtz', properties = ['dipole'])
--------------------------------------------------------------------------

    Molecular point group: c1
  Charge       = -1
  Multiplicity = 1
  Basis Set: AUG-CC-PVTZ
    Blend: AUG-CC-PVTZ
  Basis Set: (AUG-CC-PVTZ AUX)
    Blend: AUG-CC-PVTZ-JKFIT

    Orbital Energies [Eh]
    ---------------------

    Doubly Occupied:

       1A    -91.999996     2A    -20.341708     3A    -20.341221
       4A    -20.340793     5A    -11.108281     6A    -11.103898
       7A    -11.098450     8A    -11.084484     9A     -8.961581
      10A     -6.646927    11A     -6.646461    12A     -6.646433
      13A     -1.258301    14A     -1.115408    15A     -1.114803
      16A     -0.966674    17A     -0.826477    18A     -0.810890
      19A     -0.663755    20A     -0.608419    21A     -0.519463
      22A     -0.493379    23A     -0.484445    24A     -0.459636
      25A     -0.447430    26A     -0.436601    27A     -0.419293
      28A     -0.404492    29A     -0.367339    30A     -0.349664
      31A     -0.340241    32A     -0.320499    33A     -0.320470
      34A     -0.278032    35A     -0.275986    36A     -0.248960
      37A     -0.240234

  @DF-RHF Final Energy:  -779.01385324668604

   => Energetics <=

    Nuclear Repulsion Energy =            516.9488081231354499
    One-Electron Energy =               -2111.7430758424193300
    Two-Electron Energy =                 815.7804144725978404
    Total Energy =                       -779.0138532466860397
  Basis Set: (AUG-CC-PVTZ AUX)
    Blend: AUG-CC-PVTZ-RI
    Molecular point group: c1

    Geometry (in Angstrom), charge = -1, multiplicity = 1:

       Center              X                  Y                   Z               Mass
    ------------   -----------------  -----------------  -----------------  -----------------
         S            1.108190940587    -0.023742158357     0.019291782071    31.972071174400
         O            1.099804940587    -0.286036158357     1.486469782071    15.994914619570
         O            2.070411940587    -0.854036158357    -0.753788217929    15.994914619570
         O            1.130256940587     1.423979841643    -0.340599217929    15.994914619570
         C           -1.705831059413    -0.083937158357     0.233295782071    12.000000000000
         C           -0.507376059413    -0.636934158357    -0.534481217929    12.000000000000
         C           -1.979293059413     1.383163841643    -0.092920217929    12.000000000000
         C           -2.947613059413    -0.933847158357    -0.039706217929    12.000000000000
         H           -1.453993059413    -0.163365158357     1.297876782071     1.007825032230
         H           -0.590147059413    -0.418796158357    -1.606364217929     1.007825032230
         H           -0.452887059413    -1.724724158357    -0.413990217929     1.007825032230
         H           -2.266516059413     1.486450841643    -1.147375217929     1.007825032230
         H           -1.082655059413     1.981658841643     0.072313782071     1.007825032230
         H           -2.803426059413     1.770064841643     0.519525782071     1.007825032230
         H           -3.202650059413    -0.909277158357    -1.106322217929     1.007825032230
         H           -2.725160059413    -1.980594458357     0.195054782071     1.007825032230
         H           -3.814163059413    -0.560689158357     0.519963782071     1.007825032230

  Basis Set: AUG-CC-PVTZ
    Blend: AUG-CC-PVTZ
  Basis Set: (AUG-CC-PVTZ AUX)
    Blend: AUG-CC-PVTZ-JKFIT
	 Reference Energy          =    -779.0138532466860397 [Eh]
	 Singles Energy            =      -0.0000000000000000 [Eh]
	 Same-Spin Energy          =      -0.4487280389491171 [Eh]
	 Opposite-Spin Energy      =      -1.3748689714157649 [Eh]
	 Correlation Energy        =      -1.8235970103648820 [Eh]
	 Total Energy              =    -780.8374502570509321 [Eh]

	 ================> DF-SCS-MP2 Energies <==================
	-----------------------------------------------------------
	 SCS Same-Spin Scale       =       0.3333333333333333 [-]
	 SCS Opposite-Spin Scale   =       1.2000000000000000 [-]
	 SCS Same-Spin Energy      =      -0.1495760129830390 [Eh]
	 SCS Opposite-Spin Energy  =      -1.6498427656989179 [Eh]
	 SCS Correlation Energy    =      -1.7994187786819569 [Eh]
	 SCS Total Energy          =    -780.8132720253679508 [Eh]
	-----------------------------------------------------------

  Dipole Moment: [D]
     X:    -6.8319      Y:    -0.8251      Z:    -0.8059     Total:     6.9286

*** Psi4 exiting successfully. Buy a developer a beer!
