                               Psi4 1.4a3.dev225

  ==> Input File <==

--------------------------------------------------------------------------
#psi4
#
memory 32 gb

molecule  {
-1 1
  S        1.2336270    -0.0202320     0.0299590
  O        1.2252410    -0.2825260     1.4971370
  O        2.1958480    -0.8505260    -0.7431210
  O        1.2556930     1.4274900    -0.3299320
  C       -1.5803950    -0.0804270     0.2439630
  C       -0.3819400    -0.6334240    -0.5238140
  C       -1.8538570     1.3866740    -0.0822530
  C       -2.8221770    -0.9303370    -0.0290390
  H       -1.3285570    -0.1598550     1.3085440
  H       -0.4496203    -0.4550566    -1.4002729
  H       -0.3274510    -1.7212140    -0.4033230
  H       -2.1410800     1.4899610    -1.1367080
  H       -0.9572190     1.9851690     0.0829810
  H       -2.6779900     1.7735750     0.5301930
  H       -3.0772140    -0.9057670    -1.0956550
  H       -2.6591200    -1.9761140     0.2538760
  H       -3.6887270    -0.5571790     0.5306310
units angstrom
no_reorient  #important for SAPT in psi4, default
symmetry c1  #important for SAPT in psi4, default
}

set PROPERTIES_ORIGIN ["COM"]
properties('MP2/aug-cc-pvtz', properties = ['dipole'])
--------------------------------------------------------------------------

    Molecular point group: c1
  Charge       = -1
  Multiplicity = 1
  Basis Set: AUG-CC-PVTZ
    Blend: AUG-CC-PVTZ
  Basis Set: (AUG-CC-PVTZ AUX)
    Blend: AUG-CC-PVTZ-JKFIT

    Orbital Energies [Eh]
    ---------------------

    Doubly Occupied:

       1A    -91.998700     2A    -20.341269     3A    -20.340658
       4A    -20.339855     5A    -11.108252     6A    -11.102738
       7A    -11.084777     8A    -11.073831     9A     -8.960374
      10A     -6.645684    11A     -6.645271    12A     -6.645219
      13A     -1.257749    14A     -1.114883    15A     -1.114171
      16A     -0.970827    17A     -0.843768    18A     -0.811469
      19A     -0.666184    20A     -0.621691    21A     -0.525150
      22A     -0.493694    23A     -0.486265    24A     -0.467028
      25A     -0.448018    26A     -0.442768    27A     -0.420870
      28A     -0.408243    29A     -0.367691    30A     -0.349448
      31A     -0.344323    32A     -0.320182    33A     -0.319865
      34A     -0.278207    35A     -0.275917    36A     -0.247827
      37A     -0.239624

  @DF-RHF Final Energy:  -778.98163574397950

   => Energetics <=

    Nuclear Repulsion Energy =            518.0621931104743680
    One-Electron Energy =               -2113.8426730172782300
    Two-Electron Energy =                 816.7988441628244800
    Total Energy =                       -778.9816357439794956
  Basis Set: (AUG-CC-PVTZ AUX)
    Blend: AUG-CC-PVTZ-RI
    Molecular point group: c1

    Geometry (in Angstrom), charge = -1, multiplicity = 1:

       Center              X                  Y                   Z               Mass
    ------------   -----------------  -----------------  -----------------  -----------------
         S            1.108516802731    -0.023456785072     0.017500283491    31.972071174400
         O            1.100130802731    -0.285750785072     1.484678283491    15.994914619570
         O            2.070737802731    -0.853750785072    -0.755579716509    15.994914619570
         O            1.130582802731     1.424265214928    -0.342390716509    15.994914619570
         C           -1.705505197269    -0.083651785072     0.231504283491    12.000000000000
         C           -0.507050197269    -0.636648785072    -0.536272716509    12.000000000000
         C           -1.978967197269     1.383449214928    -0.094711716509    12.000000000000
         C           -2.947287197269    -0.933561785072    -0.041497716509    12.000000000000
         H           -1.453667197269    -0.163079785072     1.296085283491     1.007825032230
         H           -0.574730497269    -0.458281385072    -1.412731616509     1.007825032230
         H           -0.452561197269    -1.724438785072    -0.415781716509     1.007825032230
         H           -2.266190197269     1.486736214928    -1.149166716509     1.007825032230
         H           -1.082329197269     1.981944214928     0.070522283491     1.007825032230
         H           -2.803100197269     1.770350214928     0.517734283491     1.007825032230
         H           -3.202324197269    -0.908991785072    -1.108113716509     1.007825032230
         H           -2.784230197269    -1.979338785072     0.241417283491     1.007825032230
         H           -3.813837197269    -0.560403785072     0.518172283491     1.007825032230

  Basis Set: AUG-CC-PVTZ
    Blend: AUG-CC-PVTZ
  Basis Set: (AUG-CC-PVTZ AUX)
    Blend: AUG-CC-PVTZ-JKFIT
	 Reference Energy          =    -778.9816357439794956 [Eh]
	 Singles Energy            =      -0.0000000000000000 [Eh]
	 Same-Spin Energy          =      -0.4484872189831000 [Eh]
	 Opposite-Spin Energy      =      -1.3740207868778067 [Eh]
	 Correlation Energy        =      -1.8225080058609067 [Eh]
	 Total Energy              =    -780.8041437498403639 [Eh]

	 ================> DF-SCS-MP2 Energies <==================
	-----------------------------------------------------------
	 SCS Same-Spin Scale       =       0.3333333333333333 [-]
	 SCS Opposite-Spin Scale   =       1.2000000000000000 [-]
	 SCS Same-Spin Energy      =      -0.1494957396610333 [Eh]
	 SCS Opposite-Spin Energy  =      -1.6488249442533680 [Eh]
	 SCS Correlation Energy    =      -1.7983206839144013 [Eh]
	 SCS Total Energy          =    -780.7799564278939215 [Eh]
	-----------------------------------------------------------

  Dipole Moment: [D]
     X:    -6.8730      Y:    -0.8420      Z:    -0.8771     Total:     6.9797

*** Psi4 exiting successfully. Buy a developer a beer!
