                               Psi4 1.4a3.dev225

  ==> Input File <==

--------------------------------------------------------------------------
#psi4
#
memory 32 gb

molecule  {
-1 1
  S        1.2336270    -0.0202320     0.0299590
  O        1.2252410    -0.2825260     1.4971370
  O        2.1958480    -0.8505260    -0.7431210
  O        1.2556930     1.4274900    -0.3299320
  C       -1.5803950    -0.0804270     0.2439630
  C       -0.3034532    -0.6696397    -0.5740957
  C       -1.8538570     1.3866740    -0.0822530
  C       -2.8221770    -0.9303370    -0.0290390
  H       -1.3285570    -0.1598550     1.3085440
  H       -0.4647110    -0.4152860    -1.5956970
  H       -0.3274510    -1.7212140    -0.4033230
  H       -2.1410800     1.4899610    -1.1367080
  H       -0.9572190     1.9851690     0.0829810
  H       -2.6779900     1.7735750     0.5301930
  H       -3.0772140    -0.9057670    -1.0956550
  H       -2.6591200    -1.9761140     0.2538760
  H       -3.6887270    -0.5571790     0.5306310
units angstrom
no_reorient  #important for SAPT in psi4, default
symmetry c1  #important for SAPT in psi4, default
}

set PROPERTIES_ORIGIN ["COM"]
properties('MP2/aug-cc-pvtz', properties = ['dipole'])
--------------------------------------------------------------------------

    Molecular point group: c1
  Charge       = -1
  Multiplicity = 1
  Basis Set: AUG-CC-PVTZ
    Blend: AUG-CC-PVTZ
  Basis Set: (AUG-CC-PVTZ AUX)
    Blend: AUG-CC-PVTZ-JKFIT

    Orbital Energies [Eh]
    ---------------------

    Doubly Occupied:

       1A    -91.999542     2A    -20.343236     3A    -20.342348
       4A    -20.335662     5A    -11.108644     6A    -11.108033
       7A    -11.096284     8A    -11.084507     9A     -8.961458
      10A     -6.646900    11A     -6.646358    12A     -6.646295
      13A     -1.259068    14A     -1.116076    15A     -1.113733
      16A     -0.956050    17A     -0.831738    18A     -0.810345
      19A     -0.659634    20A     -0.612420    21A     -0.518959
      22A     -0.494744    23A     -0.479541    24A     -0.464781
      25A     -0.447667    26A     -0.438458    27A     -0.421163
      28A     -0.407054    29A     -0.362473    30A     -0.349986
      31A     -0.336264    32A     -0.319126    33A     -0.316953
      34A     -0.278376    35A     -0.274206    36A     -0.251681
      37A     -0.239657

  @DF-RHF Final Energy:  -779.00759204697670

   => Energetics <=

    Nuclear Repulsion Energy =            516.5751911011002449
    One-Electron Energy =               -2111.0067271941270519
    Two-Electron Energy =                 815.4239440460501100
    Total Energy =                       -779.0075920469766970
  Basis Set: (AUG-CC-PVTZ AUX)
    Blend: AUG-CC-PVTZ-RI
    Molecular point group: c1

    Geometry (in Angstrom), charge = -1, multiplicity = 1:

       Center              X                  Y                   Z               Mass
    ------------   -----------------  -----------------  -----------------  -----------------
         S            1.101754404156    -0.020577747351     0.023340973984    31.972071174400
         O            1.093368404156    -0.282871747351     1.490518973984    15.994914619570
         O            2.063975404156    -0.850871747351    -0.749739026016    15.994914619570
         O            1.123820404156     1.427144252649    -0.336550026016    15.994914619570
         C           -1.712267595844    -0.080772747351     0.237344973984    12.000000000000
         C           -0.435325795844    -0.669985447351    -0.580713726016    12.000000000000
         C           -1.985729595844     1.386328252649    -0.088871026016    12.000000000000
         C           -2.954049595844    -0.930682747351    -0.035657026016    12.000000000000
         H           -1.460429595844    -0.160200747351     1.301925973984     1.007825032230
         H           -0.596583595844    -0.415631747351    -1.602315026016     1.007825032230
         H           -0.459323595844    -1.721559747351    -0.409941026016     1.007825032230
         H           -2.272952595844     1.489615252649    -1.143326026016     1.007825032230
         H           -1.089091595844     1.984823252649     0.076362973984     1.007825032230
         H           -2.809862595844     1.773229252649     0.523574973984     1.007825032230
         H           -3.209086595844    -0.906112747351    -1.102273026016     1.007825032230
         H           -2.790992595844    -1.976459747351     0.247257973984     1.007825032230
         H           -3.820599595844    -0.557524747351     0.524012973984     1.007825032230

  Basis Set: AUG-CC-PVTZ
    Blend: AUG-CC-PVTZ
  Basis Set: (AUG-CC-PVTZ AUX)
    Blend: AUG-CC-PVTZ-JKFIT
	 Reference Energy          =    -779.0075920469766970 [Eh]
	 Singles Energy            =      -0.0000000000000000 [Eh]
	 Same-Spin Energy          =      -0.4481998069710380 [Eh]
	 Opposite-Spin Energy      =      -1.3744362593610708 [Eh]
	 Correlation Energy        =      -1.8226360663321088 [Eh]
	 Total Energy              =    -780.8302281133087490 [Eh]

	 ================> DF-SCS-MP2 Energies <==================
	-----------------------------------------------------------
	 SCS Same-Spin Scale       =       0.3333333333333333 [-]
	 SCS Opposite-Spin Scale   =       1.2000000000000000 [-]
	 SCS Same-Spin Energy      =      -0.1493999356570127 [Eh]
	 SCS Opposite-Spin Energy  =      -1.6493235112332849 [Eh]
	 SCS Correlation Energy    =      -1.7987234468902975 [Eh]
	 SCS Total Energy          =    -780.8063154938670323 [Eh]
	-----------------------------------------------------------

  Dipole Moment: [D]
     X:    -6.8873      Y:    -0.8507      Z:    -0.8128     Total:     6.9870

*** Psi4 exiting successfully. Buy a developer a beer!
