                               Psi4 1.4a3.dev225

  ==> Input File <==

--------------------------------------------------------------------------
#psi4
#
memory 32 gb

molecule  {
-1 1
  S        1.2336270    -0.0202320     0.0299590
  O        1.2252410    -0.2825260     1.4971370
  O        2.1958480    -0.8505260    -0.7431210
  O        1.2556930     1.4274900    -0.3299320
  C       -1.5803950    -0.0804270     0.2439630
  C       -0.3819400    -0.6334240    -0.5238140
  C       -1.8538570     1.3866740    -0.0822530
  C       -2.8221770    -0.9303370    -0.0290390
  H       -1.3285570    -0.1598550     1.3085440
  H       -0.4647110    -0.4152860    -1.5956970
  H       -0.3274510    -1.7212140    -0.4033230
  H       -2.1410800     1.4899610    -1.1367080
  H       -0.9572190     1.9851690     0.0829810
  H       -2.6779900     1.7735750     0.5301930
  H       -3.1237129    -0.9012873    -1.2901229
  H       -2.6591200    -1.9761140     0.2538760
  H       -3.6887270    -0.5571790     0.5306310
units angstrom
no_reorient  #important for SAPT in psi4, default
symmetry c1  #important for SAPT in psi4, default
}

set PROPERTIES_ORIGIN ["COM"]
properties('MP2/aug-cc-pvtz', properties = ['dipole'])
--------------------------------------------------------------------------

    Molecular point group: c1
  Charge       = -1
  Multiplicity = 1
  Basis Set: AUG-CC-PVTZ
    Blend: AUG-CC-PVTZ
  Basis Set: (AUG-CC-PVTZ AUX)
    Blend: AUG-CC-PVTZ-JKFIT

    Orbital Energies [Eh]
    ---------------------

    Doubly Occupied:

       1A    -92.000568     2A    -20.342446     3A    -20.341764
       4A    -20.341302     5A    -11.133046     6A    -11.107982
       7A    -11.099177     8A    -11.085522     9A     -8.962159
      10A     -6.647504    11A     -6.647038    12A     -6.647014
      13A     -1.258915    14A     -1.116070    15A     -1.115359
      16A     -0.965944    17A     -0.824041    18A     -0.805809
      19A     -0.661111    20A     -0.608234    21A     -0.520004
      22A     -0.492402    23A     -0.483473    24A     -0.458612
      25A     -0.447394    26A     -0.437290    27A     -0.405528
      28A     -0.394597    29A     -0.370340    30A     -0.352102
      31A     -0.337211    32A     -0.321161    33A     -0.320639
      34A     -0.278678    35A     -0.276545    36A     -0.249791
      37A     -0.240856

  @DF-RHF Final Energy:  -778.99533973559573

   => Energetics <=

    Nuclear Repulsion Energy =            516.0637765089104505
    One-Electron Energy =               -2109.9229793854256059
    Two-Electron Energy =                 814.8638631409194204
    Total Energy =                       -778.9953397355957350
  Basis Set: (AUG-CC-PVTZ AUX)
    Blend: AUG-CC-PVTZ-RI
    Molecular point group: c1

    Geometry (in Angstrom), charge = -1, multiplicity = 1:

       Center              X                  Y                   Z               Mass
    ------------   -----------------  -----------------  -----------------  -----------------
         S            1.108969789601    -0.023782242696     0.020367909786    31.972071174400
         O            1.100583789601    -0.286076242696     1.487545909786    15.994914619570
         O            2.071190789601    -0.854076242696    -0.752712090214    15.994914619570
         O            1.131035789601     1.423939757304    -0.339523090214    15.994914619570
         C           -1.705052210399    -0.083977242696     0.234371909786    12.000000000000
         C           -0.506597210399    -0.636974242696    -0.533405090214    12.000000000000
         C           -1.978514210399     1.383123757304    -0.091844090214    12.000000000000
         C           -2.946834210399    -0.933887242696    -0.038630090214    12.000000000000
         H           -1.453214210399    -0.163405242696     1.298952909786     1.007825032230
         H           -0.589368210399    -0.418836242696    -1.605288090214     1.007825032230
         H           -0.452108210399    -1.724764242696    -0.412914090214     1.007825032230
         H           -2.265737210399     1.486410757304    -1.146299090214     1.007825032230
         H           -1.081876210399     1.981618757304     0.073389909786     1.007825032230
         H           -2.802647210399     1.770024757304     0.520601909786     1.007825032230
         H           -3.248370110399    -0.904837542696    -1.299713990214     1.007825032230
         H           -2.783777210399    -1.979664242696     0.244284909786     1.007825032230
         H           -3.813384210399    -0.560729242696     0.521039909786     1.007825032230

  Basis Set: AUG-CC-PVTZ
    Blend: AUG-CC-PVTZ
  Basis Set: (AUG-CC-PVTZ AUX)
    Blend: AUG-CC-PVTZ-JKFIT
	 Reference Energy          =    -778.9953397355957350 [Eh]
	 Singles Energy            =      -0.0000000000000000 [Eh]
	 Same-Spin Energy          =      -0.4485644879315007 [Eh]
	 Opposite-Spin Energy      =      -1.3761590013945573 [Eh]
	 Correlation Energy        =      -1.8247234893260580 [Eh]
	 Total Energy              =    -780.8200632249217961 [Eh]

	 ================> DF-SCS-MP2 Energies <==================
	-----------------------------------------------------------
	 SCS Same-Spin Scale       =       0.3333333333333333 [-]
	 SCS Opposite-Spin Scale   =       1.2000000000000000 [-]
	 SCS Same-Spin Energy      =      -0.1495214959771669 [Eh]
	 SCS Opposite-Spin Energy  =      -1.6513908016734686 [Eh]
	 SCS Correlation Energy    =      -1.8009122976506355 [Eh]
	 SCS Total Energy          =    -780.7962520332463328 [Eh]
	-----------------------------------------------------------

  Dipole Moment: [D]
     X:    -6.7447      Y:    -0.8017      Z:    -0.6160     Total:     6.8200

*** Psi4 exiting successfully. Buy a developer a beer!
