                               Psi4 1.4a3.dev225

  ==> Input File <==

--------------------------------------------------------------------------
#psi4
#
memory 32 gb

molecule  {
-1 1
  S        1.2336270    -0.0202320     0.0299590
  O        1.1883626    -0.2462242     1.5024937
  O        2.1958480    -0.8505260    -0.7431210
  O        1.2556930     1.4274900    -0.3299320
  C       -1.5803950    -0.0804270     0.2439630
  C       -0.3819400    -0.6334240    -0.5238140
  C       -1.8538570     1.3866740    -0.0822530
  C       -2.8221770    -0.9303370    -0.0290390
  H       -1.3285570    -0.1598550     1.3085440
  H       -0.4647110    -0.4152860    -1.5956970
  H       -0.3274510    -1.7212140    -0.4033230
  H       -2.1410800     1.4899610    -1.1367080
  H       -0.9572190     1.9851690     0.0829810
  H       -2.6779900     1.7735750     0.5301930
  H       -3.0772140    -0.9057670    -1.0956550
  H       -2.6591200    -1.9761140     0.2538760
  H       -3.6887270    -0.5571790     0.5306310
units angstrom
no_reorient  #important for SAPT in psi4, default
symmetry c1  #important for SAPT in psi4, default
}

set PROPERTIES_ORIGIN ["COM"]
properties('MP2/aug-cc-pvtz', properties = ['dipole'])
--------------------------------------------------------------------------

    Molecular point group: c1
  Charge       = -1
  Multiplicity = 1
  Basis Set: AUG-CC-PVTZ
    Blend: AUG-CC-PVTZ
  Basis Set: (AUG-CC-PVTZ AUX)
    Blend: AUG-CC-PVTZ-JKFIT

    Orbital Energies [Eh]
    ---------------------

    Doubly Occupied:

       1A    -92.000199     2A    -20.344211     3A    -20.341903
       4A    -20.339053     5A    -11.107634     6A    -11.103202
       7A    -11.097323     8A    -11.083830     9A     -8.961773
      10A     -6.647126    11A     -6.646686    12A     -6.646587
      13A     -1.258624    14A     -1.118746    15A     -1.112664
      16A     -0.965388    17A     -0.825897    18A     -0.809968
      19A     -0.663731    20A     -0.607697    21A     -0.520468
      22A     -0.491299    23A     -0.482560    24A     -0.460024
      25A     -0.447821    26A     -0.435605    27A     -0.420073
      28A     -0.401937    29A     -0.367815    30A     -0.349286
      31A     -0.339723    32A     -0.321748    33A     -0.319984
      34A     -0.279975    35A     -0.274938    36A     -0.248321
      37A     -0.240703

  @DF-RHF Final Energy:  -779.01387093018366

   => Energetics <=

    Nuclear Repulsion Energy =            517.1259888099779118
    One-Electron Energy =               -2112.1106756339604544
    Two-Electron Energy =                 815.9708158937987719
    Total Energy =                       -779.0138709301836570
  Basis Set: (AUG-CC-PVTZ AUX)
    Blend: AUG-CC-PVTZ-RI
    Molecular point group: c1

    Geometry (in Angstrom), charge = -1, multiplicity = 1:

       Center              X                  Y                   Z               Mass
    ------------   -----------------  -----------------  -----------------  -----------------
         S            1.112932535275    -0.027986731062     0.018312336193    31.972071174400
         O            1.067668135275    -0.253978931062     1.490847036193    15.994914619570
         O            2.075153535275    -0.858280731062    -0.754767663807    15.994914619570
         O            1.134998535275     1.419735268938    -0.341578663807    15.994914619570
         C           -1.701089464725    -0.088181731062     0.232316336193    12.000000000000
         C           -0.502634464725    -0.641178731062    -0.535460663807    12.000000000000
         C           -1.974551464725     1.378919268938    -0.093899663807    12.000000000000
         C           -2.942871464725    -0.938091731062    -0.040685663807    12.000000000000
         H           -1.449251464725    -0.167609731062     1.296897336193     1.007825032230
         H           -0.585405464725    -0.423040731062    -1.607343663807     1.007825032230
         H           -0.448145464725    -1.728968731062    -0.414969663807     1.007825032230
         H           -2.261774464725     1.482206268938    -1.148354663807     1.007825032230
         H           -1.077913464725     1.977414268938     0.071334336193     1.007825032230
         H           -2.798684464725     1.765820268938     0.518546336193     1.007825032230
         H           -3.197908464725    -0.913521731062    -1.107301663807     1.007825032230
         H           -2.779814464725    -1.983868731062     0.242229336193     1.007825032230
         H           -3.809421464725    -0.564933731062     0.518984336193     1.007825032230

  Basis Set: AUG-CC-PVTZ
    Blend: AUG-CC-PVTZ
  Basis Set: (AUG-CC-PVTZ AUX)
    Blend: AUG-CC-PVTZ-JKFIT
	 Reference Energy          =    -779.0138709301836570 [Eh]
	 Singles Energy            =      -0.0000000000000000 [Eh]
	 Same-Spin Energy          =      -0.4487642167301388 [Eh]
	 Opposite-Spin Energy      =      -1.3749189813997513 [Eh]
	 Correlation Energy        =      -1.8236831981298902 [Eh]
	 Total Energy              =    -780.8375541283135135 [Eh]

	 ================> DF-SCS-MP2 Energies <==================
	-----------------------------------------------------------
	 SCS Same-Spin Scale       =       0.3333333333333333 [-]
	 SCS Opposite-Spin Scale   =       1.2000000000000000 [-]
	 SCS Same-Spin Energy      =      -0.1495880722433796 [Eh]
	 SCS Opposite-Spin Energy  =      -1.6499027776797015 [Eh]
	 SCS Correlation Energy    =      -1.7994908499230811 [Eh]
	 SCS Total Energy          =    -780.8133617801067885 [Eh]
	-----------------------------------------------------------

  Dipole Moment: [D]
     X:    -6.7363      Y:    -0.9180      Z:    -0.7947     Total:     6.8448

*** Psi4 exiting successfully. Buy a developer a beer!
