                               Psi4 1.4a3.dev225

  ==> Input File <==

--------------------------------------------------------------------------
#psi4
#
memory 32 gb

molecule  {
-1 1
  S        1.2336270    -0.0202320     0.0299590
  O        1.2252410    -0.2825260     1.4971370
  O        2.1958480    -0.8505260    -0.7431210
  O        1.2556930     1.4274900    -0.3299320
  C       -1.5803950    -0.0804270     0.2439630
  C       -0.2038756    -0.5658393    -0.4627783
  C       -1.8538570     1.3866740    -0.0822530
  C       -2.8221770    -0.9303370    -0.0290390
  H       -1.3285570    -0.1598550     1.3085440
  H       -0.4647110    -0.4152860    -1.5956970
  H       -0.3274510    -1.7212140    -0.4033230
  H       -2.1410800     1.4899610    -1.1367080
  H       -0.9572190     1.9851690     0.0829810
  H       -2.6779900     1.7735750     0.5301930
  H       -3.0772140    -0.9057670    -1.0956550
  H       -2.6591200    -1.9761140     0.2538760
  H       -3.6887270    -0.5571790     0.5306310
units angstrom
no_reorient  #important for SAPT in psi4, default
symmetry c1  #important for SAPT in psi4, default
}

set PROPERTIES_ORIGIN ["COM"]
properties('MP2/aug-cc-pvtz', properties = ['dipole'])
--------------------------------------------------------------------------

    Molecular point group: c1
  Charge       = -1
  Multiplicity = 1
  Basis Set: AUG-CC-PVTZ
    Blend: AUG-CC-PVTZ
  Basis Set: (AUG-CC-PVTZ AUX)
    Blend: AUG-CC-PVTZ-JKFIT

    Orbital Energies [Eh]
    ---------------------

    Doubly Occupied:

       1A    -91.995788     2A    -20.338821     3A    -20.338697
       4A    -20.336677     5A    -11.114186     6A    -11.113500
       7A    -11.107218     8A    -11.084551     9A     -8.960484
      10A     -6.646467    11A     -6.645136    12A     -6.645110
      13A     -1.264933    14A     -1.115165    15A     -1.114462
      16A     -0.959499    17A     -0.851708    18A     -0.812021
      19A     -0.674821    20A     -0.603853    21A     -0.521631
      22A     -0.492943    23A     -0.483467    24A     -0.465614
      25A     -0.446388    26A     -0.437580    27A     -0.421776
      28A     -0.391629    29A     -0.366581    30A     -0.342658
      31A     -0.331176    32A     -0.319976    33A     -0.312609
      34A     -0.277090    35A     -0.269261    36A     -0.265484
      37A     -0.238320

  @DF-RHF Final Energy:  -778.97506437438585

   => Energetics <=

    Nuclear Repulsion Energy =            520.3331998990787497
    One-Electron Energy =               -2118.4019646385286251
    Two-Electron Energy =                 819.0937003650639099
    Total Energy =                       -778.9750643743858518
  Basis Set: (AUG-CC-PVTZ AUX)
    Blend: AUG-CC-PVTZ-RI
    Molecular point group: c1

    Geometry (in Angstrom), charge = -1, multiplicity = 1:

       Center              X                  Y                   Z               Mass
    ------------   -----------------  -----------------  -----------------  -----------------
         S            1.093034012523    -0.029667945745     0.013592483123    31.972071174400
         O            1.084648012523    -0.291961945745     1.480770483123    15.994914619570
         O            2.055255012523    -0.859961945745    -0.759487516877    15.994914619570
         O            1.115100012523     1.418054054255    -0.346298516877    15.994914619570
         C           -1.720987987477    -0.089862945745     0.227596483123    12.000000000000
         C           -0.344468587477    -0.575275245745    -0.479144816877    12.000000000000
         C           -1.994449987477     1.377238054255    -0.098619516877    12.000000000000
         C           -2.962769987477    -0.939772945745    -0.045405516877    12.000000000000
         H           -1.469149987477    -0.169290945745     1.292177483123     1.007825032230
         H           -0.605303987477    -0.424721945745    -1.612063516877     1.007825032230
         H           -0.468043987477    -1.730649945745    -0.419689516877     1.007825032230
         H           -2.281672987477     1.480525054255    -1.153074516877     1.007825032230
         H           -1.097811987477     1.975733054255     0.066614483123     1.007825032230
         H           -2.818582987477     1.764139054255     0.513826483123     1.007825032230
         H           -3.217806987477    -0.915202945745    -1.112021516877     1.007825032230
         H           -2.799712987477    -1.985549945745     0.237509483123     1.007825032230
         H           -3.829319987477    -0.566614945745     0.514264483123     1.007825032230

  Basis Set: AUG-CC-PVTZ
    Blend: AUG-CC-PVTZ
  Basis Set: (AUG-CC-PVTZ AUX)
    Blend: AUG-CC-PVTZ-JKFIT
	 Reference Energy          =    -778.9750643743858518 [Eh]
	 Singles Energy            =      -0.0000000000000000 [Eh]
	 Same-Spin Energy          =      -0.4500793297461883 [Eh]
	 Opposite-Spin Energy      =      -1.3767134026912990 [Eh]
	 Correlation Energy        =      -1.8267927324374873 [Eh]
	 Total Energy              =    -780.8018571068233769 [Eh]

	 ================> DF-SCS-MP2 Energies <==================
	-----------------------------------------------------------
	 SCS Same-Spin Scale       =       0.3333333333333333 [-]
	 SCS Opposite-Spin Scale   =       1.2000000000000000 [-]
	 SCS Same-Spin Energy      =      -0.1500264432487294 [Eh]
	 SCS Opposite-Spin Energy  =      -1.6520560832295588 [Eh]
	 SCS Correlation Energy    =      -1.8020825264782883 [Eh]
	 SCS Total Energy          =    -780.7771469008641816 [Eh]
	-----------------------------------------------------------

  Dipole Moment: [D]
     X:    -7.1173      Y:    -0.9228      Z:    -0.8165     Total:     7.2231

*** Psi4 exiting successfully. Buy a developer a beer!
