                               Psi4 1.4a3.dev225

  ==> Input File <==

--------------------------------------------------------------------------
#psi4
#
memory 32 gb

molecule  {
-1 1
  S        1.2336270    -0.0202320     0.0299590
  O        1.2252410    -0.2825260     1.4971370
  O        2.1958480    -0.8505260    -0.7431210
  O        1.2556930     1.4274900    -0.3299320
  C       -1.5803950    -0.0804270     0.2439630
  C       -0.5389135    -0.5609925    -0.4232506
  C       -1.8538570     1.3866740    -0.0822530
  C       -2.8221770    -0.9303370    -0.0290390
  H       -1.3285570    -0.1598550     1.3085440
  H       -0.4647110    -0.4152860    -1.5956970
  H       -0.3274510    -1.7212140    -0.4033230
  H       -2.1410800     1.4899610    -1.1367080
  H       -0.9572190     1.9851690     0.0829810
  H       -2.6779900     1.7735750     0.5301930
  H       -3.0772140    -0.9057670    -1.0956550
  H       -2.6591200    -1.9761140     0.2538760
  H       -3.6887270    -0.5571790     0.5306310
units angstrom
no_reorient  #important for SAPT in psi4, default
symmetry c1  #important for SAPT in psi4, default
}

set PROPERTIES_ORIGIN ["COM"]
properties('MP2/aug-cc-pvtz', properties = ['dipole'])
--------------------------------------------------------------------------

    Molecular point group: c1
  Charge       = -1
  Multiplicity = 1
  Basis Set: AUG-CC-PVTZ
    Blend: AUG-CC-PVTZ
  Basis Set: (AUG-CC-PVTZ AUX)
    Blend: AUG-CC-PVTZ-JKFIT

    Orbital Energies [Eh]
    ---------------------

    Doubly Occupied:

       1A    -92.000957     2A    -20.351224     3A    -20.339626
       4A    -20.339540     5A    -11.109590     6A    -11.106749
       7A    -11.092901     8A    -11.086690     9A     -8.962062
      10A     -6.647411    11A     -6.646807    12A     -6.646729
      13A     -1.257512    14A     -1.118737    15A     -1.113341
      16A     -1.000933    17A     -0.822588    18A     -0.811325
      19A     -0.672871    20A     -0.601928    21A     -0.531144
      22A     -0.492323    23A     -0.490895    24A     -0.455381
      25A     -0.448157    26A     -0.430044    27A     -0.420918
      28A     -0.405546    29A     -0.380210    30A     -0.360947
      31A     -0.324005    32A     -0.321578    33A     -0.319545
      34A     -0.283998    35A     -0.272316    36A     -0.242023
      37A     -0.226623

  @DF-RHF Final Energy:  -778.96437853195960

   => Energetics <=

    Nuclear Repulsion Energy =            517.5967120704700619
    One-Electron Energy =               -2112.8518347140770857
    Two-Electron Energy =                 816.2907441116475411
    Total Energy =                       -778.9643785319595963
  Basis Set: (AUG-CC-PVTZ AUX)
    Blend: AUG-CC-PVTZ-RI
    Molecular point group: c1

    Geometry (in Angstrom), charge = -1, multiplicity = 1:

       Center              X                  Y                   Z               Mass
    ------------   -----------------  -----------------  -----------------  -----------------
         S            1.122374564011    -0.030092398576     0.010130891115    31.972071174400
         O            1.113988564011    -0.292386398576     1.477308891115    15.994914619570
         O            2.084595564011    -0.860386398576    -0.762949108885    15.994914619570
         O            1.144440564011     1.417629601424    -0.349760108885    15.994914619570
         C           -1.691647435989    -0.090287398576     0.224134891115    12.000000000000
         C           -0.650165935989    -0.570852898576    -0.443078708885    12.000000000000
         C           -1.965109435989     1.376813601424    -0.102081108885    12.000000000000
         C           -2.933429435989    -0.940197398576    -0.048867108885    12.000000000000
         H           -1.439809435989    -0.169715398576     1.288715891115     1.007825032230
         H           -0.575963435989    -0.425146398576    -1.615525108885     1.007825032230
         H           -0.438703435989    -1.731074398576    -0.423151108885     1.007825032230
         H           -2.252332435989     1.480100601424    -1.156536108885     1.007825032230
         H           -1.068471435989     1.975308601424     0.063152891115     1.007825032230
         H           -2.789242435989     1.763714601424     0.510364891115     1.007825032230
         H           -3.188466435989    -0.915627398576    -1.115483108885     1.007825032230
         H           -2.770372435989    -1.985974398576     0.234047891115     1.007825032230
         H           -3.799979435989    -0.567039398576     0.510802891115     1.007825032230

  Basis Set: AUG-CC-PVTZ
    Blend: AUG-CC-PVTZ
  Basis Set: (AUG-CC-PVTZ AUX)
    Blend: AUG-CC-PVTZ-JKFIT
	 Reference Energy          =    -778.9643785319595963 [Eh]
	 Singles Energy            =      -0.0000000000000000 [Eh]
	 Same-Spin Energy          =      -0.4526339696113824 [Eh]
	 Opposite-Spin Energy      =      -1.3805063349274573 [Eh]
	 Correlation Energy        =      -1.8331403045388397 [Eh]
	 Total Energy              =    -780.7975188364983978 [Eh]

	 ================> DF-SCS-MP2 Energies <==================
	-----------------------------------------------------------
	 SCS Same-Spin Scale       =       0.3333333333333333 [-]
	 SCS Opposite-Spin Scale   =       1.2000000000000000 [-]
	 SCS Same-Spin Energy      =      -0.1508779898704608 [Eh]
	 SCS Opposite-Spin Energy  =      -1.6566076019129488 [Eh]
	 SCS Correlation Energy    =      -1.8074855917834096 [Eh]
	 SCS Total Energy          =    -780.7718641237430575 [Eh]
	-----------------------------------------------------------

  Dipole Moment: [D]
     X:    -6.7258      Y:    -0.7277      Z:    -0.6785     Total:     6.7990

*** Psi4 exiting successfully. Buy a developer a beer!
