                               Psi4 1.4a3.dev225

  ==> Input File <==

--------------------------------------------------------------------------
#psi4
#
memory 32 gb

molecule  {
-1 1
  S        1.2336270    -0.0202320     0.0299590
  O        1.2252410    -0.2825260     1.4971370
  O        2.1958480    -0.8505260    -0.7431210
  O        1.2556930     1.4274900    -0.3299320
  C       -1.5803950    -0.0804270     0.2439630
  C       -0.3819400    -0.6334240    -0.5238140
  C       -1.8538570     1.3866740    -0.0822530
  C       -2.8221770    -0.9303370    -0.0290390
  H       -1.3285570    -0.1598550     1.3085440
  H       -0.4647110    -0.4152860    -1.5956970
  H       -0.3274510    -1.7212140    -0.4033230
  H       -2.1410800     1.4899610    -1.1367080
  H       -0.9572190     1.9851690     0.0829810
  H       -2.6779900     1.7735750     0.5301930
  H       -3.0772140    -0.9057670    -1.0956550
  H       -2.6620967    -1.9570230     0.2487113
  H       -3.6887270    -0.5571790     0.5306310
units angstrom
no_reorient  #important for SAPT in psi4, default
symmetry c1  #important for SAPT in psi4, default
}

set PROPERTIES_ORIGIN ["COM"]
properties('MP2/aug-cc-pvtz', properties = ['dipole'])
--------------------------------------------------------------------------

    Molecular point group: c1
  Charge       = -1
  Multiplicity = 1
  Basis Set: AUG-CC-PVTZ
    Blend: AUG-CC-PVTZ
  Basis Set: (AUG-CC-PVTZ AUX)
    Blend: AUG-CC-PVTZ-JKFIT

    Orbital Energies [Eh]
    ---------------------

    Doubly Occupied:

       1A    -91.999860     2A    -20.341612     3A    -20.341125
       4A    -20.340678     5A    -11.105800     6A    -11.104062
       7A    -11.098289     8A    -11.084516     9A     -8.961450
      10A     -6.646795    11A     -6.646330    12A     -6.646303
      13A     -1.258197    14A     -1.115306    15A     -1.114707
      16A     -0.966575    17A     -0.827394    18A     -0.811602
      19A     -0.664541    20A     -0.608184    21A     -0.521184
      22A     -0.491854    23A     -0.484011    24A     -0.460996
      25A     -0.446873    26A     -0.436235    27A     -0.420901
      28A     -0.403141    29A     -0.368386    30A     -0.350359
      31A     -0.340823    32A     -0.320412    33A     -0.320402
      34A     -0.277920    35A     -0.275862    36A     -0.248794
      37A     -0.240141

  @DF-RHF Final Energy:  -779.01451638635035

   => Energetics <=

    Nuclear Repulsion Energy =            516.9260923870723445
    One-Electron Energy =               -2111.6979811711262300
    Two-Electron Energy =                 815.7573723977034206
    Total Energy =                       -779.0145163863503512
  Basis Set: (AUG-CC-PVTZ AUX)
    Blend: AUG-CC-PVTZ-RI
    Molecular point group: c1

    Geometry (in Angstrom), charge = -1, multiplicity = 1:

       Center              X                  Y                   Z               Mass
    ------------   -----------------  -----------------  -----------------  -----------------
         S            1.108649687098    -0.023889707707     0.018975599007    31.972071174400
         O            1.100263687098    -0.286183707707     1.486153599007    15.994914619570
         O            2.070870687098    -0.854183707707    -0.754104400993    15.994914619570
         O            1.130715687098     1.423832292293    -0.340915400993    15.994914619570
         C           -1.705372312902    -0.084084707707     0.232979599007    12.000000000000
         C           -0.506917312902    -0.637081707707    -0.534797400993    12.000000000000
         C           -1.978834312902     1.383016292293    -0.093236400993    12.000000000000
         C           -2.947154312902    -0.933994707707    -0.040022400993    12.000000000000
         H           -1.453534312902    -0.163512707707     1.297560599007     1.007825032230
         H           -0.589688312902    -0.418943707707    -1.606680400993     1.007825032230
         H           -0.452428312902    -1.724871707707    -0.414306400993     1.007825032230
         H           -2.266057312902     1.486303292293    -1.147691400993     1.007825032230
         H           -1.082196312902     1.981511292293     0.071997599007     1.007825032230
         H           -2.802967312902     1.769917292293     0.519209599007     1.007825032230
         H           -3.202191312902    -0.909424707707    -1.106638400993     1.007825032230
         H           -2.787074012902    -1.960680707707     0.237727899007     1.007825032230
         H           -3.813704312902    -0.560836707707     0.519647599007     1.007825032230

  Basis Set: AUG-CC-PVTZ
    Blend: AUG-CC-PVTZ
  Basis Set: (AUG-CC-PVTZ AUX)
    Blend: AUG-CC-PVTZ-JKFIT
	 Reference Energy          =    -779.0145163863503512 [Eh]
	 Singles Energy            =      -0.0000000000000000 [Eh]
	 Same-Spin Energy          =      -0.4486537843901156 [Eh]
	 Opposite-Spin Energy      =      -1.3746222202183551 [Eh]
	 Correlation Energy        =      -1.8232760046084706 [Eh]
	 Total Energy              =    -780.8377923909588390 [Eh]

	 ================> DF-SCS-MP2 Energies <==================
	-----------------------------------------------------------
	 SCS Same-Spin Scale       =       0.3333333333333333 [-]
	 SCS Opposite-Spin Scale   =       1.2000000000000000 [-]
	 SCS Same-Spin Energy      =      -0.1495512614633718 [Eh]
	 SCS Opposite-Spin Energy  =      -1.6495466642620260 [Eh]
	 SCS Correlation Energy    =      -1.7990979257253978 [Eh]
	 SCS Total Energy          =    -780.8136143120757424 [Eh]
	-----------------------------------------------------------

  Dipole Moment: [D]
     X:    -6.8504      Y:    -0.8482      Z:    -0.7871     Total:     6.9474

*** Psi4 exiting successfully. Buy a developer a beer!
