                               Psi4 1.4a3.dev225

  ==> Input File <==

--------------------------------------------------------------------------
#psi4
#
memory 32 gb

molecule  {
-1 1
  S        1.2336270    -0.0202320     0.0299590
  O        1.1148160    -0.1728393     1.5078205
  O        2.1958480    -0.8505260    -0.7431210
  O        1.2556930     1.4274900    -0.3299320
  C       -1.5803950    -0.0804270     0.2439630
  C       -0.3819400    -0.6334240    -0.5238140
  C       -1.8538570     1.3866740    -0.0822530
  C       -2.8221770    -0.9303370    -0.0290390
  H       -1.3285570    -0.1598550     1.3085440
  H       -0.4647110    -0.4152860    -1.5956970
  H       -0.3274510    -1.7212140    -0.4033230
  H       -2.1410800     1.4899610    -1.1367080
  H       -0.9572190     1.9851690     0.0829810
  H       -2.6779900     1.7735750     0.5301930
  H       -3.0772140    -0.9057670    -1.0956550
  H       -2.6591200    -1.9761140     0.2538760
  H       -3.6887270    -0.5571790     0.5306310
units angstrom
no_reorient  #important for SAPT in psi4, default
symmetry c1  #important for SAPT in psi4, default
}

set PROPERTIES_ORIGIN ["COM"]
properties('MP2/aug-cc-pvtz', properties = ['dipole'])
--------------------------------------------------------------------------

    Molecular point group: c1
  Charge       = -1
  Multiplicity = 1
  Basis Set: AUG-CC-PVTZ
    Blend: AUG-CC-PVTZ
  Basis Set: (AUG-CC-PVTZ AUX)
    Blend: AUG-CC-PVTZ-JKFIT

    Orbital Energies [Eh]
    ---------------------

    Doubly Occupied:

       1A    -92.000692     2A    -20.350925     3A    -20.342086
       4A    -20.334717     5A    -11.106179     6A    -11.100877
       7A    -11.095374     8A    -11.081914     9A     -8.962271
      10A     -6.647652    11A     -6.647232    12A     -6.646994
      13A     -1.259502    14A     -1.125252    15A     -1.108133
      16A     -0.963340    17A     -0.824251    18A     -0.808193
      19A     -0.662643    20A     -0.606643    21A     -0.519760
      22A     -0.490820    23A     -0.481470    24A     -0.459355
      25A     -0.449568    26A     -0.433884    27A     -0.418509
      28A     -0.400670    29A     -0.366767    30A     -0.347711
      31A     -0.337385    32A     -0.324164    33A     -0.319144
      34A     -0.284031    35A     -0.272338    36A     -0.247047
      37A     -0.240515

  @DF-RHF Final Energy:  -779.01045186483555

   => Energetics <=

    Nuclear Repulsion Energy =            517.7655260132544299
    One-Electron Energy =               -2113.4159460156943169
    Two-Electron Energy =                 816.6399681376043418
    Total Energy =                       -779.0104518648355452
  Basis Set: (AUG-CC-PVTZ AUX)
    Blend: AUG-CC-PVTZ-RI
    Molecular point group: c1

    Geometry (in Angstrom), charge = -1, multiplicity = 1:

       Center              X                  Y                   Z               Mass
    ------------   -----------------  -----------------  -----------------  -----------------
         S            1.121517482216    -0.036552803086     0.017690549525    31.972071174400
         O            1.002706482216    -0.189160103086     1.495552049525    15.994914619570
         O            2.083738482216    -0.866846803086    -0.755389450475    15.994914619570
         O            1.143583482216     1.411169196914    -0.342200450475    15.994914619570
         C           -1.692504517784    -0.096747803086     0.231694549525    12.000000000000
         C           -0.494049517784    -0.649744803086    -0.536082450475    12.000000000000
         C           -1.965966517784     1.370353196914    -0.094521450475    12.000000000000
         C           -2.934286517784    -0.946657803086    -0.041307450475    12.000000000000
         H           -1.440666517784    -0.176175803086     1.296275549525     1.007825032230
         H           -0.576820517784    -0.431606803086    -1.607965450475     1.007825032230
         H           -0.439560517784    -1.737534803086    -0.415591450475     1.007825032230
         H           -2.253189517784     1.473640196914    -1.148976450475     1.007825032230
         H           -1.069328517784     1.968848196914     0.070712549525     1.007825032230
         H           -2.790099517784     1.757254196914     0.517924549525     1.007825032230
         H           -3.189323517784    -0.922087803086    -1.107923450475     1.007825032230
         H           -2.771229517784    -1.992434803086     0.241607549525     1.007825032230
         H           -3.800836517784    -0.573499803086     0.518362549525     1.007825032230

  Basis Set: AUG-CC-PVTZ
    Blend: AUG-CC-PVTZ
  Basis Set: (AUG-CC-PVTZ AUX)
    Blend: AUG-CC-PVTZ-JKFIT
	 Reference Energy          =    -779.0104518648355452 [Eh]
	 Singles Energy            =      -0.0000000000000000 [Eh]
	 Same-Spin Energy          =      -0.4491017685294917 [Eh]
	 Opposite-Spin Energy      =      -1.3754899591655683 [Eh]
	 Correlation Energy        =      -1.8245917276950601 [Eh]
	 Total Energy              =    -780.8350435925306101 [Eh]

	 ================> DF-SCS-MP2 Energies <==================
	-----------------------------------------------------------
	 SCS Same-Spin Scale       =       0.3333333333333333 [-]
	 SCS Opposite-Spin Scale   =       1.2000000000000000 [-]
	 SCS Same-Spin Energy      =      -0.1497005895098306 [Eh]
	 SCS Opposite-Spin Energy  =      -1.6505879509986818 [Eh]
	 SCS Correlation Energy    =      -1.8002885405085123 [Eh]
	 SCS Total Energy          =    -780.8107404053440632 [Eh]
	-----------------------------------------------------------

  Dipole Moment: [D]
     X:    -6.5146      Y:    -1.0912      Z:    -0.7927     Total:     6.6528

*** Psi4 exiting successfully. Buy a developer a beer!
