                               Psi4 1.4a3.dev225

  ==> Input File <==

--------------------------------------------------------------------------
#psi4
#
memory 32 gb

molecule  {
-1 1
  S        1.2336270    -0.0202320     0.0299590
  O        1.2252410    -0.2825260     1.4971370
  O        2.1958480    -0.8505260    -0.7431210
  O        1.2556930     1.4274900    -0.3299320
  C       -1.5803950    -0.0804270     0.2439630
  C       -0.3819400    -0.6334240    -0.5238140
  C       -1.8538570     1.3866740    -0.0822530
  C       -2.8221770    -0.9303370    -0.0290390
  H       -1.3285570    -0.1598550     1.3085440
  H       -0.4647110    -0.4152860    -1.5956970
  H       -0.3274510    -1.7212140    -0.4033230
  H       -2.1410800     1.4899610    -1.1367080
  H       -0.9572190     1.9851690     0.0829810
  H       -2.6779900     1.7735750     0.5301930
  H       -3.0772140    -0.9057670    -1.0956550
  H       -2.6741045    -1.9750746     0.2657082
  H       -3.6887270    -0.5571790     0.5306310
units angstrom
no_reorient  #important for SAPT in psi4, default
symmetry c1  #important for SAPT in psi4, default
}

set PROPERTIES_ORIGIN ["COM"]
properties('MP2/aug-cc-pvtz', properties = ['dipole'])
--------------------------------------------------------------------------

    Molecular point group: c1
  Charge       = -1
  Multiplicity = 1
  Basis Set: AUG-CC-PVTZ
    Blend: AUG-CC-PVTZ
  Basis Set: (AUG-CC-PVTZ AUX)
    Blend: AUG-CC-PVTZ-JKFIT

    Orbital Energies [Eh]
    ---------------------

    Doubly Occupied:

       1A    -91.999862     2A    -20.341622     3A    -20.341149
       4A    -20.340683     5A    -11.108360     6A    -11.104449
       7A    -11.098277     8A    -11.084834     9A     -8.961454
      10A     -6.646798    11A     -6.646334    12A     -6.646306
      13A     -1.258210    14A     -1.115313    15A     -1.114728
      16A     -0.966334    17A     -0.826780    18A     -0.810837
      19A     -0.664452    20A     -0.608178    21A     -0.521218
      22A     -0.491182    23A     -0.482718    24A     -0.460592
      25A     -0.446628    26A     -0.436350    27A     -0.421196
      28A     -0.401955    29A     -0.368696    30A     -0.350116
      31A     -0.340991    32A     -0.320443    33A     -0.320430
      34A     -0.277928    35A     -0.275882    36A     -0.248822
      37A     -0.240159

  @DF-RHF Final Energy:  -779.01448075290546

   => Energetics <=

    Nuclear Repulsion Energy =            516.8134515432442413
    One-Electron Energy =               -2111.4753386287306967
    Two-Electron Energy =                 815.6474063325808856
    Total Energy =                       -779.0144807529054560
  Basis Set: (AUG-CC-PVTZ AUX)
    Blend: AUG-CC-PVTZ-RI
    Molecular point group: c1

    Geometry (in Angstrom), charge = -1, multiplicity = 1:

       Center              X                  Y                   Z               Mass
    ------------   -----------------  -----------------  -----------------  -----------------
         S            1.108738003562    -0.023756939549     0.018850588088    31.972071174400
         O            1.100352003562    -0.286050939549     1.486028588088    15.994914619570
         O            2.070959003562    -0.854050939549    -0.754229411912    15.994914619570
         O            1.130804003562     1.423965060451    -0.341040411912    15.994914619570
         C           -1.705283996438    -0.083951939549     0.232854588088    12.000000000000
         C           -0.506828996438    -0.636948939549    -0.534922411912    12.000000000000
         C           -1.978745996438     1.383149060451    -0.093361411912    12.000000000000
         C           -2.947065996438    -0.933861939549    -0.040147411912    12.000000000000
         H           -1.453445996438    -0.163379939549     1.297435588088     1.007825032230
         H           -0.589599996438    -0.418810939549    -1.606805411912     1.007825032230
         H           -0.452339996438    -1.724738939549    -0.414431411912     1.007825032230
         H           -2.265968996438     1.486436060451    -1.147816411912     1.007825032230
         H           -1.082107996438     1.981644060451     0.071872588088     1.007825032230
         H           -2.802878996438     1.770050060451     0.519084588088     1.007825032230
         H           -3.202102996438    -0.909291939549    -1.106763411912     1.007825032230
         H           -2.798993496438    -1.978599539549     0.254599788088     1.007825032230
         H           -3.813615996438    -0.560703939549     0.519522588088     1.007825032230

  Basis Set: AUG-CC-PVTZ
    Blend: AUG-CC-PVTZ
  Basis Set: (AUG-CC-PVTZ AUX)
    Blend: AUG-CC-PVTZ-JKFIT
	 Reference Energy          =    -779.0144807529054560 [Eh]
	 Singles Energy            =      -0.0000000000000000 [Eh]
	 Same-Spin Energy          =      -0.4486391532061252 [Eh]
	 Opposite-Spin Energy      =      -1.3747196575506804 [Eh]
	 Correlation Energy        =      -1.8233588107568055 [Eh]
	 Total Energy              =    -780.8378395636622145 [Eh]

	 ================> DF-SCS-MP2 Energies <==================
	-----------------------------------------------------------
	 SCS Same-Spin Scale       =       0.3333333333333333 [-]
	 SCS Opposite-Spin Scale   =       1.2000000000000000 [-]
	 SCS Same-Spin Energy      =      -0.1495463844020417 [Eh]
	 SCS Opposite-Spin Energy  =      -1.6496635890608164 [Eh]
	 SCS Correlation Energy    =      -1.7992099734628582 [Eh]
	 SCS Total Energy          =    -780.8136907263683497 [Eh]
	-----------------------------------------------------------

  Dipole Moment: [D]
     X:    -6.8512      Y:    -0.8324      Z:    -0.7858     Total:     6.9462

*** Psi4 exiting successfully. Buy a developer a beer!
