                               Psi4 1.4a3.dev225

  ==> Input File <==

--------------------------------------------------------------------------
#psi4
#
memory 32 gb

molecule  {
-1 1
  S        1.2336270    -0.0202320     0.0299590
  O        1.2252410    -0.2825260     1.4971370
  O        2.1958480    -0.8505260    -0.7431210
  O        1.2556930     1.4274900    -0.3299320
  C       -1.5803950    -0.0804270     0.2439630
  C       -0.3819400    -0.6334240    -0.5238140
  C       -1.8538570     1.3866740    -0.0822530
  C       -2.8221770    -0.9303370    -0.0290390
  H       -1.3285570    -0.1598550     1.3085440
  H       -0.4647110    -0.4152860    -1.5956970
  H       -0.3175059    -1.9197523    -0.3813315
  H       -2.1410800     1.4899610    -1.1367080
  H       -0.9572190     1.9851690     0.0829810
  H       -2.6779900     1.7735750     0.5301930
  H       -3.0772140    -0.9057670    -1.0956550
  H       -2.6591200    -1.9761140     0.2538760
  H       -3.6887270    -0.5571790     0.5306310
units angstrom
no_reorient  #important for SAPT in psi4, default
symmetry c1  #important for SAPT in psi4, default
}

set PROPERTIES_ORIGIN ["COM"]
properties('MP2/aug-cc-pvtz', properties = ['dipole'])
--------------------------------------------------------------------------

    Molecular point group: c1
  Charge       = -1
  Multiplicity = 1
  Basis Set: AUG-CC-PVTZ
    Blend: AUG-CC-PVTZ
  Basis Set: (AUG-CC-PVTZ AUX)
    Blend: AUG-CC-PVTZ-JKFIT

    Orbital Energies [Eh]
    ---------------------

    Doubly Occupied:

       1A    -92.001801     2A    -20.343794     3A    -20.341984
       4A    -20.340662     5A    -11.120496     6A    -11.108071
       7A    -11.106337     8A    -11.086880     9A     -8.963231
      10A     -6.648632    11A     -6.648116    12A     -6.648067
      13A     -1.259129    14A     -1.116303    15A     -1.115456
      16A     -0.965502    17A     -0.819970    18A     -0.808916
      19A     -0.665131    20A     -0.604278    21A     -0.520513
      22A     -0.486361    23A     -0.475619    24A     -0.460715
      25A     -0.445574    26A     -0.437334    27A     -0.420532
      28A     -0.394127    29A     -0.366264    30A     -0.345665
      31A     -0.338617    32A     -0.321074    33A     -0.320782
      34A     -0.278390    35A     -0.273987    36A     -0.250375
      37A     -0.241052

  @DF-RHF Final Energy:  -778.99402026899077

   => Energetics <=

    Nuclear Repulsion Energy =            515.8229191577312349
    One-Electron Energy =               -2109.4543986084700009
    Two-Electron Energy =                 814.6374591817481132
    Total Energy =                       -778.9940202689907665
  Basis Set: (AUG-CC-PVTZ AUX)
    Blend: AUG-CC-PVTZ-RI
    Molecular point group: c1

    Geometry (in Angstrom), charge = -1, multiplicity = 1:

       Center              X                  Y                   Z               Mass
    ------------   -----------------  -----------------  -----------------  -----------------
         S            1.108554648232    -0.022289060597     0.018775867202    31.972071174400
         O            1.100168648232    -0.284583060597     1.485953867202    15.994914619570
         O            2.070775648232    -0.852583060597    -0.754304132798    15.994914619570
         O            1.130620648232     1.425432939403    -0.341115132798    15.994914619570
         C           -1.705467351768    -0.082484060597     0.232779867202    12.000000000000
         C           -0.507012351768    -0.635481060597    -0.534997132798    12.000000000000
         C           -1.978929351768     1.384616939403    -0.093436132798    12.000000000000
         C           -2.947249351768    -0.932394060597    -0.040222132798    12.000000000000
         H           -1.453629351768    -0.161912060597     1.297360867202     1.007825032230
         H           -0.589783351768    -0.417343060597    -1.606880132798     1.007825032230
         H           -0.442578251768    -1.921809360597    -0.392514632798     1.007825032230
         H           -2.266152351768     1.487903939403    -1.147891132798     1.007825032230
         H           -1.082291351768     1.983111939403     0.071797867202     1.007825032230
         H           -2.803062351768     1.771517939403     0.519009867202     1.007825032230
         H           -3.202286351768    -0.907824060597    -1.106838132798     1.007825032230
         H           -2.784192351768    -1.978171060597     0.242692867202     1.007825032230
         H           -3.813799351768    -0.559236060597     0.519447867202     1.007825032230

  Basis Set: AUG-CC-PVTZ
    Blend: AUG-CC-PVTZ
  Basis Set: (AUG-CC-PVTZ AUX)
    Blend: AUG-CC-PVTZ-JKFIT
	 Reference Energy          =    -778.9940202689907665 [Eh]
	 Singles Energy            =      -0.0000000000000000 [Eh]
	 Same-Spin Energy          =      -0.4490146864563454 [Eh]
	 Opposite-Spin Energy      =      -1.3767537418452362 [Eh]
	 Correlation Energy        =      -1.8257684283015816 [Eh]
	 Total Energy              =    -780.8197886972923243 [Eh]

	 ================> DF-SCS-MP2 Energies <==================
	-----------------------------------------------------------
	 SCS Same-Spin Scale       =       0.3333333333333333 [-]
	 SCS Opposite-Spin Scale   =       1.2000000000000000 [-]
	 SCS Same-Spin Energy      =      -0.1496715621521151 [Eh]
	 SCS Opposite-Spin Energy  =      -1.6521044902142834 [Eh]
	 SCS Correlation Energy    =      -1.8017760523663986 [Eh]
	 SCS Total Energy          =    -780.7957963213572157 [Eh]
	-----------------------------------------------------------

  Dipole Moment: [D]
     X:    -6.8272      Y:    -0.6583      Z:    -0.7722     Total:     6.9022

*** Psi4 exiting successfully. Buy a developer a beer!
