                               Psi4 1.4a3.dev225

  ==> Input File <==

--------------------------------------------------------------------------
#psi4
#
memory 32 gb

molecule  {
-1 1
  S        1.2336270    -0.0202320     0.0299590
  O        1.2252410    -0.2825260     1.4971370
  O        2.1958480    -0.8505260    -0.7431210
  O        1.2556930     1.4274900    -0.3299320
  C       -1.5803950    -0.0804270     0.2439630
  C       -0.3819400    -0.6334240    -0.5238140
  C       -1.8538570     1.3866740    -0.0822530
  C       -2.8221770    -0.9303370    -0.0290390
  H       -1.3744775    -0.1453720     1.1144266
  H       -0.4647110    -0.4152860    -1.5956970
  H       -0.3274510    -1.7212140    -0.4033230
  H       -2.1410800     1.4899610    -1.1367080
  H       -0.9572190     1.9851690     0.0829810
  H       -2.6779900     1.7735750     0.5301930
  H       -3.0772140    -0.9057670    -1.0956550
  H       -2.6591200    -1.9761140     0.2538760
  H       -3.6887270    -0.5571790     0.5306310
units angstrom
no_reorient  #important for SAPT in psi4, default
symmetry c1  #important for SAPT in psi4, default
}

set PROPERTIES_ORIGIN ["COM"]
properties('MP2/aug-cc-pvtz', properties = ['dipole'])
--------------------------------------------------------------------------

    Molecular point group: c1
  Charge       = -1
  Multiplicity = 1
  Basis Set: AUG-CC-PVTZ
    Blend: AUG-CC-PVTZ
  Basis Set: (AUG-CC-PVTZ AUX)
    Blend: AUG-CC-PVTZ-JKFIT

    Orbital Energies [Eh]
    ---------------------

    Doubly Occupied:

       1A    -91.999777     2A    -20.341954     3A    -20.340992
       4A    -20.340511     5A    -11.107502     6A    -11.096998
       7A    -11.083740     8A    -11.080154     9A     -8.961359
      10A     -6.646692    11A     -6.646241    12A     -6.646219
      13A     -1.258183    14A     -1.115382    15A     -1.114612
      16A     -0.977099    17A     -0.826036    18A     -0.810317
      19A     -0.692687    20A     -0.615433    21A     -0.526432
      22A     -0.491223    23A     -0.482851    24A     -0.460954
      25A     -0.446744    26A     -0.436015    27A     -0.421463
      28A     -0.402550    29A     -0.370667    30A     -0.360648
      31A     -0.348558    32A     -0.321683    33A     -0.320379
      34A     -0.277922    35A     -0.275690    36A     -0.248404
      37A     -0.240232

  @DF-RHF Final Energy:  -778.98182312859342

   => Energetics <=

    Nuclear Repulsion Energy =            517.9071070738992830
    One-Electron Energy =               -2113.5092593806034529
    Two-Electron Energy =                 816.6203291781108646
    Total Energy =                       -778.9818231285934189
  Basis Set: (AUG-CC-PVTZ AUX)
    Blend: AUG-CC-PVTZ-RI
    Molecular point group: c1

    Geometry (in Angstrom), charge = -1, multiplicity = 1:

       Center              X                  Y                   Z               Mass
    ------------   -----------------  -----------------  -----------------  -----------------
         S            1.108965535512    -0.023855816214     0.020365331885    31.972071174400
         O            1.100579535512    -0.286149816214     1.487543331885    15.994914619570
         O            2.071186535512    -0.854149816214    -0.752714668115    15.994914619570
         O            1.131031535512     1.423866183786    -0.339525668115    15.994914619570
         C           -1.705056464488    -0.084050816214     0.234369331885    12.000000000000
         C           -0.506601464488    -0.637047816214    -0.533407668115    12.000000000000
         C           -1.978518464488     1.383050183786    -0.091846668115    12.000000000000
         C           -2.946838464488    -0.933960816214    -0.038632668115    12.000000000000
         H           -1.499138964488    -0.148995816214     1.104832931885     1.007825032230
         H           -0.589372464488    -0.418909816214    -1.605290668115     1.007825032230
         H           -0.452112464488    -1.724837816214    -0.412916668115     1.007825032230
         H           -2.265741464488     1.486337183786    -1.146301668115     1.007825032230
         H           -1.081880464488     1.981545183786     0.073387331885     1.007825032230
         H           -2.802651464488     1.769951183786     0.520599331885     1.007825032230
         H           -3.201875464488    -0.909390816214    -1.105248668115     1.007825032230
         H           -2.783781464488    -1.979737816214     0.244282331885     1.007825032230
         H           -3.813388464488    -0.560802816214     0.521037331885     1.007825032230

  Basis Set: AUG-CC-PVTZ
    Blend: AUG-CC-PVTZ
  Basis Set: (AUG-CC-PVTZ AUX)
    Blend: AUG-CC-PVTZ-JKFIT
	 Reference Energy          =    -778.9818231285934189 [Eh]
	 Singles Energy            =      -0.0000000000000000 [Eh]
	 Same-Spin Energy          =      -0.4484055520211917 [Eh]
	 Opposite-Spin Energy      =      -1.3738897454001242 [Eh]
	 Correlation Energy        =      -1.8222952974213160 [Eh]
	 Total Energy              =    -780.8041184260147247 [Eh]

	 ================> DF-SCS-MP2 Energies <==================
	-----------------------------------------------------------
	 SCS Same-Spin Scale       =       0.3333333333333333 [-]
	 SCS Opposite-Spin Scale   =       1.2000000000000000 [-]
	 SCS Same-Spin Energy      =      -0.1494685173403972 [Eh]
	 SCS Opposite-Spin Energy  =      -1.6486676944801490 [Eh]
	 SCS Correlation Energy    =      -1.7981362118205462 [Eh]
	 SCS Total Energy          =    -780.7799593404139387 [Eh]
	-----------------------------------------------------------

  Dipole Moment: [D]
     X:    -6.8771      Y:    -0.8411      Z:    -0.7519     Total:     6.9690

*** Psi4 exiting successfully. Buy a developer a beer!
