                               Psi4 1.4a3.dev225

  ==> Input File <==

--------------------------------------------------------------------------
#psi4
#
memory 32 gb

molecule  {
-1 1
  S        1.2336270    -0.0202320     0.0299590
  O        1.2252410    -0.2825260     1.4971370
  O        2.1958480    -0.8505260    -0.7431210
  O        1.2556930     1.4274900    -0.3299320
  C       -1.5803950    -0.0804270     0.2439630
  C       -0.3819400    -0.6334240    -0.5238140
  C       -1.8538570     1.3866740    -0.0822530
  C       -2.8221770    -0.9303370    -0.0290390
  H       -1.3285570    -0.1598550     1.3085440
  H       -0.4647110    -0.4152860    -1.5956970
  H       -0.3274510    -1.7212140    -0.4033230
  H       -2.1410800     1.4899610    -1.1367080
  H       -0.9572190     1.9851690     0.0829810
  H       -2.6779900     1.7735750     0.5301930
  H       -3.0307151    -0.9102467    -0.9011871
  H       -2.6591200    -1.9761140     0.2538760
  H       -3.6887270    -0.5571790     0.5306310
units angstrom
no_reorient  #important for SAPT in psi4, default
symmetry c1  #important for SAPT in psi4, default
}

set PROPERTIES_ORIGIN ["COM"]
properties('MP2/aug-cc-pvtz', properties = ['dipole'])
--------------------------------------------------------------------------

    Molecular point group: c1
  Charge       = -1
  Multiplicity = 1
  Basis Set: AUG-CC-PVTZ
    Blend: AUG-CC-PVTZ
  Basis Set: (AUG-CC-PVTZ AUX)
    Blend: AUG-CC-PVTZ-JKFIT

    Orbital Energies [Eh]
    ---------------------

    Doubly Occupied:

       1A    -91.999530     2A    -20.341194     3A    -20.340843
       4A    -20.340388     5A    -11.102023     6A    -11.097852
       7A    -11.084422     8A    -11.082056     9A     -8.961120
      10A     -6.646465    11A     -6.646000    12A     -6.645970
      13A     -1.257852    14A     -1.114927    15A     -1.114403
      16A     -0.971179    17A     -0.841317    18A     -0.815447
      19A     -0.671379    20A     -0.608886    21A     -0.525004
      22A     -0.495193    23A     -0.484657    24A     -0.466037
      25A     -0.447260    26A     -0.441173    27A     -0.432161
      28A     -0.401484    29A     -0.367231    30A     -0.348894
      31A     -0.341944    32A     -0.320216    33A     -0.320054
      34A     -0.277534    35A     -0.275554    36A     -0.248295
      37A     -0.239794

  @DF-RHF Final Energy:  -778.98095435348671

   => Energetics <=

    Nuclear Repulsion Energy =            517.8203532807159490
    One-Electron Energy =               -2113.3711360844622504
    Two-Electron Energy =                 816.5698284502594788
    Total Energy =                       -778.9809543534867089
  Basis Set: (AUG-CC-PVTZ AUX)
    Blend: AUG-CC-PVTZ-RI
    Molecular point group: c1

    Geometry (in Angstrom), charge = -1, multiplicity = 1:

       Center              X                  Y                   Z               Mass
    ------------   -----------------  -----------------  -----------------  -----------------
         S            1.108285797786    -0.023716346984     0.017507316270    31.972071174400
         O            1.099899797786    -0.286010346984     1.484685316270    15.994914619570
         O            2.070506797786    -0.854010346984    -0.755572683730    15.994914619570
         O            1.130351797786     1.424005653016    -0.342383683730    15.994914619570
         C           -1.705736202214    -0.083911346984     0.231511316270    12.000000000000
         C           -0.507281202214    -0.636908346984    -0.536265683730    12.000000000000
         C           -1.979198202214     1.383189653016    -0.094704683730    12.000000000000
         C           -2.947518202214    -0.933821346984    -0.041490683730    12.000000000000
         H           -1.453898202214    -0.163339346984     1.296092316270     1.007825032230
         H           -0.590052202214    -0.418770346984    -1.608148683730     1.007825032230
         H           -0.452792202214    -1.724698346984    -0.415774683730     1.007825032230
         H           -2.266421202214     1.486476653016    -1.149159683730     1.007825032230
         H           -1.082560202214     1.981684653016     0.070529316270     1.007825032230
         H           -2.803331202214     1.770090653016     0.517741316270     1.007825032230
         H           -3.156056302214    -0.913731046984    -0.913638783730     1.007825032230
         H           -2.784461202214    -1.979598346984     0.241424316270     1.007825032230
         H           -3.814068202214    -0.560663346984     0.518179316270     1.007825032230

  Basis Set: AUG-CC-PVTZ
    Blend: AUG-CC-PVTZ
  Basis Set: (AUG-CC-PVTZ AUX)
    Blend: AUG-CC-PVTZ-JKFIT
	 Reference Energy          =    -778.9809543534867089 [Eh]
	 Singles Energy            =      -0.0000000000000000 [Eh]
	 Same-Spin Energy          =      -0.4487833661052820 [Eh]
	 Opposite-Spin Energy      =      -1.3742017641020468 [Eh]
	 Correlation Energy        =      -1.8229851302073288 [Eh]
	 Total Energy              =    -780.8039394836940801 [Eh]

	 ================> DF-SCS-MP2 Energies <==================
	-----------------------------------------------------------
	 SCS Same-Spin Scale       =       0.3333333333333333 [-]
	 SCS Opposite-Spin Scale   =       1.2000000000000000 [-]
	 SCS Same-Spin Energy      =      -0.1495944553684273 [Eh]
	 SCS Opposite-Spin Energy  =      -1.6490421169224561 [Eh]
	 SCS Correlation Energy    =      -1.7986365722908835 [Eh]
	 SCS Total Energy          =    -780.7795909257775975 [Eh]
	-----------------------------------------------------------

  Dipole Moment: [D]
     X:    -6.9140      Y:    -0.8518      Z:    -0.8966     Total:     7.0237

*** Psi4 exiting successfully. Buy a developer a beer!
