                               Psi4 1.4a3.dev225

  ==> Input File <==

--------------------------------------------------------------------------
#psi4
#
memory 32 gb

molecule  {
-1 1
  S        1.2336270    -0.0202320     0.0299590
  O        1.2252410    -0.2825260     1.4971370
  O        2.1958480    -0.8505260    -0.7431210
  O        1.2556930     1.4274900    -0.3299320
  C       -1.5803950    -0.0804270     0.2439630
  C       -0.3819400    -0.6334240    -0.5238140
  C       -1.8538570     1.3866740    -0.0822530
  C       -2.8221770    -0.9303370    -0.0290390
  H       -1.3285570    -0.1598550     1.3085440
  H       -0.4647110    -0.4152860    -1.5956970
  H       -0.3274510    -1.7212140    -0.4033230
  H       -2.1410800     1.4899610    -1.1367080
  H       -1.1216458     1.8754161     0.0526801
  H       -2.6779900     1.7735750     0.5301930
  H       -3.0772140    -0.9057670    -1.0956550
  H       -2.6591200    -1.9761140     0.2538760
  H       -3.6887270    -0.5571790     0.5306310
units angstrom
no_reorient  #important for SAPT in psi4, default
symmetry c1  #important for SAPT in psi4, default
}

set PROPERTIES_ORIGIN ["COM"]
properties('MP2/aug-cc-pvtz', properties = ['dipole'])
--------------------------------------------------------------------------

    Molecular point group: c1
  Charge       = -1
  Multiplicity = 1
  Basis Set: AUG-CC-PVTZ
    Blend: AUG-CC-PVTZ
  Basis Set: (AUG-CC-PVTZ AUX)
    Blend: AUG-CC-PVTZ-JKFIT

    Orbital Energies [Eh]
    ---------------------

    Doubly Occupied:

       1A    -91.999512     2A    -20.341377     3A    -20.340914
       4A    -20.340392     5A    -11.107739     6A    -11.103660
       7A    -11.098131     8A    -11.063804     9A     -8.961103
      10A     -6.646449    11A     -6.645978    12A     -6.645956
      13A     -1.257810    14A     -1.115051    15A     -1.114091
      16A     -0.970054    17A     -0.833703    18A     -0.825612
      19A     -0.669591    20A     -0.608586    21A     -0.527002
      22A     -0.497866    23A     -0.490700    24A     -0.461782
      25A     -0.448439    26A     -0.441068    27A     -0.422590
      28A     -0.404005    29A     -0.380471    30A     -0.350984
      31A     -0.340624    32A     -0.321102    33A     -0.320049
      34A     -0.277645    35A     -0.276603    36A     -0.248858
      37A     -0.240009

  @DF-RHF Final Energy:  -778.98018942509100

   => Energetics <=

    Nuclear Repulsion Energy =            517.5989340322374801
    One-Electron Energy =               -2112.8796263345434454
    Two-Electron Energy =                 816.3005028772148535
    Total Energy =                       -778.9801894250909982
  Basis Set: (AUG-CC-PVTZ AUX)
    Blend: AUG-CC-PVTZ-RI
    Molecular point group: c1

    Geometry (in Angstrom), charge = -1, multiplicity = 1:

       Center              X                  Y                   Z               Mass
    ------------   -----------------  -----------------  -----------------  -----------------
         S            1.109837140423    -0.022942070527     0.019160473865    31.972071174400
         O            1.101451140423    -0.285236070527     1.486338473865    15.994914619570
         O            2.072058140423    -0.853236070527    -0.753919526135    15.994914619570
         O            1.131903140423     1.424779929473    -0.340730526135    15.994914619570
         C           -1.704184859577    -0.083137070527     0.233164473865    12.000000000000
         C           -0.505729859577    -0.636134070527    -0.534612526135    12.000000000000
         C           -1.977646859577     1.383963929473    -0.093051526135    12.000000000000
         C           -2.945966859577    -0.933047070527    -0.039837526135    12.000000000000
         H           -1.452346859577    -0.162565070527     1.297745473865     1.007825032230
         H           -0.588500859577    -0.417996070527    -1.606495526135     1.007825032230
         H           -0.451240859577    -1.723924070527    -0.414121526135     1.007825032230
         H           -2.264869859577     1.487250929473    -1.147506526135     1.007825032230
         H           -1.245435659577     1.872706029473     0.041881573865     1.007825032230
         H           -2.801779859577     1.770864929473     0.519394473865     1.007825032230
         H           -3.201003859577    -0.908477070527    -1.106453526135     1.007825032230
         H           -2.782909859577    -1.978824070527     0.243077473865     1.007825032230
         H           -3.812516859577    -0.559889070527     0.519832473865     1.007825032230

  Basis Set: AUG-CC-PVTZ
    Blend: AUG-CC-PVTZ
  Basis Set: (AUG-CC-PVTZ AUX)
    Blend: AUG-CC-PVTZ-JKFIT
	 Reference Energy          =    -778.9801894250909982 [Eh]
	 Singles Energy            =      -0.0000000000000000 [Eh]
	 Same-Spin Energy          =      -0.4482894784291285 [Eh]
	 Opposite-Spin Energy      =      -1.3737183102573509 [Eh]
	 Correlation Energy        =      -1.8220077886864794 [Eh]
	 Total Energy              =    -780.8021972137775037 [Eh]

	 ================> DF-SCS-MP2 Energies <==================
	-----------------------------------------------------------
	 SCS Same-Spin Scale       =       0.3333333333333333 [-]
	 SCS Opposite-Spin Scale   =       1.2000000000000000 [-]
	 SCS Same-Spin Energy      =      -0.1494298261430428 [Eh]
	 SCS Opposite-Spin Energy  =      -1.6484619723088210 [Eh]
	 SCS Correlation Energy    =      -1.7978917984518639 [Eh]
	 SCS Total Energy          =    -780.7780812235428129 [Eh]
	-----------------------------------------------------------

  Dipole Moment: [D]
     X:    -6.9178      Y:    -0.7812      Z:    -0.7866     Total:     7.0060

*** Psi4 exiting successfully. Buy a developer a beer!
