                               Psi4 1.4a3.dev225

  ==> Input File <==

--------------------------------------------------------------------------
#psi4
#
memory 32 gb

molecule  {
-1 1
  S        1.2336270    -0.0202320     0.0299590
  O        1.2989836    -0.3541270     1.4810697
  O        2.1958480    -0.8505260    -0.7431210
  O        1.2556930     1.4274900    -0.3299320
  C       -1.5803950    -0.0804270     0.2439630
  C       -0.3819400    -0.6334240    -0.5238140
  C       -1.8538570     1.3866740    -0.0822530
  C       -2.8221770    -0.9303370    -0.0290390
  H       -1.3285570    -0.1598550     1.3085440
  H       -0.4647110    -0.4152860    -1.5956970
  H       -0.3274510    -1.7212140    -0.4033230
  H       -2.1410800     1.4899610    -1.1367080
  H       -0.9572190     1.9851690     0.0829810
  H       -2.6779900     1.7735750     0.5301930
  H       -3.0772140    -0.9057670    -1.0956550
  H       -2.6591200    -1.9761140     0.2538760
  H       -3.6887270    -0.5571790     0.5306310
units angstrom
no_reorient  #important for SAPT in psi4, default
symmetry c1  #important for SAPT in psi4, default
}

set PROPERTIES_ORIGIN ["COM"]
properties('MP2/aug-cc-pvtz', properties = ['dipole'])
--------------------------------------------------------------------------

    Molecular point group: c1
  Charge       = -1
  Multiplicity = 1
  Basis Set: AUG-CC-PVTZ
    Blend: AUG-CC-PVTZ
  Basis Set: (AUG-CC-PVTZ AUX)
    Blend: AUG-CC-PVTZ-JKFIT

    Orbital Energies [Eh]
    ---------------------

    Doubly Occupied:

       1A    -91.999125     2A    -20.345251     3A    -20.340754
       4A    -20.333386     5A    -11.109727     6A    -11.106524
       7A    -11.100289     8A    -11.086591     9A     -8.960794
      10A     -6.646126    11A     -6.645730    12A     -6.645574
      13A     -1.257523    14A     -1.118841    15A     -1.107833
      16A     -0.968346    17A     -0.828304    18A     -0.812534
      19A     -0.665492    20A     -0.609265    21A     -0.521637
      22A     -0.491944    23A     -0.484249    24A     -0.461078
      25A     -0.444437    26A     -0.437871    27A     -0.422299
      28A     -0.403638    29A     -0.369752    30A     -0.351651
      31A     -0.343036    32A     -0.321421    33A     -0.317741
      34A     -0.278719    35A     -0.272427    36A     -0.249641
      37A     -0.237753

  @DF-RHF Final Energy:  -779.01354543804837

   => Energetics <=

    Nuclear Repulsion Energy =            516.3337352909471747
    One-Electron Energy =               -2110.4999532513834311
    Two-Electron Energy =                 815.1526725223880021
    Total Energy =                       -779.0135454380483679
  Basis Set: (AUG-CC-PVTZ AUX)
    Blend: AUG-CC-PVTZ-RI
    Molecular point group: c1

    Geometry (in Angstrom), charge = -1, multiplicity = 1:

       Center              X                  Y                   Z               Mass
    ------------   -----------------  -----------------  -----------------  -----------------
         S            1.100019968067    -0.015391453881     0.020813116695    31.972071174400
         O            1.165376568067    -0.349286453881     1.471923816695    15.994914619570
         O            2.062240968067    -0.845685453881    -0.752266883305    15.994914619570
         O            1.122085968067     1.432330546119    -0.339077883305    15.994914619570
         C           -1.714002031933    -0.075586453881     0.234817116695    12.000000000000
         C           -0.515547031933    -0.628583453881    -0.532959883305    12.000000000000
         C           -1.987464031933     1.391514546119    -0.091398883305    12.000000000000
         C           -2.955784031933    -0.925496453881    -0.038184883305    12.000000000000
         H           -1.462164031933    -0.155014453881     1.299398116695     1.007825032230
         H           -0.598318031933    -0.410445453881    -1.604842883305     1.007825032230
         H           -0.461058031933    -1.716373453881    -0.412468883305     1.007825032230
         H           -2.274687031933     1.494801546119    -1.145853883305     1.007825032230
         H           -1.090826031933     1.990009546119     0.073835116695     1.007825032230
         H           -2.811597031933     1.778415546119     0.521047116695     1.007825032230
         H           -3.210821031933    -0.900926453881    -1.104800883305     1.007825032230
         H           -2.792727031933    -1.971273453881     0.244730116695     1.007825032230
         H           -3.822334031933    -0.552338453881     0.521485116695     1.007825032230

  Basis Set: AUG-CC-PVTZ
    Blend: AUG-CC-PVTZ
  Basis Set: (AUG-CC-PVTZ AUX)
    Blend: AUG-CC-PVTZ-JKFIT
	 Reference Energy          =    -779.0135454380483679 [Eh]
	 Singles Energy            =      -0.0000000000000000 [Eh]
	 Same-Spin Energy          =      -0.4485297266458471 [Eh]
	 Opposite-Spin Energy      =      -1.3745873398558595 [Eh]
	 Correlation Energy        =      -1.8231170665017065 [Eh]
	 Total Energy              =    -780.8366625045500768 [Eh]

	 ================> DF-SCS-MP2 Energies <==================
	-----------------------------------------------------------
	 SCS Same-Spin Scale       =       0.3333333333333333 [-]
	 SCS Opposite-Spin Scale   =       1.2000000000000000 [-]
	 SCS Same-Spin Energy      =      -0.1495099088819490 [Eh]
	 SCS Opposite-Spin Energy  =      -1.6495048078270313 [Eh]
	 SCS Correlation Energy    =      -1.7990147167089803 [Eh]
	 SCS Total Energy          =    -780.8125601547573069 [Eh]
	-----------------------------------------------------------

  Dipole Moment: [D]
     X:    -7.0690      Y:    -0.6588      Z:    -0.7691     Total:     7.1412

*** Psi4 exiting successfully. Buy a developer a beer!
