                               Psi4 1.4a3.dev225

  ==> Input File <==

--------------------------------------------------------------------------
#psi4
#
memory 32 gb

molecule  {
-1 1
  S        1.2336270    -0.0202320     0.0299590
  O        1.2252410    -0.2825260     1.4971370
  O        2.1958480    -0.8505260    -0.7431210
  O        1.2556930     1.4274900    -0.3299320
  C       -1.5803950    -0.0804270     0.2439630
  C       -0.3819400    -0.6334240    -0.5238140
  C       -1.8538570     1.3866740    -0.0822530
  C       -2.8221770    -0.9303370    -0.0290390
  H       -1.3285570    -0.1598550     1.3085440
  H       -0.4647110    -0.4152860    -1.5956970
  H       -0.3274510    -1.7212140    -0.4033230
  H       -2.1410800     1.4899610    -1.1367080
  H       -0.9161123     2.0126072     0.0905562
  H       -2.6779900     1.7735750     0.5301930
  H       -3.0772140    -0.9057670    -1.0956550
  H       -2.6591200    -1.9761140     0.2538760
  H       -3.6887270    -0.5571790     0.5306310
units angstrom
no_reorient  #important for SAPT in psi4, default
symmetry c1  #important for SAPT in psi4, default
}

set PROPERTIES_ORIGIN ["COM"]
properties('MP2/aug-cc-pvtz', properties = ['dipole'])
--------------------------------------------------------------------------

    Molecular point group: c1
  Charge       = -1
  Multiplicity = 1
  Basis Set: AUG-CC-PVTZ
    Blend: AUG-CC-PVTZ
  Basis Set: (AUG-CC-PVTZ AUX)
    Blend: AUG-CC-PVTZ-JKFIT

    Orbital Energies [Eh]
    ---------------------

    Doubly Occupied:

       1A    -92.000014     2A    -20.341722     3A    -20.341280
       4A    -20.340811     5A    -11.108573     6A    -11.104581
       7A    -11.098387     8A    -11.089604     9A     -8.961605
      10A     -6.646948    11A     -6.646487    12A     -6.646457
      13A     -1.258365    14A     -1.115423    15A     -1.114959
      16A     -0.965947    17A     -0.826798    18A     -0.807171
      19A     -0.663386    20A     -0.608220    21A     -0.520302
      22A     -0.491591    23A     -0.480766    24A     -0.460129
      25A     -0.446615    26A     -0.435034    27A     -0.420265
      28A     -0.402247    29A     -0.364527    30A     -0.349383
      31A     -0.340978    32A     -0.320576    33A     -0.320005
      34A     -0.278053    35A     -0.275506    36A     -0.248839
      37A     -0.240183

  @DF-RHF Final Energy:  -779.01218697157879

   => Energetics <=

    Nuclear Repulsion Energy =            516.6862122473465888
    One-Electron Energy =               -2111.2333260569430422
    Two-Electron Energy =                 815.5349268380175545
    Total Energy =                       -779.0121869715787852
  Basis Set: (AUG-CC-PVTZ AUX)
    Blend: AUG-CC-PVTZ-RI
    Molecular point group: c1

    Geometry (in Angstrom), charge = -1, multiplicity = 1:

       Center              X                  Y                   Z               Mass
    ------------   -----------------  -----------------  -----------------  -----------------
         S            1.108325457011    -0.023951100734     0.018881898002    31.972071174400
         O            1.099939457011    -0.286245100734     1.486059898002    15.994914619570
         O            2.070546457011    -0.854245100734    -0.754198101998    15.994914619570
         O            1.130391457011     1.423770899266    -0.341009101998    15.994914619570
         C           -1.705696542989    -0.084146100734     0.232885898002    12.000000000000
         C           -0.507241542989    -0.637143100734    -0.534891101998    12.000000000000
         C           -1.979158542989     1.382954899266    -0.093330101998    12.000000000000
         C           -2.947478542989    -0.934056100734    -0.040116101998    12.000000000000
         H           -1.453858542989    -0.163574100734     1.297466898002     1.007825032230
         H           -0.590012542989    -0.419005100734    -1.606774101998     1.007825032230
         H           -0.452752542989    -1.724933100734    -0.414400101998     1.007825032230
         H           -2.266381542989     1.486241899266    -1.147785101998     1.007825032230
         H           -1.041413842989     2.008888099266     0.079479098002     1.007825032230
         H           -2.803291542989     1.769855899266     0.519115898002     1.007825032230
         H           -3.202515542989    -0.909486100734    -1.106732101998     1.007825032230
         H           -2.784421542989    -1.979833100734     0.242798898002     1.007825032230
         H           -3.814028542989    -0.560898100734     0.519553898002     1.007825032230

  Basis Set: AUG-CC-PVTZ
    Blend: AUG-CC-PVTZ
  Basis Set: (AUG-CC-PVTZ AUX)
    Blend: AUG-CC-PVTZ-JKFIT
	 Reference Energy          =    -779.0121869715787852 [Eh]
	 Singles Energy            =      -0.0000000000000000 [Eh]
	 Same-Spin Energy          =      -0.4488028150582158 [Eh]
	 Opposite-Spin Energy      =      -1.3752194636419481 [Eh]
	 Correlation Energy        =      -1.8240222787001641 [Eh]
	 Total Energy              =    -780.8362092502788983 [Eh]

	 ================> DF-SCS-MP2 Energies <==================
	-----------------------------------------------------------
	 SCS Same-Spin Scale       =       0.3333333333333333 [-]
	 SCS Opposite-Spin Scale   =       1.2000000000000000 [-]
	 SCS Same-Spin Energy      =      -0.1496009383527386 [Eh]
	 SCS Opposite-Spin Energy  =      -1.6502633563703377 [Eh]
	 SCS Correlation Energy    =      -1.7998642947230763 [Eh]
	 SCS Total Energy          =    -780.8120512663018644 [Eh]
	-----------------------------------------------------------

  Dipole Moment: [D]
     X:    -6.8271      Y:    -0.8500      Z:    -0.7921     Total:     6.9252

*** Psi4 exiting successfully. Buy a developer a beer!
