                               Psi4 1.4a3.dev225

  ==> Input File <==

--------------------------------------------------------------------------
#psi4
#
memory 32 gb

molecule  {
-1 1
  S        1.2336270    -0.0202320     0.0299590
  O        1.2252410    -0.2825260     1.4971370
  O        2.1958480    -0.8505260    -0.7431210
  O        1.2556930     1.4274900    -0.3299320
  C       -1.5803950    -0.0804270     0.2439630
  C       -0.3819400    -0.6334240    -0.5238140
  C       -1.8538570     1.3866740    -0.0822530
  C       -2.8221770    -0.9303370    -0.0290390
  H       -1.3285570    -0.1598550     1.3085440
  H       -0.4647110    -0.4152860    -1.5956970
  H       -0.3274510    -1.7212140    -0.4033230
  H       -2.1410800     1.4899610    -1.1367080
  H       -0.9572190     1.9851690     0.0829810
  H       -2.6779900     1.7735750     0.5301930
  H       -3.0772140    -0.9057670    -1.0956550
  H       -2.6561433    -1.9952050     0.2590407
  H       -3.6887270    -0.5571790     0.5306310
units angstrom
no_reorient  #important for SAPT in psi4, default
symmetry c1  #important for SAPT in psi4, default
}

set PROPERTIES_ORIGIN ["COM"]
properties('MP2/aug-cc-pvtz', properties = ['dipole'])
--------------------------------------------------------------------------

    Molecular point group: c1
  Charge       = -1
  Multiplicity = 1
  Basis Set: AUG-CC-PVTZ
    Blend: AUG-CC-PVTZ
  Basis Set: (AUG-CC-PVTZ AUX)
    Blend: AUG-CC-PVTZ-JKFIT

    Orbital Energies [Eh]
    ---------------------

    Doubly Occupied:

       1A    -91.999914     2A    -20.341665     3A    -20.341200
       4A    -20.340729     5A    -11.110890     6A    -11.104593
       7A    -11.098329     8A    -11.085030     9A     -8.961506
      10A     -6.646850    11A     -6.646386    12A     -6.646358
      13A     -1.258257    14A     -1.115355    15A     -1.114778
      16A     -0.966247    17A     -0.826161    18A     -0.810060
      19A     -0.664097    20A     -0.608261    21A     -0.520574
      22A     -0.491303    23A     -0.482237    24A     -0.459731
      25A     -0.446674    26A     -0.436584    27A     -0.420786
      28A     -0.401876    29A     -0.368455    30A     -0.349768
      31A     -0.340876    32A     -0.320491    33A     -0.320479
      34A     -0.277976    35A     -0.275943    36A     -0.248902
      37A     -0.240205

  @DF-RHF Final Energy:  -779.01399709584143

   => Energetics <=

    Nuclear Repulsion Energy =            516.7549578104753891
    One-Electron Energy =               -2111.3588558405513140
    Two-Electron Energy =                 815.5899009342344925
    Total Energy =                       -779.0139970958414324
  Basis Set: (AUG-CC-PVTZ AUX)
    Blend: AUG-CC-PVTZ-RI
    Molecular point group: c1

    Geometry (in Angstrom), charge = -1, multiplicity = 1:

       Center              X                  Y                   Z               Mass
    ------------   -----------------  -----------------  -----------------  -----------------
         S            1.108605900289    -0.023608881973     0.018899627048    31.972071174400
         O            1.100219900289    -0.285902881973     1.486077627048    15.994914619570
         O            2.070826900289    -0.853902881973    -0.754180372952    15.994914619570
         O            1.130671900289     1.424113118027    -0.340991372952    15.994914619570
         C           -1.705416099711    -0.083803881973     0.232903627048    12.000000000000
         C           -0.506961099711    -0.636800881973    -0.534873372952    12.000000000000
         C           -1.978878099711     1.383297118027    -0.093312372952    12.000000000000
         C           -2.947198099711    -0.933713881973    -0.040098372952    12.000000000000
         H           -1.453578099711    -0.163231881973     1.297484627048     1.007825032230
         H           -0.589732099711    -0.418662881973    -1.606756372952     1.007825032230
         H           -0.452472099711    -1.724590881973    -0.414382372952     1.007825032230
         H           -2.266101099711     1.486584118027    -1.147767372952     1.007825032230
         H           -1.082240099711     1.981792118027     0.071921627048     1.007825032230
         H           -2.803011099711     1.770198118027     0.519133627048     1.007825032230
         H           -3.202235099711    -0.909143881973    -1.106714372952     1.007825032230
         H           -2.781164399711    -1.998581881973     0.247981327048     1.007825032230
         H           -3.813748099711    -0.560555881973     0.519571627048     1.007825032230

  Basis Set: AUG-CC-PVTZ
    Blend: AUG-CC-PVTZ
  Basis Set: (AUG-CC-PVTZ AUX)
    Blend: AUG-CC-PVTZ-JKFIT
	 Reference Energy          =    -779.0139970958414324 [Eh]
	 Singles Energy            =      -0.0000000000000000 [Eh]
	 Same-Spin Energy          =      -0.4486458625679701 [Eh]
	 Opposite-Spin Energy      =      -1.3748644507322541 [Eh]
	 Correlation Energy        =      -1.8235103133002242 [Eh]
	 Total Energy              =    -780.8375074091416082 [Eh]

	 ================> DF-SCS-MP2 Energies <==================
	-----------------------------------------------------------
	 SCS Same-Spin Scale       =       0.3333333333333333 [-]
	 SCS Opposite-Spin Scale   =       1.2000000000000000 [-]
	 SCS Same-Spin Energy      =      -0.1495486208559900 [Eh]
	 SCS Opposite-Spin Energy  =      -1.6498373408787048 [Eh]
	 SCS Correlation Energy    =      -1.7993859617346948 [Eh]
	 SCS Total Energy          =    -780.8133830575761749 [Eh]
	-----------------------------------------------------------

  Dipole Moment: [D]
     X:    -6.8443      Y:    -0.8136      Z:    -0.7930     Total:     6.9380

*** Psi4 exiting successfully. Buy a developer a beer!
