                               Psi4 1.4a3.dev225

  ==> Input File <==

--------------------------------------------------------------------------
#psi4
#
memory 32 gb

molecule  {
-1 1
  S        1.2336270    -0.0202320     0.0299590
  O        1.2252410    -0.2825260     1.4971370
  O        2.1958480    -0.8505260    -0.7431210
  O        1.2556930     1.4274900    -0.3299320
  C       -1.5803950    -0.0804270     0.2439630
  C       -0.3819400    -0.6334240    -0.5238140
  C       -1.8538570     1.3866740    -0.0822530
  C       -2.8221770    -0.9303370    -0.0290390
  H       -1.3285570    -0.1598550     1.3085440
  H       -0.4798017    -0.3755154    -1.7911211
  H       -0.3274510    -1.7212140    -0.4033230
  H       -2.1410800     1.4899610    -1.1367080
  H       -0.9572190     1.9851690     0.0829810
  H       -2.6779900     1.7735750     0.5301930
  H       -3.0772140    -0.9057670    -1.0956550
  H       -2.6591200    -1.9761140     0.2538760
  H       -3.6887270    -0.5571790     0.5306310
units angstrom
no_reorient  #important for SAPT in psi4, default
symmetry c1  #important for SAPT in psi4, default
}

set PROPERTIES_ORIGIN ["COM"]
properties('MP2/aug-cc-pvtz', properties = ['dipole'])
--------------------------------------------------------------------------

    Molecular point group: c1
  Charge       = -1
  Multiplicity = 1
  Basis Set: AUG-CC-PVTZ
    Blend: AUG-CC-PVTZ
  Basis Set: (AUG-CC-PVTZ AUX)
    Blend: AUG-CC-PVTZ-JKFIT

    Orbital Energies [Eh]
    ---------------------

    Doubly Occupied:

       1A    -92.002088     2A    -20.344509     3A    -20.341557
       4A    -20.341251     5A    -11.120762     6A    -11.108675
       7A    -11.106862     8A    -11.084961     9A     -8.963523
      10A     -6.648920    11A     -6.648387    12A     -6.648377
      13A     -1.259431    14A     -1.117061    15A     -1.115260
      16A     -0.965418    17A     -0.819837    18A     -0.809964
      19A     -0.664680    20A     -0.601084    21A     -0.519184
      22A     -0.492509    23A     -0.481922    24A     -0.457883
      25A     -0.447141    26A     -0.428514    27A     -0.420828
      28A     -0.390403    29A     -0.369802    30A     -0.351488
      31A     -0.333443    32A     -0.321326    33A     -0.321040
      34A     -0.277836    35A     -0.275754    36A     -0.250748
      37A     -0.241286

  @DF-RHF Final Energy:  -778.99434334597026

   => Energetics <=

    Nuclear Repulsion Energy =            515.8282159259006221
    One-Electron Energy =               -2109.4576940822471443
    Two-Electron Energy =                 814.6351348103762575
    Total Energy =                       -778.9943433459702646
  Basis Set: (AUG-CC-PVTZ AUX)
    Blend: AUG-CC-PVTZ-RI
    Molecular point group: c1

    Geometry (in Angstrom), charge = -1, multiplicity = 1:

       Center              X                  Y                   Z               Mass
    ------------   -----------------  -----------------  -----------------  -----------------
         S            1.108738784655    -0.024041804608     0.020374942565    31.972071174400
         O            1.100352784655    -0.286335804608     1.487552942565    15.994914619570
         O            2.070959784655    -0.854335804608    -0.752705057435    15.994914619570
         O            1.130804784655     1.423680195392    -0.339516057435    15.994914619570
         C           -1.705283215345    -0.084236804608     0.234378942565    12.000000000000
         C           -0.506828215345    -0.637233804608    -0.533398057435    12.000000000000
         C           -1.978745215345     1.382864195392    -0.091837057435    12.000000000000
         C           -2.947065215345    -0.934146804608    -0.038623057435    12.000000000000
         H           -1.453445215345    -0.163664804608     1.298959942565     1.007825032230
         H           -0.604689915345    -0.379325204608    -1.800705157435     1.007825032230
         H           -0.452339215345    -1.725023804608    -0.412907057435     1.007825032230
         H           -2.265968215345     1.486151195392    -1.146292057435     1.007825032230
         H           -1.082107215345     1.981359195392     0.073396942565     1.007825032230
         H           -2.802878215345     1.769765195392     0.520608942565     1.007825032230
         H           -3.202102215345    -0.909576804608    -1.105239057435     1.007825032230
         H           -2.784008215345    -1.979923804608     0.244291942565     1.007825032230
         H           -3.813615215345    -0.560988804608     0.521046942565     1.007825032230

  Basis Set: AUG-CC-PVTZ
    Blend: AUG-CC-PVTZ
  Basis Set: (AUG-CC-PVTZ AUX)
    Blend: AUG-CC-PVTZ-JKFIT
	 Reference Energy          =    -778.9943433459702646 [Eh]
	 Singles Energy            =      -0.0000000000000000 [Eh]
	 Same-Spin Energy          =      -0.4489769732362851 [Eh]
	 Opposite-Spin Energy      =      -1.3766446356463660 [Eh]
	 Correlation Energy        =      -1.8256216088826511 [Eh]
	 Total Energy              =    -780.8199649548529351 [Eh]

	 ================> DF-SCS-MP2 Energies <==================
	-----------------------------------------------------------
	 SCS Same-Spin Scale       =       0.3333333333333333 [-]
	 SCS Opposite-Spin Scale   =       1.2000000000000000 [-]
	 SCS Same-Spin Energy      =      -0.1496589910787617 [Eh]
	 SCS Opposite-Spin Energy  =      -1.6519735627756391 [Eh]
	 SCS Correlation Energy    =      -1.8016325538544009 [Eh]
	 SCS Total Energy          =    -780.7959758998246116 [Eh]
	-----------------------------------------------------------

  Dipole Moment: [D]
     X:    -6.8013      Y:    -0.8189      Z:    -0.6244     Total:     6.8788

*** Psi4 exiting successfully. Buy a developer a beer!
