                               Psi4 1.4a3.dev225

  ==> Input File <==

--------------------------------------------------------------------------
#psi4
#
memory 32 gb

molecule  {
-1 1
  S        1.2336270    -0.0202320     0.0299590
  O        1.2252410    -0.2825260     1.4971370
  O        2.1958480    -0.8505260    -0.7431210
  O        1.2556930     1.4274900    -0.3299320
  C       -1.5803950    -0.0804270     0.2439630
  C       -0.3819400    -0.6334240    -0.5238140
  C       -1.8538570     1.3866740    -0.0822530
  C       -2.8221770    -0.9303370    -0.0290390
  H       -1.3285570    -0.1598550     1.3085440
  H       -0.4684837    -0.4053434    -1.6445530
  H       -0.3274510    -1.7212140    -0.4033230
  H       -2.1410800     1.4899610    -1.1367080
  H       -0.9572190     1.9851690     0.0829810
  H       -2.6779900     1.7735750     0.5301930
  H       -3.0772140    -0.9057670    -1.0956550
  H       -2.6591200    -1.9761140     0.2538760
  H       -3.6887270    -0.5571790     0.5306310
units angstrom
no_reorient  #important for SAPT in psi4, default
symmetry c1  #important for SAPT in psi4, default
}

set PROPERTIES_ORIGIN ["COM"]
properties('MP2/aug-cc-pvtz', properties = ['dipole'])
--------------------------------------------------------------------------

    Molecular point group: c1
  Charge       = -1
  Multiplicity = 1
  Basis Set: AUG-CC-PVTZ
    Blend: AUG-CC-PVTZ
  Basis Set: (AUG-CC-PVTZ AUX)
    Blend: AUG-CC-PVTZ-JKFIT

    Orbital Energies [Eh]
    ---------------------

    Doubly Occupied:

       1A    -92.000341     2A    -20.342251     3A    -20.341205
       4A    -20.340785     5A    -11.108397     6A    -11.104991
       7A    -11.104098     8A    -11.084790     9A     -8.961898
      10A     -6.647254    11A     -6.646773    12A     -6.646752
      13A     -1.258453    14A     -1.115671    15A     -1.114835
      16A     -0.965901    17A     -0.824201    18A     -0.810620
      19A     -0.664232    20A     -0.605856    21A     -0.520216
      22A     -0.491595    23A     -0.482597    24A     -0.459313
      25A     -0.446749    26A     -0.434032    27A     -0.420829
      28A     -0.400039    29A     -0.368701    30A     -0.350356
      31A     -0.339471    32A     -0.320649    33A     -0.320576
      34A     -0.277896    35A     -0.275919    36A     -0.249250
      37A     -0.240393

  @DF-RHF Final Energy:  -779.01230579031585

   => Energetics <=

    Nuclear Repulsion Energy =            516.5706426857241240
    One-Electron Energy =               -2110.9901242527139402
    Two-Electron Energy =                 815.4071757766739665
    Total Energy =                       -779.0123057903158497
  Basis Set: (AUG-CC-PVTZ AUX)
    Blend: AUG-CC-PVTZ-RI
    Molecular point group: c1

    Geometry (in Angstrom), charge = -1, multiplicity = 1:

       Center              X                  Y                   Z               Mass
    ------------   -----------------  -----------------  -----------------  -----------------
         S            1.108655541618    -0.023822421914     0.019296945228    31.972071174400
         O            1.100269541618    -0.286116421914     1.486474945228    15.994914619570
         O            2.070876541618    -0.854116421914    -0.753783054772    15.994914619570
         O            1.130721541618     1.423899578086    -0.340594054772    15.994914619570
         C           -1.705366458382    -0.084017421914     0.233300945228    12.000000000000
         C           -0.506911458382    -0.637014421914    -0.534476054772    12.000000000000
         C           -1.978828458382     1.383083578086    -0.092915054772    12.000000000000
         C           -2.947148458382    -0.933927421914    -0.039701054772    12.000000000000
         H           -1.453528458382    -0.163445421914     1.297881945228     1.007825032230
         H           -0.593455158382    -0.408933821914    -1.655215054772     1.007825032230
         H           -0.452422458382    -1.724804421914    -0.413985054772     1.007825032230
         H           -2.266051458382     1.486370578086    -1.147370054772     1.007825032230
         H           -1.082190458382     1.981578578086     0.072318945228     1.007825032230
         H           -2.802961458382     1.769984578086     0.519530945228     1.007825032230
         H           -3.202185458382    -0.909357421914    -1.106317054772     1.007825032230
         H           -2.784091458382    -1.979704421914     0.243213945228     1.007825032230
         H           -3.813698458382    -0.560769421914     0.519968945228     1.007825032230

  Basis Set: AUG-CC-PVTZ
    Blend: AUG-CC-PVTZ
  Basis Set: (AUG-CC-PVTZ AUX)
    Blend: AUG-CC-PVTZ-JKFIT
	 Reference Energy          =    -779.0123057903158497 [Eh]
	 Singles Energy            =      -0.0000000000000000 [Eh]
	 Same-Spin Energy          =      -0.4487257290261423 [Eh]
	 Opposite-Spin Energy      =      -1.3751380025160997 [Eh]
	 Correlation Energy        =      -1.8238637315422421 [Eh]
	 Total Energy              =    -780.8361695218580962 [Eh]

	 ================> DF-SCS-MP2 Energies <==================
	-----------------------------------------------------------
	 SCS Same-Spin Scale       =       0.3333333333333333 [-]
	 SCS Opposite-Spin Scale   =       1.2000000000000000 [-]
	 SCS Same-Spin Energy      =      -0.1495752430087141 [Eh]
	 SCS Opposite-Spin Energy  =      -1.6501656030193197 [Eh]
	 SCS Correlation Energy    =      -1.7997408460280337 [Eh]
	 SCS Total Energy          =    -780.8120466363438936 [Eh]
	-----------------------------------------------------------

  Dipole Moment: [D]
     X:    -6.8377      Y:    -0.8284      Z:    -0.7562     Total:     6.9291

*** Psi4 exiting successfully. Buy a developer a beer!
