                               Psi4 1.4a3.dev225

  ==> Input File <==

--------------------------------------------------------------------------
#psi4
#
memory 32 gb

molecule  {
-1 1
  S        1.2336270    -0.0202320     0.0299590
  O        1.2252410    -0.2825260     1.4971370
  O        2.1958480    -0.8505260    -0.7431210
  O        1.2556930     1.4274900    -0.3299320
  C       -1.5803950    -0.0804270     0.2439630
  C       -0.3819400    -0.6334240    -0.5238140
  C       -1.8538570     1.3866740    -0.0822530
  C       -2.8221770    -0.9303370    -0.0290390
  H       -1.3285570    -0.1598550     1.3085440
  H       -0.4647110    -0.4152860    -1.5956970
  H       -0.3274510    -1.7212140    -0.4033230
  H       -2.1410800     1.4899610    -1.1367080
  H       -0.9572190     1.9851690     0.0829810
  H       -2.6779900     1.7735750     0.5301930
  H       -3.0772140    -0.9057670    -1.0956550
  H       -2.6441851    -1.9768348     0.2419577
  H       -3.6887270    -0.5571790     0.5306310
units angstrom
no_reorient  #important for SAPT in psi4, default
symmetry c1  #important for SAPT in psi4, default
}

set PROPERTIES_ORIGIN ["COM"]
properties('MP2/aug-cc-pvtz', properties = ['dipole'])
--------------------------------------------------------------------------

    Molecular point group: c1
  Charge       = -1
  Multiplicity = 1
  Basis Set: AUG-CC-PVTZ
    Blend: AUG-CC-PVTZ
  Basis Set: (AUG-CC-PVTZ AUX)
    Blend: AUG-CC-PVTZ-JKFIT

    Orbital Energies [Eh]
    ---------------------

    Doubly Occupied:

       1A    -91.999911     2A    -20.341653     3A    -20.341175
       4A    -20.340724     5A    -11.108329     6A    -11.104220
       7A    -11.098340     8A    -11.084698     9A     -8.961501
      10A     -6.646846    11A     -6.646381    12A     -6.646353
      13A     -1.258243    14A     -1.115348    15A     -1.114755
      16A     -0.966453    17A     -0.826643    18A     -0.810844
      19A     -0.664160    20A     -0.608265    21A     -0.520482
      22A     -0.491916    23A     -0.483492    24A     -0.460176
      25A     -0.446937    26A     -0.436457    27A     -0.420459
      28A     -0.403079    29A     -0.368149    30A     -0.350009
      31A     -0.340716    32A     -0.320460    33A     -0.320448
      34A     -0.277967    35A     -0.275921    36A     -0.248872
      37A     -0.240186

  @DF-RHF Final Energy:  -779.01444404297297

   => Energetics <=

    Nuclear Repulsion Energy =            516.8660644292596089
    One-Electron Energy =               -2111.5798855976486266
    Two-Electron Energy =                 815.6993771254161629
    Total Energy =                       -779.0144440429729684
  Basis Set: (AUG-CC-PVTZ AUX)
    Blend: AUG-CC-PVTZ-RI
    Molecular point group: c1

    Geometry (in Angstrom), charge = -1, multiplicity = 1:

       Center              X                  Y                   Z               Mass
    ------------   -----------------  -----------------  -----------------  -----------------
         S            1.108517948629    -0.023743993410     0.019025271227    31.972071174400
         O            1.100131948629    -0.286037993410     1.486203271227    15.994914619570
         O            2.070738948629    -0.854037993410    -0.754054728773    15.994914619570
         O            1.130583948629     1.423978006590    -0.340865728773    15.994914619570
         C           -1.705504051371    -0.083938993410     0.233029271227    12.000000000000
         C           -0.507049051371    -0.636935993410    -0.534747728773    12.000000000000
         C           -1.978966051371     1.383162006590    -0.093186728773    12.000000000000
         C           -2.947286051371    -0.933848993410    -0.039972728773    12.000000000000
         H           -1.453666051371    -0.163366993410     1.297610271227     1.007825032230
         H           -0.589820051371    -0.418797993410    -1.606630728773     1.007825032230
         H           -0.452560051371    -1.724725993410    -0.414256728773     1.007825032230
         H           -2.266189051371     1.486449006590    -1.147641728773     1.007825032230
         H           -1.082328051371     1.981657006590     0.072047271227     1.007825032230
         H           -2.803099051371     1.770063006590     0.519259271227     1.007825032230
         H           -3.202323051371    -0.909278993410    -1.106588728773     1.007825032230
         H           -2.769294151371    -1.980346793410     0.231023971227     1.007825032230
         H           -3.813836051371    -0.560690993410     0.519697271227     1.007825032230

  Basis Set: AUG-CC-PVTZ
    Blend: AUG-CC-PVTZ
  Basis Set: (AUG-CC-PVTZ AUX)
    Blend: AUG-CC-PVTZ-JKFIT
	 Reference Energy          =    -779.0144440429729684 [Eh]
	 Singles Energy            =      -0.0000000000000000 [Eh]
	 Same-Spin Energy          =      -0.4486636526905273 [Eh]
	 Opposite-Spin Energy      =      -1.3747637928461272 [Eh]
	 Correlation Energy        =      -1.8234274455366544 [Eh]
	 Total Energy              =    -780.8378714885096770 [Eh]

	 ================> DF-SCS-MP2 Energies <==================
	-----------------------------------------------------------
	 SCS Same-Spin Scale       =       0.3333333333333333 [-]
	 SCS Opposite-Spin Scale   =       1.2000000000000000 [-]
	 SCS Same-Spin Energy      =      -0.1495545508968424 [Eh]
	 SCS Opposite-Spin Energy  =      -1.6497165514153525 [Eh]
	 SCS Correlation Energy    =      -1.7992711023121948 [Eh]
	 SCS Total Energy          =    -780.8137151452851867 [Eh]
	-----------------------------------------------------------

  Dipole Moment: [D]
     X:    -6.8435      Y:    -0.8300      Z:    -0.7940     Total:     6.9392

*** Psi4 exiting successfully. Buy a developer a beer!
