                               Psi4 1.4a3.dev225

  ==> Input File <==

--------------------------------------------------------------------------
#psi4
#
memory 32 gb

molecule  {
-1 1
  S        1.2336270    -0.0202320     0.0299590
  O        1.2252410    -0.2825260     1.4971370
  O        2.1958480    -0.8505260    -0.7431210
  O        1.2556930     1.4274900    -0.3299320
  C       -1.5803950    -0.0804270     0.2439630
  C       -0.3819400    -0.6334240    -0.5238140
  C       -1.8538570     1.3866740    -0.0822530
  C       -2.8221770    -0.9303370    -0.0290390
  H       -1.3285570    -0.1598550     1.3085440
  H       -0.4609383    -0.4252286    -1.5468410
  H       -0.3274510    -1.7212140    -0.4033230
  H       -2.1410800     1.4899610    -1.1367080
  H       -0.9572190     1.9851690     0.0829810
  H       -2.6779900     1.7735750     0.5301930
  H       -3.0772140    -0.9057670    -1.0956550
  H       -2.6591200    -1.9761140     0.2538760
  H       -3.6887270    -0.5571790     0.5306310
units angstrom
no_reorient  #important for SAPT in psi4, default
symmetry c1  #important for SAPT in psi4, default
}

set PROPERTIES_ORIGIN ["COM"]
properties('MP2/aug-cc-pvtz', properties = ['dipole'])
--------------------------------------------------------------------------

    Molecular point group: c1
  Charge       = -1
  Multiplicity = 1
  Basis Set: AUG-CC-PVTZ
    Blend: AUG-CC-PVTZ
  Basis Set: (AUG-CC-PVTZ AUX)
    Blend: AUG-CC-PVTZ-JKFIT

    Orbital Energies [Eh]
    ---------------------

    Doubly Occupied:

       1A    -91.999495     2A    -20.341151     3A    -20.341090
       4A    -20.340652     5A    -11.108306     6A    -11.103838
       7A    -11.092253     8A    -11.084756     9A     -8.961115
      10A     -6.646449    11A     -6.645999    12A     -6.645965
      13A     -1.258044    14A     -1.115073    15A     -1.114641
      16A     -0.967086    17A     -0.829866    18A     -0.811033
      19A     -0.664511    20A     -0.611007    21A     -0.521641
      22A     -0.491629    23A     -0.483801    24A     -0.461791
      25A     -0.446920    26A     -0.438651    27A     -0.420840
      28A     -0.404540    29A     -0.368184    30A     -0.349845
      31A     -0.341990    32A     -0.320344    33A     -0.320258
      34A     -0.278001    35A     -0.275886    36A     -0.248499
      37A     -0.239986

  @DF-RHF Final Energy:  -779.01366825644709

   => Energetics <=

    Nuclear Repulsion Energy =            517.1212015131344515
    One-Electron Energy =               -2112.0794707340355671
    Two-Electron Energy =                 815.9446009644539117
    Total Energy =                       -779.0136682564470902
  Basis Set: (AUG-CC-PVTZ AUX)
    Blend: AUG-CC-PVTZ-RI
    Molecular point group: c1

    Geometry (in Angstrom), charge = -1, multiplicity = 1:

       Center              X                  Y                   Z               Mass
    ------------   -----------------  -----------------  -----------------  -----------------
         S            1.108600045769    -0.023676167766     0.018578280827    31.972071174400
         O            1.100214045769    -0.285970167766     1.485756280827    15.994914619570
         O            2.070821045769    -0.853970167766    -0.754501719173    15.994914619570
         O            1.130666045769     1.424045832234    -0.341312719173    15.994914619570
         C           -1.705421954231    -0.083871167766     0.232582280827    12.000000000000
         C           -0.506966954231    -0.636868167766    -0.535194719173    12.000000000000
         C           -1.978883954231     1.383229832234    -0.093633719173    12.000000000000
         C           -2.947203954231    -0.933781167766    -0.040419719173    12.000000000000
         H           -1.453583954231    -0.163299167766     1.297163280827     1.007825032230
         H           -0.585965254231    -0.428672767766    -1.558221719173     1.007825032230
         H           -0.452477954231    -1.724658167766    -0.414703719173     1.007825032230
         H           -2.266106954231     1.486516832234    -1.148088719173     1.007825032230
         H           -1.082245954231     1.981724832234     0.071600280827     1.007825032230
         H           -2.803016954231     1.770130832234     0.518812280827     1.007825032230
         H           -3.202240954231    -0.909211167766    -1.107035719173     1.007825032230
         H           -2.784146954231    -1.979558167766     0.242495280827     1.007825032230
         H           -3.813753954231    -0.560623167766     0.519250280827     1.007825032230

  Basis Set: AUG-CC-PVTZ
    Blend: AUG-CC-PVTZ
  Basis Set: (AUG-CC-PVTZ AUX)
    Blend: AUG-CC-PVTZ-JKFIT
	 Reference Energy          =    -779.0136682564470902 [Eh]
	 Singles Energy            =      -0.0000000000000000 [Eh]
	 Same-Spin Energy          =      -0.4485831669789353 [Eh]
	 Opposite-Spin Energy      =      -1.3744130633837415 [Eh]
	 Correlation Energy        =      -1.8229962303626768 [Eh]
	 Total Energy              =    -780.8366644868098092 [Eh]

	 ================> DF-SCS-MP2 Energies <==================
	-----------------------------------------------------------
	 SCS Same-Spin Scale       =       0.3333333333333333 [-]
	 SCS Opposite-Spin Scale   =       1.2000000000000000 [-]
	 SCS Same-Spin Energy      =      -0.1495277223263118 [Eh]
	 SCS Opposite-Spin Energy  =      -1.6492956760604898 [Eh]
	 SCS Correlation Energy    =      -1.7988233983868016 [Eh]
	 SCS Total Energy          =    -780.8124916548339343 [Eh]
	-----------------------------------------------------------

  Dipole Moment: [D]
     X:    -6.8557      Y:    -0.8341      Z:    -0.8188     Total:     6.9546

*** Psi4 exiting successfully. Buy a developer a beer!
