                               Psi4 1.4a3.dev225

  ==> Input File <==

--------------------------------------------------------------------------
#psi4
#
memory 32 gb

molecule  {
-1 1
  S        1.2336270    -0.0202320     0.0299590
  O        1.2252410    -0.2825260     1.4971370
  O        2.1958480    -0.8505260    -0.7431210
  O        1.2556930     1.4274900    -0.3299320
  C       -1.5803950    -0.0804270     0.2439630
  C       -0.3819400    -0.6334240    -0.5238140
  C       -1.8538570     1.3866740    -0.0822530
  C       -2.8059376    -0.9192223    -0.0254688
  H       -1.3285570    -0.1598550     1.3085440
  H       -0.4647110    -0.4152860    -1.5956970
  H       -0.3274510    -1.7212140    -0.4033230
  H       -2.1410800     1.4899610    -1.1367080
  H       -0.9572190     1.9851690     0.0829810
  H       -2.6779900     1.7735750     0.5301930
  H       -3.0772140    -0.9057670    -1.0956550
  H       -2.6591200    -1.9761140     0.2538760
  H       -3.6887270    -0.5571790     0.5306310
units angstrom
no_reorient  #important for SAPT in psi4, default
symmetry c1  #important for SAPT in psi4, default
}

set PROPERTIES_ORIGIN ["COM"]
properties('MP2/aug-cc-pvtz', properties = ['dipole'])
--------------------------------------------------------------------------

    Molecular point group: c1
  Charge       = -1
  Multiplicity = 1
  Basis Set: AUG-CC-PVTZ
    Blend: AUG-CC-PVTZ
  Basis Set: (AUG-CC-PVTZ AUX)
    Blend: AUG-CC-PVTZ-JKFIT

    Orbital Energies [Eh]
    ---------------------

    Doubly Occupied:

       1A    -91.999919     2A    -20.341674     3A    -20.341192
       4A    -20.340730     5A    -11.109595     6A    -11.103301
       7A    -11.098400     8A    -11.084833     9A     -8.961510
      10A     -6.646854    11A     -6.646390    12A     -6.646363
      13A     -1.258262    14A     -1.115365    15A     -1.114774
      16A     -0.969115    17A     -0.826686    18A     -0.810536
      19A     -0.664537    20A     -0.608585    21A     -0.521569
      22A     -0.491631    23A     -0.483459    24A     -0.460078
      25A     -0.446537    26A     -0.436328    27A     -0.419211
      28A     -0.401377    29A     -0.371066    30A     -0.350031
      31A     -0.340050    32A     -0.320534    33A     -0.320398
      34A     -0.278001    35A     -0.275936    36A     -0.249176
      37A     -0.240227

  @DF-RHF Final Energy:  -779.01389273347434

   => Energetics <=

    Nuclear Repulsion Energy =            517.2002296390938909
    One-Electron Energy =               -2112.2397861077529342
    Two-Electron Energy =                 816.0256637351848212
    Total Energy =                       -779.0138927334743357
  Basis Set: (AUG-CC-PVTZ AUX)
    Blend: AUG-CC-PVTZ-RI
    Molecular point group: c1

    Geometry (in Angstrom), charge = -1, multiplicity = 1:

       Center              X                  Y                   Z               Mass
    ------------   -----------------  -----------------  -----------------  -----------------
         S            1.107205647268    -0.024722651668     0.018624956946    31.972071174400
         O            1.098819647268    -0.287016651668     1.485802956946    15.994914619570
         O            2.069426647268    -0.855016651668    -0.754455043054    15.994914619570
         O            1.129271647268     1.422999348332    -0.341266043054    15.994914619570
         C           -1.706816352732    -0.084917651668     0.232628956946    12.000000000000
         C           -0.508361352732    -0.637914651668    -0.535148043054    12.000000000000
         C           -1.980278352732     1.382183348332    -0.093587043054    12.000000000000
         C           -2.932358952732    -0.923712951668    -0.036802843054    12.000000000000
         H           -1.454978352732    -0.164345651668     1.297209956946     1.007825032230
         H           -0.591132352732    -0.419776651668    -1.607031043054     1.007825032230
         H           -0.453872352732    -1.725704651668    -0.414657043054     1.007825032230
         H           -2.267501352732     1.485470348332    -1.148042043054     1.007825032230
         H           -1.083640352732     1.980678348332     0.071646956946     1.007825032230
         H           -2.804411352732     1.769084348332     0.518858956946     1.007825032230
         H           -3.203635352732    -0.910257651668    -1.106989043054     1.007825032230
         H           -2.785541352732    -1.980604651668     0.242541956946     1.007825032230
         H           -3.815148352732    -0.561669651668     0.519296956946     1.007825032230

  Basis Set: AUG-CC-PVTZ
    Blend: AUG-CC-PVTZ
  Basis Set: (AUG-CC-PVTZ AUX)
    Blend: AUG-CC-PVTZ-JKFIT
	 Reference Energy          =    -779.0138927334743357 [Eh]
	 Singles Energy            =      -0.0000000000000000 [Eh]
	 Same-Spin Energy          =      -0.4487944353295938 [Eh]
	 Opposite-Spin Energy      =      -1.3748848905194950 [Eh]
	 Correlation Energy        =      -1.8236793258490889 [Eh]
	 Total Energy              =    -780.8375720593234064 [Eh]

	 ================> DF-SCS-MP2 Energies <==================
	-----------------------------------------------------------
	 SCS Same-Spin Scale       =       0.3333333333333333 [-]
	 SCS Opposite-Spin Scale   =       1.2000000000000000 [-]
	 SCS Same-Spin Energy      =      -0.1495981451098646 [Eh]
	 SCS Opposite-Spin Energy  =      -1.6498618686233939 [Eh]
	 SCS Correlation Energy    =      -1.7994600137332586 [Eh]
	 SCS Total Energy          =    -780.8133527472075457 [Eh]
	-----------------------------------------------------------

  Dipole Moment: [D]
     X:    -6.8415      Y:    -0.8288      Z:    -0.7885     Total:     6.9365

*** Psi4 exiting successfully. Buy a developer a beer!
