                               Psi4 1.4a3.dev225

  ==> Input File <==

--------------------------------------------------------------------------
#psi4
#
memory 32 gb

molecule  {
-1 1
  S        1.2336270    -0.0202320     0.0299590
  O        1.2252410    -0.2825260     1.4971370
  O        2.1958480    -0.8505260    -0.7431210
  O        1.2556930     1.4274900    -0.3299320
  C       -1.5803950    -0.0804270     0.2439630
  C       -0.3819400    -0.6334240    -0.5238140
  C       -1.8538570     1.3866740    -0.0822530
  C       -2.8221770    -0.9303370    -0.0290390
  H       -1.3285570    -0.1598550     1.3085440
  H       -0.4647110    -0.4152860    -1.5956970
  H       -0.3249647    -1.7708486    -0.3978251
  H       -2.1410800     1.4899610    -1.1367080
  H       -0.9572190     1.9851690     0.0829810
  H       -2.6779900     1.7735750     0.5301930
  H       -3.0772140    -0.9057670    -1.0956550
  H       -2.6591200    -1.9761140     0.2538760
  H       -3.6887270    -0.5571790     0.5306310
units angstrom
no_reorient  #important for SAPT in psi4, default
symmetry c1  #important for SAPT in psi4, default
}

set PROPERTIES_ORIGIN ["COM"]
properties('MP2/aug-cc-pvtz', properties = ['dipole'])
--------------------------------------------------------------------------

    Molecular point group: c1
  Charge       = -1
  Multiplicity = 1
  Basis Set: AUG-CC-PVTZ
    Blend: AUG-CC-PVTZ
  Basis Set: (AUG-CC-PVTZ AUX)
    Blend: AUG-CC-PVTZ-JKFIT

    Orbital Energies [Eh]
    ---------------------

    Doubly Occupied:

       1A    -92.000273     2A    -20.341718     3A    -20.341667
       4A    -20.340645     5A    -11.108261     6A    -11.104876
       7A    -11.104023     8A    -11.085211     9A     -8.961828
      10A     -6.647185    11A     -6.646710    12A     -6.646677
      13A     -1.258381    14A     -1.115345    15A     -1.115029
      16A     -0.965920    17A     -0.824119    18A     -0.810418
      19A     -0.664406    20A     -0.606763    21A     -0.520509
      22A     -0.488579    23A     -0.482038    24A     -0.460426
      25A     -0.446405    26A     -0.436588    27A     -0.420627
      28A     -0.400306    29A     -0.367935    30A     -0.348959
      31A     -0.340888    32A     -0.320589    33A     -0.320505
      34A     -0.278004    35A     -0.275530    36A     -0.249178
      37A     -0.240337

  @DF-RHF Final Energy:  -779.01224590584593

   => Energetics <=

    Nuclear Repulsion Energy =            516.5691547569889508
    One-Electron Energy =               -2110.9890839723543650
    Two-Electron Energy =                 815.4076833095193706
    Total Energy =                       -779.0122459058459299
  Basis Set: (AUG-CC-PVTZ AUX)
    Blend: AUG-CC-PVTZ-RI
    Molecular point group: c1

    Geometry (in Angstrom), charge = -1, multiplicity = 1:

       Center              X                  Y                   Z               Mass
    ------------   -----------------  -----------------  -----------------  -----------------
         S            1.108609507144    -0.023384236095     0.018897176387    31.972071174400
         O            1.100223507144    -0.285678236095     1.486075176387    15.994914619570
         O            2.070830507144    -0.853678236095    -0.754182823613    15.994914619570
         O            1.130675507144     1.424337763905    -0.340993823613    15.994914619570
         C           -1.705412492856    -0.083579236095     0.232901176387    12.000000000000
         C           -0.506957492856    -0.636576236095    -0.534875823613    12.000000000000
         C           -1.978874492856     1.383521763905    -0.093314823613    12.000000000000
         C           -2.947194492856    -0.933489236095    -0.040100823613    12.000000000000
         H           -1.453574492856    -0.163007236095     1.297482176387     1.007825032230
         H           -0.589728492856    -0.418438236095    -1.606758823613     1.007825032230
         H           -0.449982192856    -1.774000836095    -0.408886923613     1.007825032230
         H           -2.266097492856     1.486808763905    -1.147769823613     1.007825032230
         H           -1.082236492856     1.982016763905     0.071919176387     1.007825032230
         H           -2.803007492856     1.770422763905     0.519131176387     1.007825032230
         H           -3.202231492856    -0.908919236095    -1.106716823613     1.007825032230
         H           -2.784137492856    -1.979266236095     0.242814176387     1.007825032230
         H           -3.813744492856    -0.560331236095     0.519569176387     1.007825032230

  Basis Set: AUG-CC-PVTZ
    Blend: AUG-CC-PVTZ
  Basis Set: (AUG-CC-PVTZ AUX)
    Blend: AUG-CC-PVTZ-JKFIT
	 Reference Energy          =    -779.0122459058459299 [Eh]
	 Singles Energy            =      -0.0000000000000000 [Eh]
	 Same-Spin Energy          =      -0.4487333902481796 [Eh]
	 Opposite-Spin Energy      =      -1.3751635600014454 [Eh]
	 Correlation Energy        =      -1.8238969502496249 [Eh]
	 Total Energy              =    -780.8361428560955346 [Eh]

	 ================> DF-SCS-MP2 Energies <==================
	-----------------------------------------------------------
	 SCS Same-Spin Scale       =       0.3333333333333333 [-]
	 SCS Opposite-Spin Scale   =       1.2000000000000000 [-]
	 SCS Same-Spin Energy      =      -0.1495777967493932 [Eh]
	 SCS Opposite-Spin Energy  =      -1.6501962720017345 [Eh]
	 SCS Correlation Energy    =      -1.7997740687511277 [Eh]
	 SCS Total Energy          =    -780.8120199745970922 [Eh]
	-----------------------------------------------------------

  Dipole Moment: [D]
     X:    -6.8433      Y:    -0.7963      Z:    -0.7860     Total:     6.9342

*** Psi4 exiting successfully. Buy a developer a beer!
