                               Psi4 1.4a3.dev225

  ==> Input File <==

--------------------------------------------------------------------------
#psi4
#
memory 32 gb

molecule  {
-1 1
  S        1.2336270    -0.0202320     0.0299590
  O        1.2252410    -0.2825260     1.4971370
  O        2.1958480    -0.8505260    -0.7431210
  O        1.2556930     1.4274900    -0.3299320
  C       -1.5803950    -0.0804270     0.2439630
  C       -0.3819400    -0.6334240    -0.5238140
  C       -1.8538570     1.3866740    -0.0822530
  C       -2.8221770    -0.9303370    -0.0290390
  H       -1.3239649    -0.1613033     1.3279557
  H       -0.4647110    -0.4152860    -1.5956970
  H       -0.3274510    -1.7212140    -0.4033230
  H       -2.1410800     1.4899610    -1.1367080
  H       -0.9572190     1.9851690     0.0829810
  H       -2.6779900     1.7735750     0.5301930
  H       -3.0772140    -0.9057670    -1.0956550
  H       -2.6591200    -1.9761140     0.2538760
  H       -3.6887270    -0.5571790     0.5306310
units angstrom
no_reorient  #important for SAPT in psi4, default
symmetry c1  #important for SAPT in psi4, default
}

set PROPERTIES_ORIGIN ["COM"]
properties('MP2/aug-cc-pvtz', properties = ['dipole'])
--------------------------------------------------------------------------

    Molecular point group: c1
  Charge       = -1
  Multiplicity = 1
  Basis Set: AUG-CC-PVTZ
    Blend: AUG-CC-PVTZ
  Basis Set: (AUG-CC-PVTZ AUX)
    Blend: AUG-CC-PVTZ-JKFIT

    Orbital Energies [Eh]
    ---------------------

    Doubly Occupied:

       1A    -91.999908     2A    -20.341595     3A    -20.341186
       4A    -20.340732     5A    -11.108499     6A    -11.106634
       7A    -11.098493     8A    -11.084921     9A     -8.961499
      10A     -6.646845    11A     -6.646379    12A     -6.646350
      13A     -1.258233    14A     -1.115324    15A     -1.114759
      16A     -0.965737    17A     -0.826809    18A     -0.810933
      19A     -0.662494    20A     -0.607376    21A     -0.520215
      22A     -0.491579    23A     -0.483179    24A     -0.460330
      25A     -0.446793    26A     -0.436472    27A     -0.420815
      28A     -0.402571    29A     -0.368461    30A     -0.350214
      31A     -0.338648    32A     -0.320462    33A     -0.320108
      34A     -0.277922    35A     -0.275928    36A     -0.248907
      37A     -0.240162

  @DF-RHF Final Energy:  -779.01393698745767

   => Energetics <=

    Nuclear Repulsion Energy =            516.7454167066446189
    One-Electron Energy =               -2111.3437663160875672
    Two-Electron Energy =                 815.5844126219852797
    Total Energy =                       -779.0139369874576687
  Basis Set: (AUG-CC-PVTZ AUX)
    Blend: AUG-CC-PVTZ-RI
    Molecular point group: c1

    Geometry (in Angstrom), charge = -1, multiplicity = 1:

       Center              X                  Y                   Z               Mass
    ------------   -----------------  -----------------  -----------------  -----------------
         S            1.108594019144    -0.023738642703     0.018794841436    31.972071174400
         O            1.100208019144    -0.286032642703     1.485972841436    15.994914619570
         O            2.070815019144    -0.854032642703    -0.754285158564    15.994914619570
         O            1.130660019144     1.423983357297    -0.341096158564    15.994914619570
         C           -1.705427980856    -0.083933642703     0.232798841436    12.000000000000
         C           -0.506972980856    -0.636930642703    -0.534978158564    12.000000000000
         C           -1.978889980856     1.383167357297    -0.093417158564    12.000000000000
         C           -2.947209980856    -0.933843642703    -0.040203158564    12.000000000000
         H           -1.448997880856    -0.164809942703     1.316791541436     1.007825032230
         H           -0.589743980856    -0.418792642703    -1.606861158564     1.007825032230
         H           -0.452483980856    -1.724720642703    -0.414487158564     1.007825032230
         H           -2.266112980856     1.486454357297    -1.147872158564     1.007825032230
         H           -1.082251980856     1.981662357297     0.071816841436     1.007825032230
         H           -2.803022980856     1.770068357297     0.519028841436     1.007825032230
         H           -3.202246980856    -0.909273642703    -1.106819158564     1.007825032230
         H           -2.784152980856    -1.979620642703     0.242711841436     1.007825032230
         H           -3.813759980856    -0.560685642703     0.519466841436     1.007825032230

  Basis Set: AUG-CC-PVTZ
    Blend: AUG-CC-PVTZ
  Basis Set: (AUG-CC-PVTZ AUX)
    Blend: AUG-CC-PVTZ-JKFIT
	 Reference Energy          =    -779.0139369874576687 [Eh]
	 Singles Energy            =      -0.0000000000000000 [Eh]
	 Same-Spin Energy          =      -0.4486885179806168 [Eh]
	 Opposite-Spin Energy      =      -1.3749042163076608 [Eh]
	 Correlation Energy        =      -1.8235927342882776 [Eh]
	 Total Energy              =    -780.8375297217459092 [Eh]

	 ================> DF-SCS-MP2 Energies <==================
	-----------------------------------------------------------
	 SCS Same-Spin Scale       =       0.3333333333333333 [-]
	 SCS Opposite-Spin Scale   =       1.2000000000000000 [-]
	 SCS Same-Spin Energy      =      -0.1495628393268723 [Eh]
	 SCS Opposite-Spin Energy  =      -1.6498850595691930 [Eh]
	 SCS Correlation Energy    =      -1.7994478988960652 [Eh]
	 SCS Total Energy          =    -780.8133848863537878 [Eh]
	-----------------------------------------------------------

  Dipole Moment: [D]
     X:    -6.8443      Y:    -0.8300      Z:    -0.7975     Total:     6.9404

*** Psi4 exiting successfully. Buy a developer a beer!
