                               Psi4 1.4a3.dev225

  ==> Input File <==

--------------------------------------------------------------------------
#psi4
#
memory 32 gb

molecule  {
-1 1
  S        1.2336270    -0.0202320     0.0299590
  O        1.2252410    -0.2825260     1.4971370
  O        2.1958480    -0.8505260    -0.7431210
  O        1.2556930     1.4274900    -0.3299320
  C       -1.5803950    -0.0804270     0.2439630
  C       -0.4211834    -0.6153161    -0.4986732
  C       -1.8538570     1.3866740    -0.0822530
  C       -2.8221770    -0.9303370    -0.0290390
  H       -1.3285570    -0.1598550     1.3085440
  H       -0.4647110    -0.4152860    -1.5956970
  H       -0.3274510    -1.7212140    -0.4033230
  H       -2.1410800     1.4899610    -1.1367080
  H       -0.9572190     1.9851690     0.0829810
  H       -2.6779900     1.7735750     0.5301930
  H       -3.0772140    -0.9057670    -1.0956550
  H       -2.6591200    -1.9761140     0.2538760
  H       -3.6887270    -0.5571790     0.5306310
units angstrom
no_reorient  #important for SAPT in psi4, default
symmetry c1  #important for SAPT in psi4, default
}

set PROPERTIES_ORIGIN ["COM"]
properties('MP2/aug-cc-pvtz', properties = ['dipole'])
--------------------------------------------------------------------------

    Molecular point group: c1
  Charge       = -1
  Multiplicity = 1
  Basis Set: AUG-CC-PVTZ
    Blend: AUG-CC-PVTZ
  Basis Set: (AUG-CC-PVTZ AUX)
    Blend: AUG-CC-PVTZ-JKFIT

    Orbital Energies [Eh]
    ---------------------

    Doubly Occupied:

       1A    -92.000164     2A    -20.343337     3A    -20.340971
       4A    -20.340674     5A    -11.108436     6A    -11.101914
       7A    -11.099936     8A    -11.085014     9A     -8.961602
      10A     -6.646926    11A     -6.646465    12A     -6.646429
      13A     -1.257947    14A     -1.116006    15A     -1.114435
      16A     -0.973012    17A     -0.824648    18A     -0.811002
      19A     -0.666817    20A     -0.606322    21A     -0.522598
      22A     -0.490582    23A     -0.485172    24A     -0.458638
      25A     -0.446729    26A     -0.434943    27A     -0.420781
      28A     -0.400994    29A     -0.372311    30A     -0.352574
      31A     -0.338674    32A     -0.321208    33A     -0.321038
      34A     -0.279309    35A     -0.275690    36A     -0.244994
      37A     -0.240343

  @DF-RHF Final Energy:  -779.01122014660314

   => Energetics <=

    Nuclear Repulsion Energy =            516.9913491343305623
    One-Electron Energy =               -2111.8078714383800616
    Two-Electron Energy =                 815.8053021574464765
    Total Energy =                       -779.0112201466031365
  Basis Set: (AUG-CC-PVTZ AUX)
    Blend: AUG-CC-PVTZ-RI
    Molecular point group: c1

    Geometry (in Angstrom), charge = -1, multiplicity = 1:

       Center              X                  Y                   Z               Mass
    ------------   -----------------  -----------------  -----------------  -----------------
         S            1.112064488462    -0.025335072963     0.016735936928    31.972071174400
         O            1.103678488462    -0.287629072963     1.483913936928    15.994914619570
         O            2.074285488462    -0.855629072963    -0.756344063072    15.994914619570
         O            1.134130488462     1.422386927037    -0.343155063072    15.994914619570
         C           -1.701957511538    -0.085530072963     0.230739936928    12.000000000000
         C           -0.542745911538    -0.620419172963    -0.511896263072    12.000000000000
         C           -1.975419511538     1.381570927037    -0.095476063072    12.000000000000
         C           -2.943739511538    -0.935440072963    -0.042262063072    12.000000000000
         H           -1.450119511538    -0.164958072963     1.295320936928     1.007825032230
         H           -0.586273511538    -0.420389072963    -1.608920063072     1.007825032230
         H           -0.449013511538    -1.726317072963    -0.416546063072     1.007825032230
         H           -2.262642511538     1.484857927037    -1.149931063072     1.007825032230
         H           -1.078781511538     1.980065927037     0.069757936928     1.007825032230
         H           -2.799552511538     1.768471927037     0.516969936928     1.007825032230
         H           -3.198776511538    -0.910870072963    -1.108878063072     1.007825032230
         H           -2.780682511538    -1.981217072963     0.240652936928     1.007825032230
         H           -3.810289511538    -0.562282072963     0.517407936928     1.007825032230

  Basis Set: AUG-CC-PVTZ
    Blend: AUG-CC-PVTZ
  Basis Set: (AUG-CC-PVTZ AUX)
    Blend: AUG-CC-PVTZ-JKFIT
	 Reference Energy          =    -779.0112201466031365 [Eh]
	 Singles Energy            =      -0.0000000000000000 [Eh]
	 Same-Spin Energy          =      -0.4492354062505658 [Eh]
	 Opposite-Spin Energy      =      -1.3755096263261959 [Eh]
	 Correlation Energy        =      -1.8247450325767618 [Eh]
	 Total Energy              =    -780.8359651791798797 [Eh]

	 ================> DF-SCS-MP2 Energies <==================
	-----------------------------------------------------------
	 SCS Same-Spin Scale       =       0.3333333333333333 [-]
	 SCS Opposite-Spin Scale   =       1.2000000000000000 [-]
	 SCS Same-Spin Energy      =      -0.1497451354168553 [Eh]
	 SCS Opposite-Spin Energy  =      -1.6506115515914350 [Eh]
	 SCS Correlation Energy    =      -1.8003566870082903 [Eh]
	 SCS Total Energy          =    -780.8115768336114115 [Eh]
	-----------------------------------------------------------

  Dipole Moment: [D]
     X:    -6.8193      Y:    -0.8151      Z:    -0.7718     Total:     6.9110

*** Psi4 exiting successfully. Buy a developer a beer!
