                               Psi4 1.4a3.dev225

  ==> Input File <==

--------------------------------------------------------------------------
#psi4
#
memory 32 gb

molecule  {
-1 1
  S        1.2336270    -0.0202320     0.0299590
  O        1.2252410    -0.2825260     1.4971370
  O        2.1958480    -0.8505260    -0.7431210
  O        1.2556930     1.4274900    -0.3299320
  C       -1.5803950    -0.0804270     0.2439630
  C       -0.3819400    -0.6334240    -0.5238140
  C       -1.8538570     1.3866740    -0.0822530
  C       -2.8221770    -0.9303370    -0.0290390
  H       -1.3285570    -0.1598550     1.3085440
  H       -0.4632019    -0.4192631    -1.5761546
  H       -0.3274510    -1.7212140    -0.4033230
  H       -2.1410800     1.4899610    -1.1367080
  H       -0.9572190     1.9851690     0.0829810
  H       -2.6779900     1.7735750     0.5301930
  H       -3.0772140    -0.9057670    -1.0956550
  H       -2.6591200    -1.9761140     0.2538760
  H       -3.6887270    -0.5571790     0.5306310
units angstrom
no_reorient  #important for SAPT in psi4, default
symmetry c1  #important for SAPT in psi4, default
}

set PROPERTIES_ORIGIN ["COM"]
properties('MP2/aug-cc-pvtz', properties = ['dipole'])
--------------------------------------------------------------------------

    Molecular point group: c1
  Charge       = -1
  Multiplicity = 1
  Basis Set: AUG-CC-PVTZ
    Blend: AUG-CC-PVTZ
  Basis Set: (AUG-CC-PVTZ AUX)
    Blend: AUG-CC-PVTZ-JKFIT

    Orbital Energies [Eh]
    ---------------------

    Doubly Occupied:

       1A    -91.999722     2A    -20.341411     3A    -20.341152
       4A    -20.340679     5A    -11.108328     6A    -11.104127
       7A    -11.095904     8A    -11.084761     9A     -8.961325
      10A     -6.646665    11A     -6.646207    12A     -6.646176
      13A     -1.258148    14A     -1.115215    15A     -1.114704
      16A     -0.966643    17A     -0.827890    18A     -0.810919
      19A     -0.664369    20A     -0.609284    21A     -0.521142
      22A     -0.491543    23A     -0.483372    24A     -0.460903
      25A     -0.446822    26A     -0.437335    27A     -0.420835
      28A     -0.403394    29A     -0.368322    30A     -0.349977
      31A     -0.341338    32A     -0.320403    33A     -0.320365
      34A     -0.277968    35A     -0.275894    36A     -0.248700
      37A     -0.240093

  @DF-RHF Final Energy:  -779.01457802249240

   => Energetics <=

    Nuclear Repulsion Energy =            516.9505539224365975
    One-Electron Energy =               -2111.7461926304845292
    Two-Electron Energy =                 815.7810606855556443
    Total Energy =                       -779.0145780224924010
  Basis Set: (AUG-CC-PVTZ AUX)
    Blend: AUG-CC-PVTZ-RI
    Molecular point group: c1

    Geometry (in Angstrom), charge = -1, multiplicity = 1:

       Center              X                  Y                   Z               Mass
    ------------   -----------------  -----------------  -----------------  -----------------
         S            1.108616694377    -0.023720043569     0.018793880148    31.972071174400
         O            1.100230694377    -0.286014043569     1.485971880148    15.994914619570
         O            2.070837694377    -0.854014043569    -0.754286119852    15.994914619570
         O            1.130682694377     1.424001956431    -0.341097119852    15.994914619570
         C           -1.705405305623    -0.083915043569     0.232797880148    12.000000000000
         C           -0.506950305623    -0.636912043569    -0.534979119852    12.000000000000
         C           -1.978867305623     1.383185956431    -0.093418119852    12.000000000000
         C           -2.947187305623    -0.933825043569    -0.040204119852    12.000000000000
         H           -1.453567305623    -0.163343043569     1.297378880148     1.007825032230
         H           -0.588212205623    -0.422751143569    -1.587319719852     1.007825032230
         H           -0.452461305623    -1.724702043569    -0.414488119852     1.007825032230
         H           -2.266090305623     1.486472956431    -1.147873119852     1.007825032230
         H           -1.082229305623     1.981680956431     0.071815880148     1.007825032230
         H           -2.803000305623     1.770086956431     0.519027880148     1.007825032230
         H           -3.202224305623    -0.909255043569    -1.106820119852     1.007825032230
         H           -2.784130305623    -1.979602043569     0.242710880148     1.007825032230
         H           -3.813737305623    -0.560667043569     0.519465880148     1.007825032230

  Basis Set: AUG-CC-PVTZ
    Blend: AUG-CC-PVTZ
  Basis Set: (AUG-CC-PVTZ AUX)
    Blend: AUG-CC-PVTZ-JKFIT
	 Reference Energy          =    -779.0145780224924010 [Eh]
	 Singles Energy            =      -0.0000000000000000 [Eh]
	 Same-Spin Energy          =      -0.4486215681996075 [Eh]
	 Opposite-Spin Energy      =      -1.3745990088771300 [Eh]
	 Correlation Energy        =      -1.8232205770767376 [Eh]
	 Total Energy              =    -780.8377985995691688 [Eh]

	 ================> DF-SCS-MP2 Energies <==================
	-----------------------------------------------------------
	 SCS Same-Spin Scale       =       0.3333333333333333 [-]
	 SCS Opposite-Spin Scale   =       1.2000000000000000 [-]
	 SCS Same-Spin Energy      =      -0.1495405227332025 [Eh]
	 SCS Opposite-Spin Energy  =      -1.6495188106525560 [Eh]
	 SCS Correlation Energy    =      -1.7990593333857585 [Eh]
	 SCS Total Energy          =    -780.8136373558781997 [Eh]
	-----------------------------------------------------------

  Dipole Moment: [D]
     X:    -6.8509      Y:    -0.8324      Z:    -0.8021     Total:     6.9477

*** Psi4 exiting successfully. Buy a developer a beer!
