                               Psi4 1.4a3.dev225

  ==> Input File <==

--------------------------------------------------------------------------
#psi4
#
memory 32 gb

molecule  {
-1 1
  S        1.2336270    -0.0202320     0.0299590
  O        1.2252410    -0.2825260     1.4971370
  O        2.1958480    -0.8505260    -0.7431210
  O        1.2556930     1.4274900    -0.3299320
  C       -1.5803950    -0.0804270     0.2439630
  C       -0.3819400    -0.6334240    -0.5238140
  C       -1.8538570     1.3866740    -0.0822530
  C       -2.8221770    -0.9303370    -0.0290390
  H       -1.3285570    -0.1598550     1.3085440
  H       -0.4647110    -0.4152860    -1.5956970
  H       -0.3274510    -1.7212140    -0.4033230
  H       -2.1410800     1.4899610    -1.1367080
  H       -0.9983257     1.9577308     0.0754058
  H       -2.6779900     1.7735750     0.5301930
  H       -3.0772140    -0.9057670    -1.0956550
  H       -2.6591200    -1.9761140     0.2538760
  H       -3.6887270    -0.5571790     0.5306310
units angstrom
no_reorient  #important for SAPT in psi4, default
symmetry c1  #important for SAPT in psi4, default
}

set PROPERTIES_ORIGIN ["COM"]
properties('MP2/aug-cc-pvtz', properties = ['dipole'])
--------------------------------------------------------------------------

    Molecular point group: c1
  Charge       = -1
  Multiplicity = 1
  Basis Set: AUG-CC-PVTZ
    Blend: AUG-CC-PVTZ
  Basis Set: (AUG-CC-PVTZ AUX)
    Blend: AUG-CC-PVTZ-JKFIT

    Orbital Energies [Eh]
    ---------------------

    Doubly Occupied:

       1A    -91.999775     2A    -20.341563     3A    -20.341071
       4A    -20.340609     5A    -11.108145     6A    -11.104115
       7A    -11.098244     8A    -11.079682     9A     -8.961366
      10A     -6.646711    11A     -6.646245    12A     -6.646218
      13A     -1.258104    14A     -1.115249    15A     -1.114550
      16A     -0.966987    17A     -0.826682    18A     -0.815121
      19A     -0.665381    20A     -0.608258    21A     -0.521656
      22A     -0.491557    23A     -0.485979    24A     -0.460690
      25A     -0.447050    26A     -0.437817    27A     -0.421353
      28A     -0.402863    29A     -0.372132    30A     -0.350451
      31A     -0.340759    32A     -0.320736    33A     -0.320324
      34A     -0.277855    35A     -0.276187    36A     -0.248852
      37A     -0.240144

  @DF-RHF Final Energy:  -779.01363258581341

   => Energetics <=

    Nuclear Repulsion Energy =            517.0053041603699739
    One-Electron Energy =               -2111.8369155737427718
    Two-Electron Energy =                 815.8179788275592728
    Total Energy =                       -779.0136325858134114
  Basis Set: (AUG-CC-PVTZ AUX)
    Blend: AUG-CC-PVTZ-RI
    Molecular point group: c1

    Geometry (in Angstrom), charge = -1, multiplicity = 1:

       Center              X                  Y                   Z               Mass
    ------------   -----------------  -----------------  -----------------  -----------------
         S            1.108930130376    -0.023547488945     0.018993328053    31.972071174400
         O            1.100544130376    -0.285841488945     1.486171328053    15.994914619570
         O            2.071151130376    -0.853841488945    -0.754086671947    15.994914619570
         O            1.130996130376     1.424174511055    -0.340897671947    15.994914619570
         C           -1.705091869624    -0.083742488945     0.232997328053    12.000000000000
         C           -0.506636869624    -0.636739488945    -0.534779671947    12.000000000000
         C           -1.978553869624     1.383358511055    -0.093218671947    12.000000000000
         C           -2.946873869624    -0.933652488945    -0.040004671947    12.000000000000
         H           -1.453253869624    -0.163170488945     1.297578328053     1.007825032230
         H           -0.589407869624    -0.418601488945    -1.606662671947     1.007825032230
         H           -0.452147869624    -1.724529488945    -0.414288671947     1.007825032230
         H           -2.265776869624     1.486645511055    -1.147673671947     1.007825032230
         H           -1.123022569624     1.954415311055     0.064440128053     1.007825032230
         H           -2.802686869624     1.770259511055     0.519227328053     1.007825032230
         H           -3.201910869624    -0.909082488945    -1.106620671947     1.007825032230
         H           -2.783816869624    -1.979429488945     0.242910328053     1.007825032230
         H           -3.813423869624    -0.560494488945     0.519665328053     1.007825032230

  Basis Set: AUG-CC-PVTZ
    Blend: AUG-CC-PVTZ
  Basis Set: (AUG-CC-PVTZ AUX)
    Blend: AUG-CC-PVTZ-JKFIT
	 Reference Energy          =    -779.0136325858134114 [Eh]
	 Singles Energy            =      -0.0000000000000000 [Eh]
	 Same-Spin Energy          =      -0.4485178177443913 [Eh]
	 Opposite-Spin Energy      =      -1.3743352054092699 [Eh]
	 Correlation Energy        =      -1.8228530231536610 [Eh]
	 Total Energy              =    -780.8364856089671093 [Eh]

	 ================> DF-SCS-MP2 Energies <==================
	-----------------------------------------------------------
	 SCS Same-Spin Scale       =       0.3333333333333333 [-]
	 SCS Opposite-Spin Scale   =       1.2000000000000000 [-]
	 SCS Same-Spin Energy      =      -0.1495059392481304 [Eh]
	 SCS Opposite-Spin Energy  =      -1.6492022464911238 [Eh]
	 SCS Correlation Energy    =      -1.7987081857392542 [Eh]
	 SCS Total Energy          =    -780.8123407715526128 [Eh]
	-----------------------------------------------------------

  Dipole Moment: [D]
     X:    -6.8662      Y:    -0.8151      Z:    -0.7883     Total:     6.9592

*** Psi4 exiting successfully. Buy a developer a beer!
