                               Psi4 1.4a3.dev225

  ==> Input File <==

--------------------------------------------------------------------------
#psi4
#
memory 32 gb

molecule  {
-1 1
  S        1.2336270    -0.0202320     0.0299590
  O        1.2621296    -0.3185082     1.4899928
  O        2.1958480    -0.8505260    -0.7431210
  O        1.2556930     1.4274900    -0.3299320
  C       -1.5803950    -0.0804270     0.2439630
  C       -0.3819400    -0.6334240    -0.5238140
  C       -1.8538570     1.3866740    -0.0822530
  C       -2.8221770    -0.9303370    -0.0290390
  H       -1.3285570    -0.1598550     1.3085440
  H       -0.4647110    -0.4152860    -1.5956970
  H       -0.3274510    -1.7212140    -0.4033230
  H       -2.1410800     1.4899610    -1.1367080
  H       -0.9572190     1.9851690     0.0829810
  H       -2.6779900     1.7735750     0.5301930
  H       -3.0772140    -0.9057670    -1.0956550
  H       -2.6591200    -1.9761140     0.2538760
  H       -3.6887270    -0.5571790     0.5306310
units angstrom
no_reorient  #important for SAPT in psi4, default
symmetry c1  #important for SAPT in psi4, default
}

set PROPERTIES_ORIGIN ["COM"]
properties('MP2/aug-cc-pvtz', properties = ['dipole'])
--------------------------------------------------------------------------

    Molecular point group: c1
  Charge       = -1
  Multiplicity = 1
  Basis Set: AUG-CC-PVTZ
    Blend: AUG-CC-PVTZ
  Basis Set: (AUG-CC-PVTZ AUX)
    Blend: AUG-CC-PVTZ-JKFIT

    Orbital Energies [Eh]
    ---------------------

    Doubly Occupied:

       1A    -91.999527     2A    -20.343228     3A    -20.341254
       4A    -20.337094     5A    -11.109042     6A    -11.105441
       7A    -11.099296     8A    -11.085687     9A     -8.961150
      10A     -6.646488    11A     -6.646050    12A     -6.645979
      13A     -1.257858    14A     -1.116868    15A     -1.111625
      16A     -0.967377    17A     -0.827511    18A     -0.811694
      19A     -0.664892    20A     -0.608742    21A     -0.521235
      22A     -0.491741    23A     -0.483681    24A     -0.460732
      25A     -0.445647    26A     -0.437161    27A     -0.421576
      28A     -0.403103    29A     -0.369071    30A     -0.350864
      31A     -0.341962    32A     -0.320918    33A     -0.319111
      34A     -0.277748    35A     -0.274837    36A     -0.249289
      37A     -0.239195

  @DF-RHF Final Energy:  -779.01439351018848

   => Energetics <=

    Nuclear Repulsion Energy =            516.5753672483309629
    One-Electron Energy =               -2110.9901669024893636
    Two-Electron Energy =                 815.4004061439698035
    Total Energy =                       -779.0143935101884836
  Basis Set: (AUG-CC-PVTZ AUX)
    Blend: AUG-CC-PVTZ-RI
    Molecular point group: c1

    Geometry (in Angstrom), charge = -1, multiplicity = 1:

       Center              X                  Y                   Z               Mass
    ------------   -----------------  -----------------  -----------------  -----------------
         S            1.104321861486    -0.019549164884     0.019771541149    31.972071174400
         O            1.132824461486    -0.317825364884     1.479805341149    15.994914619570
         O            2.066542861486    -0.849843164884    -0.753308458851    15.994914619570
         O            1.126387861486     1.428172835116    -0.340119458851    15.994914619570
         C           -1.709700138514    -0.079744164884     0.233775541149    12.000000000000
         C           -0.511245138514    -0.632741164884    -0.534001458851    12.000000000000
         C           -1.983162138514     1.387356835116    -0.092440458851    12.000000000000
         C           -2.951482138514    -0.929654164884    -0.039226458851    12.000000000000
         H           -1.457862138514    -0.159172164884     1.298356541149     1.007825032230
         H           -0.594016138514    -0.414603164884    -1.605884458851     1.007825032230
         H           -0.456756138514    -1.720531164884    -0.413510458851     1.007825032230
         H           -2.270385138514     1.490643835116    -1.146895458851     1.007825032230
         H           -1.086524138514     1.985851835116     0.072793541149     1.007825032230
         H           -2.807295138514     1.774257835116     0.520005541149     1.007825032230
         H           -3.206519138514    -0.905084164884    -1.105842458851     1.007825032230
         H           -2.788425138514    -1.975431164884     0.243688541149     1.007825032230
         H           -3.818032138514    -0.556496164884     0.520443541149     1.007825032230

  Basis Set: AUG-CC-PVTZ
    Blend: AUG-CC-PVTZ
  Basis Set: (AUG-CC-PVTZ AUX)
    Blend: AUG-CC-PVTZ-JKFIT
	 Reference Energy          =    -779.0143935101884836 [Eh]
	 Singles Energy            =      -0.0000000000000000 [Eh]
	 Same-Spin Energy          =      -0.4485712688077753 [Eh]
	 Opposite-Spin Energy      =      -1.3746286443639502 [Eh]
	 Correlation Energy        =      -1.8231999131717256 [Eh]
	 Total Energy              =    -780.8375934233602038 [Eh]

	 ================> DF-SCS-MP2 Energies <==================
	-----------------------------------------------------------
	 SCS Same-Spin Scale       =       0.3333333333333333 [-]
	 SCS Opposite-Spin Scale   =       1.2000000000000000 [-]
	 SCS Same-Spin Energy      =      -0.1495237562692584 [Eh]
	 SCS Opposite-Spin Energy  =      -1.6495543732367401 [Eh]
	 SCS Correlation Energy    =      -1.7990781295059985 [Eh]
	 SCS Total Energy          =    -780.8134716396945123 [Eh]
	-----------------------------------------------------------

  Dipole Moment: [D]
     X:    -6.9584      Y:    -0.7448      Z:    -0.7814     Total:     7.0416

*** Psi4 exiting successfully. Buy a developer a beer!
