                               Psi4 1.4a3.dev225

  ==> Input File <==

--------------------------------------------------------------------------
#psi4
#
memory 32 gb

molecule  {
-1 1
  S        1.2336270    -0.0202320     0.0299590
  O        1.2252410    -0.2825260     1.4971370
  O        2.1958480    -0.8505260    -0.7431210
  O        1.2556930     1.4274900    -0.3299320
  C       -1.5803950    -0.0804270     0.2439630
  C       -0.3819400    -0.6334240    -0.5238140
  C       -1.8538570     1.3866740    -0.0822530
  C       -2.8221770    -0.9303370    -0.0290390
  H       -1.3285570    -0.1598550     1.3085440
  H       -0.4647110    -0.4152860    -1.5956970
  H       -0.3274510    -1.7212140    -0.4033230
  H       -2.1410800     1.4899610    -1.1367080
  H       -0.9572190     1.9851690     0.0829810
  H       -2.6779900     1.7735750     0.5301930
  H       -3.0772140    -0.9057670    -1.0956550
  H       -2.7496120    -1.9651138     0.3234511
  H       -3.6887270    -0.5571790     0.5306310
units angstrom
no_reorient  #important for SAPT in psi4, default
symmetry c1  #important for SAPT in psi4, default
}

set PROPERTIES_ORIGIN ["COM"]
properties('MP2/aug-cc-pvtz', properties = ['dipole'])
--------------------------------------------------------------------------

    Molecular point group: c1
  Charge       = -1
  Multiplicity = 1
  Basis Set: AUG-CC-PVTZ
    Blend: AUG-CC-PVTZ
  Basis Set: (AUG-CC-PVTZ AUX)
    Blend: AUG-CC-PVTZ-JKFIT

    Orbital Energies [Eh]
    ---------------------

    Doubly Occupied:

       1A    -91.999758     2A    -20.341559     3A    -20.341095
       4A    -20.340596     5A    -11.108440     6A    -11.105065
       7A    -11.098148     8A    -11.085140     9A     -8.961356
      10A     -6.646698    11A     -6.646237    12A     -6.646208
      13A     -1.258141    14A     -1.115240    15A     -1.114673
      16A     -0.966126    17A     -0.827221    18A     -0.810900
      19A     -0.665256    20A     -0.608010    21A     -0.523240
      22A     -0.490030    23A     -0.480502    24A     -0.461823
      25A     -0.445968    26A     -0.436082    27A     -0.422792
      28A     -0.398530    29A     -0.370030    30A     -0.349922
      31A     -0.341583    32A     -0.320422    33A     -0.320382
      34A     -0.277843    35A     -0.275793    36A     -0.248719
      37A     -0.240103

  @DF-RHF Final Energy:  -779.01332745621676

   => Energetics <=

    Nuclear Repulsion Energy =            516.6908846108209445
    One-Electron Energy =               -2111.2291597100602303
    Two-Electron Energy =                 815.5249476430226423
    Total Energy =                       -779.0133274562167571
  Basis Set: (AUG-CC-PVTZ AUX)
    Blend: AUG-CC-PVTZ-RI
    Molecular point group: c1

    Geometry (in Angstrom), charge = -1, multiplicity = 1:

       Center              X                  Y                   Z               Mass
    ------------   -----------------  -----------------  -----------------  -----------------
         S            1.109293355538    -0.023830200482     0.018425893407    31.972071174400
         O            1.100907355538    -0.286124200482     1.485603893407    15.994914619570
         O            2.071514355538    -0.854124200482    -0.754654106593    15.994914619570
         O            1.131359355538     1.423891799518    -0.341465106593    15.994914619570
         C           -1.704728644462    -0.084025200482     0.232429893407    12.000000000000
         C           -0.506273644462    -0.637022200482    -0.535347106593    12.000000000000
         C           -1.978190644462     1.383075799518    -0.093786106593    12.000000000000
         C           -2.946510644462    -0.933935200482    -0.040572106593    12.000000000000
         H           -1.452890644462    -0.163453200482     1.297010893407     1.007825032230
         H           -0.589044644462    -0.418884200482    -1.607230106593     1.007825032230
         H           -0.451784644462    -1.724812200482    -0.414856106593     1.007825032230
         H           -2.265413644462     1.486362799518    -1.148241106593     1.007825032230
         H           -1.081552644462     1.981570799518     0.071447893407     1.007825032230
         H           -2.802323644462     1.769976799518     0.518659893407     1.007825032230
         H           -3.201547644462    -0.909365200482    -1.107188106593     1.007825032230
         H           -2.873945644462    -1.968712000482     0.311917993407     1.007825032230
         H           -3.813060644462    -0.560777200482     0.519097893407     1.007825032230

  Basis Set: AUG-CC-PVTZ
    Blend: AUG-CC-PVTZ
  Basis Set: (AUG-CC-PVTZ AUX)
    Blend: AUG-CC-PVTZ-JKFIT
	 Reference Energy          =    -779.0133274562167571 [Eh]
	 Singles Energy            =      -0.0000000000000000 [Eh]
	 Same-Spin Energy          =      -0.4486423764724657 [Eh]
	 Opposite-Spin Energy      =      -1.3747035348427536 [Eh]
	 Correlation Energy        =      -1.8233459113152195 [Eh]
	 Total Energy              =    -780.8366733675319438 [Eh]

	 ================> DF-SCS-MP2 Energies <==================
	-----------------------------------------------------------
	 SCS Same-Spin Scale       =       0.3333333333333333 [-]
	 SCS Opposite-Spin Scale   =       1.2000000000000000 [-]
	 SCS Same-Spin Energy      =      -0.1495474588241552 [Eh]
	 SCS Opposite-Spin Energy  =      -1.6496442418113044 [Eh]
	 SCS Correlation Energy    =      -1.7991917006354596 [Eh]
	 SCS Total Energy          =    -780.8125191568522041 [Eh]
	-----------------------------------------------------------

  Dipole Moment: [D]
     X:    -6.8713      Y:    -0.8348      Z:    -0.7645     Total:     6.9639

*** Psi4 exiting successfully. Buy a developer a beer!
