                               Psi4 1.4a3.dev225

  ==> Input File <==

--------------------------------------------------------------------------
#psi4
#
memory 32 gb

molecule  {
-1 1
  S        1.2336270    -0.0202320     0.0299590
  O        1.2252410    -0.2825260     1.4971370
  O        2.1958480    -0.8505260    -0.7431210
  O        1.2556930     1.4274900    -0.3299320
  C       -1.5803950    -0.0804270     0.2439630
  C       -0.3819400    -0.6334240    -0.5238140
  C       -1.8538570     1.3866740    -0.0822530
  C       -2.8221770    -0.9303370    -0.0290390
  H       -1.3285570    -0.1598550     1.3085440
  H       -0.4647110    -0.4152860    -1.5956970
  H       -0.3274510    -1.7212140    -0.4033230
  H       -2.1410800     1.4899610    -1.1367080
  H       -0.9572190     1.9851690     0.0829810
  H       -2.6779900     1.7735750     0.5301930
  H       -3.0772140    -0.9057670    -1.0956550
  H       -2.5704145    -1.9756564     0.1812012
  H       -3.6887270    -0.5571790     0.5306310
units angstrom
no_reorient  #important for SAPT in psi4, default
symmetry c1  #important for SAPT in psi4, default
}

set PROPERTIES_ORIGIN ["COM"]
properties('MP2/aug-cc-pvtz', properties = ['dipole'])
--------------------------------------------------------------------------

    Molecular point group: c1
  Charge       = -1
  Multiplicity = 1
  Basis Set: AUG-CC-PVTZ
    Blend: AUG-CC-PVTZ
  Basis Set: (AUG-CC-PVTZ AUX)
    Blend: AUG-CC-PVTZ-JKFIT

    Orbital Energies [Eh]
    ---------------------

    Doubly Occupied:

       1A    -92.000060     2A    -20.341750     3A    -20.341257
       4A    -20.340846     5A    -11.108247     6A    -11.103699
       7A    -11.098535     8A    -11.084334     9A     -8.961642
      10A     -6.646990    11A     -6.646522    12A     -6.646495
      13A     -1.258346    14A     -1.115455    15A     -1.114840
      16A     -0.966852    17A     -0.826390    18A     -0.810944
      19A     -0.663505    20A     -0.608541    21A     -0.518845
      22A     -0.494590    23A     -0.484935    24A     -0.459331
      25A     -0.447767    26A     -0.436682    27A     -0.418503
      28A     -0.405251    29A     -0.366818    30A     -0.349317
      31A     -0.339866    32A     -0.320532    33A     -0.320486
      34A     -0.278081    35A     -0.276034    36A     -0.249029
      37A     -0.240271

  @DF-RHF Final Energy:  -779.01310104582410

   => Energetics <=

    Nuclear Repulsion Energy =            517.0065104250580816
    One-Electron Energy =               -2111.8560445129041909
    Two-Electron Energy =                 815.8364330420221222
    Total Energy =                       -779.0131010458241008
  Basis Set: (AUG-CC-PVTZ AUX)
    Blend: AUG-CC-PVTZ-RI
    Molecular point group: c1

    Geometry (in Angstrom), charge = -1, multiplicity = 1:

       Center              X                  Y                   Z               Mass
    ------------   -----------------  -----------------  -----------------  -----------------
         S            1.107975371422    -0.023752660453     0.019472130708    31.972071174400
         O            1.099589371422    -0.286046660453     1.486650130708    15.994914619570
         O            2.070196371422    -0.854046660453    -0.753607869292    15.994914619570
         O            1.130041371422     1.423969339547    -0.340418869292    15.994914619570
         C           -1.706046628578    -0.083947660453     0.233476130708    12.000000000000
         C           -0.507591628578    -0.636944660453    -0.534300869292    12.000000000000
         C           -1.979508628578     1.383153339547    -0.092739869292    12.000000000000
         C           -2.947828628578    -0.933857660453    -0.039525869292    12.000000000000
         H           -1.454208628578    -0.163375660453     1.298057130708     1.007825032230
         H           -0.590362628578    -0.418806660453    -1.606183869292     1.007825032230
         H           -0.453102628578    -1.724734660453    -0.413809869292     1.007825032230
         H           -2.266731628578     1.486440339547    -1.147194869292     1.007825032230
         H           -1.082870628578     1.981648339547     0.072494130708     1.007825032230
         H           -2.803641628578     1.770054339547     0.519706130708     1.007825032230
         H           -3.202865628578    -0.909287660453    -1.106141869292     1.007825032230
         H           -2.696066128578    -1.979177060453     0.170714330708     1.007825032230
         H           -3.814378628578    -0.560699660453     0.520144130708     1.007825032230

  Basis Set: AUG-CC-PVTZ
    Blend: AUG-CC-PVTZ
  Basis Set: (AUG-CC-PVTZ AUX)
    Blend: AUG-CC-PVTZ-JKFIT
	 Reference Energy          =    -779.0131010458241008 [Eh]
	 Singles Energy            =      -0.0000000000000000 [Eh]
	 Same-Spin Energy          =      -0.4487894921310301 [Eh]
	 Opposite-Spin Energy      =      -1.3749646283091221 [Eh]
	 Correlation Energy        =      -1.8237541204401522 [Eh]
	 Total Energy              =    -780.8368551662642858 [Eh]

	 ================> DF-SCS-MP2 Energies <==================
	-----------------------------------------------------------
	 SCS Same-Spin Scale       =       0.3333333333333333 [-]
	 SCS Opposite-Spin Scale   =       1.2000000000000000 [-]
	 SCS Same-Spin Energy      =      -0.1495964973770100 [Eh]
	 SCS Opposite-Spin Energy  =      -1.6499575539709466 [Eh]
	 SCS Correlation Energy    =      -1.7995540513479567 [Eh]
	 SCS Total Energy          =    -780.8126550971720690 [Eh]
	-----------------------------------------------------------

  Dipole Moment: [D]
     X:    -6.8240      Y:    -0.8208      Z:    -0.8137     Total:     6.9212

*** Psi4 exiting successfully. Buy a developer a beer!
