                               Psi4 1.4a3.dev225

  ==> Input File <==

--------------------------------------------------------------------------
#psi4
#
memory 32 gb

molecule  {
-1 1
  S        1.2336270    -0.0202320     0.0299590
  O        1.3357579    -0.3893390     1.4703788
  O        2.1958480    -0.8505260    -0.7431210
  O        1.2556930     1.4274900    -0.3299320
  C       -1.5803950    -0.0804270     0.2439630
  C       -0.3819400    -0.6334240    -0.5238140
  C       -1.8538570     1.3866740    -0.0822530
  C       -2.8221770    -0.9303370    -0.0290390
  H       -1.3285570    -0.1598550     1.3085440
  H       -0.4647110    -0.4152860    -1.5956970
  H       -0.3274510    -1.7212140    -0.4033230
  H       -2.1410800     1.4899610    -1.1367080
  H       -0.9572190     1.9851690     0.0829810
  H       -2.6779900     1.7735750     0.5301930
  H       -3.0772140    -0.9057670    -1.0956550
  H       -2.6591200    -1.9761140     0.2538760
  H       -3.6887270    -0.5571790     0.5306310
units angstrom
no_reorient  #important for SAPT in psi4, default
symmetry c1  #important for SAPT in psi4, default
}

set PROPERTIES_ORIGIN ["COM"]
properties('MP2/aug-cc-pvtz', properties = ['dipole'])
--------------------------------------------------------------------------

    Molecular point group: c1
  Charge       = -1
  Multiplicity = 1
  Basis Set: AUG-CC-PVTZ
    Blend: AUG-CC-PVTZ
  Basis Set: (AUG-CC-PVTZ AUX)
    Blend: AUG-CC-PVTZ-JKFIT

    Orbital Energies [Eh]
    ---------------------

    Doubly Occupied:

       1A    -91.998678     2A    -20.347229     3A    -20.340135
       4A    -20.329578     5A    -11.110400     6A    -11.107580
       7A    -11.101283     8A    -11.087475     9A     -8.960409
      10A     -6.645735    11A     -6.645379    12A     -6.645134
      13A     -1.257223    14A     -1.120744    15A     -1.103869
      16A     -0.969297    17A     -0.829086    18A     -0.813359
      19A     -0.666102    20A     -0.609789    21A     -0.522051
      22A     -0.492132    23A     -0.484821    24A     -0.461410
      25A     -0.443168    26A     -0.438531    27A     -0.422998
      28A     -0.404134    29A     -0.370457    30A     -0.352435
      31A     -0.344078    32A     -0.321948    33A     -0.316348
      34A     -0.279735    35A     -0.269827    36A     -0.249881
      37A     -0.235829

  @DF-RHF Final Energy:  -779.01193808707342

   => Energetics <=

    Nuclear Repulsion Energy =            516.1147712961573006
    One-Electron Energy =               -2110.0568787464230809
    Two-Electron Energy =                 814.9301693631922490
    Total Energy =                       -779.0119380870734176
  Basis Set: (AUG-CC-PVTZ AUX)
    Blend: AUG-CC-PVTZ-RI
    Molecular point group: c1

    Geometry (in Angstrom), charge = -1, multiplicity = 1:

       Center              X                  Y                   Z               Mass
    ------------   -----------------  -----------------  -----------------  -----------------
         S            1.095727377868    -0.011281227825     0.022061043985    31.972071174400
         O            1.197858277868    -0.380388227825     1.462480843985    15.994914619570
         O            2.057948377868    -0.841575227825    -0.751018956015    15.994914619570
         O            1.117793377868     1.436440772175    -0.337829956015    15.994914619570
         C           -1.718294622132    -0.071476227825     0.236065043985    12.000000000000
         C           -0.519839622132    -0.624473227825    -0.531711956015    12.000000000000
         C           -1.991756622132     1.395624772175    -0.090150956015    12.000000000000
         C           -2.960076622132    -0.921386227825    -0.036936956015    12.000000000000
         H           -1.466456622132    -0.150904227825     1.300646043985     1.007825032230
         H           -0.602610622132    -0.406335227825    -1.603594956015     1.007825032230
         H           -0.465350622132    -1.712263227825    -0.411220956015     1.007825032230
         H           -2.278979622132     1.498911772175    -1.144605956015     1.007825032230
         H           -1.095118622132     1.994119772175     0.075083043985     1.007825032230
         H           -2.815889622132     1.782525772175     0.522295043985     1.007825032230
         H           -3.215113622132    -0.896816227825    -1.103552956015     1.007825032230
         H           -2.797019622132    -1.967163227825     0.245978043985     1.007825032230
         H           -3.826626622132    -0.548228227825     0.522733043985     1.007825032230

  Basis Set: AUG-CC-PVTZ
    Blend: AUG-CC-PVTZ
  Basis Set: (AUG-CC-PVTZ AUX)
    Blend: AUG-CC-PVTZ-JKFIT
	 Reference Energy          =    -779.0119380870734176 [Eh]
	 Singles Energy            =      -0.0000000000000000 [Eh]
	 Same-Spin Energy          =      -0.4485255038126268 [Eh]
	 Opposite-Spin Energy      =      -1.3746154005252689 [Eh]
	 Correlation Energy        =      -1.8231409043378957 [Eh]
	 Total Energy              =    -780.8350789914113648 [Eh]

	 ================> DF-SCS-MP2 Energies <==================
	-----------------------------------------------------------
	 SCS Same-Spin Scale       =       0.3333333333333333 [-]
	 SCS Opposite-Spin Scale   =       1.2000000000000000 [-]
	 SCS Same-Spin Energy      =      -0.1495085012708756 [Eh]
	 SCS Opposite-Spin Energy  =      -1.6495384806303226 [Eh]
	 SCS Correlation Energy    =      -1.7990469819011983 [Eh]
	 SCS Total Energy          =    -780.8109850689745599 [Eh]
	-----------------------------------------------------------

  Dipole Moment: [D]
     X:    -7.1790      Y:    -0.5735      Z:    -0.7530     Total:     7.2411

*** Psi4 exiting successfully. Buy a developer a beer!
