                               Psi4 1.4a3.dev225

  ==> Input File <==

--------------------------------------------------------------------------
#psi4
#
memory 32 gb

molecule  {
-1 1
  S        1.2336270    -0.0202320     0.0299590
  O        1.2252410    -0.2825260     1.4971370
  O        2.1958480    -0.8505260    -0.7431210
  O        1.2556930     1.4274900    -0.3299320
  C       -1.5803950    -0.0804270     0.2439630
  C       -0.3819400    -0.6334240    -0.5238140
  C       -1.8538570     1.3866740    -0.0822530
  C       -2.8221770    -0.9303370    -0.0290390
  H       -1.3285570    -0.1598550     1.3085440
  H       -0.4647110    -0.4152860    -1.5956970
  H       -0.3299373    -1.6715794    -0.4088209
  H       -2.1410800     1.4899610    -1.1367080
  H       -0.9572190     1.9851690     0.0829810
  H       -2.6779900     1.7735750     0.5301930
  H       -3.0772140    -0.9057670    -1.0956550
  H       -2.6591200    -1.9761140     0.2538760
  H       -3.6887270    -0.5571790     0.5306310
units angstrom
no_reorient  #important for SAPT in psi4, default
symmetry c1  #important for SAPT in psi4, default
}

set PROPERTIES_ORIGIN ["COM"]
properties('MP2/aug-cc-pvtz', properties = ['dipole'])
--------------------------------------------------------------------------

    Molecular point group: c1
  Charge       = -1
  Multiplicity = 1
  Basis Set: AUG-CC-PVTZ
    Blend: AUG-CC-PVTZ
  Basis Set: (AUG-CC-PVTZ AUX)
    Blend: AUG-CC-PVTZ-JKFIT

    Orbital Energies [Eh]
    ---------------------

    Doubly Occupied:

       1A    -91.999559     2A    -20.341635     3A    -20.340788
       4A    -20.340674     5A    -11.108430     6A    -11.103954
       7A    -11.092320     8A    -11.084377     9A     -8.961181
      10A     -6.646514    11A     -6.646060    12A     -6.646036
      13A     -1.258113    14A     -1.115353    15A     -1.114487
      16A     -0.967070    17A     -0.830044    18A     -0.811173
      19A     -0.664276    20A     -0.610055    21A     -0.521458
      22A     -0.495445    23A     -0.483587    24A     -0.460351
      25A     -0.447176    26A     -0.436251    27A     -0.421131
      28A     -0.404609    29A     -0.368835    30A     -0.350990
      31A     -0.340758    32A     -0.320397    33A     -0.320329
      34A     -0.277921    35A     -0.276228    36A     -0.248561
      37A     -0.240040

  @DF-RHF Final Energy:  -779.01370651637831

   => Energetics <=

    Nuclear Repulsion Energy =            517.1228171378772913
    One-Electron Energy =               -2112.0807121361626741
    Two-Electron Energy =                 815.9441884819070765
    Total Energy =                       -779.0137065163783063
  Basis Set: (AUG-CC-PVTZ AUX)
    Blend: AUG-CC-PVTZ-RI
    Molecular point group: c1

    Geometry (in Angstrom), charge = -1, multiplicity = 1:

       Center              X                  Y                   Z               Mass
    ------------   -----------------  -----------------  -----------------  -----------------
         S            1.108646080243    -0.024114353585     0.018978049668    31.972071174400
         O            1.100260080243    -0.286408353585     1.486156049668    15.994914619570
         O            2.070867080243    -0.854408353585    -0.754101950332    15.994914619570
         O            1.130712080243     1.423607646415    -0.340912950332    15.994914619570
         C           -1.705375919757    -0.084309353585     0.232982049668    12.000000000000
         C           -0.506920919757    -0.637306353585    -0.534794950332    12.000000000000
         C           -1.978837919757     1.382791646415    -0.093233950332    12.000000000000
         C           -2.947157919757    -0.934219353585    -0.040019950332    12.000000000000
         H           -1.453537919757    -0.163737353585     1.297563049668     1.007825032230
         H           -0.589691919757    -0.419168353585    -1.606677950332     1.007825032230
         H           -0.454918219757    -1.675461753585    -0.419801850332     1.007825032230
         H           -2.266060919757     1.486078646415    -1.147688950332     1.007825032230
         H           -1.082199919757     1.981286646415     0.072000049668     1.007825032230
         H           -2.802970919757     1.769692646415     0.519212049668     1.007825032230
         H           -3.202194919757    -0.909649353585    -1.106635950332     1.007825032230
         H           -2.784100919757    -1.979996353585     0.242895049668     1.007825032230
         H           -3.813707919757    -0.561061353585     0.519650049668     1.007825032230

  Basis Set: AUG-CC-PVTZ
    Blend: AUG-CC-PVTZ
  Basis Set: (AUG-CC-PVTZ AUX)
    Blend: AUG-CC-PVTZ-JKFIT
	 Reference Energy          =    -779.0137065163783063 [Eh]
	 Singles Energy            =      -0.0000000000000000 [Eh]
	 Same-Spin Energy          =      -0.4485767607089614 [Eh]
	 Opposite-Spin Energy      =      -1.3743880603094729 [Eh]
	 Correlation Energy        =      -1.8229648210184344 [Eh]
	 Total Energy              =    -780.8366713373967514 [Eh]

	 ================> DF-SCS-MP2 Energies <==================
	-----------------------------------------------------------
	 SCS Same-Spin Scale       =       0.3333333333333333 [-]
	 SCS Opposite-Spin Scale   =       1.2000000000000000 [-]
	 SCS Same-Spin Energy      =      -0.1495255869029871 [Eh]
	 SCS Opposite-Spin Energy  =      -1.6492656723713675 [Eh]
	 SCS Correlation Energy    =      -1.7987912592743547 [Eh]
	 SCS Total Energy          =    -780.8124977756526732 [Eh]
	-----------------------------------------------------------

  Dipole Moment: [D]
     X:    -6.8507      Y:    -0.8609      Z:    -0.7936     Total:     6.9500

*** Psi4 exiting successfully. Buy a developer a beer!
