                               Psi4 1.4a3.dev225

  ==> Input File <==

--------------------------------------------------------------------------
#psi4
#
memory 32 gb

molecule  {
-1 1
  S        1.2336270    -0.0202320     0.0299590
  O        1.2252410    -0.2825260     1.4971370
  O        2.1958480    -0.8505260    -0.7431210
  O        1.2556930     1.4274900    -0.3299320
  C       -1.5803950    -0.0804270     0.2439630
  C       -0.3819400    -0.6334240    -0.5238140
  C       -1.8538570     1.3866740    -0.0822530
  C       -2.8221770    -0.9303370    -0.0290390
  H       -1.3285570    -0.1598550     1.3085440
  H       -0.4647110    -0.4152860    -1.5956970
  H       -0.3274510    -1.7212140    -0.4033230
  H       -2.1410800     1.4899610    -1.1367080
  H       -0.9572190     1.9851690     0.0829810
  H       -2.6779900     1.7735750     0.5301930
  H       -3.0772140    -0.9057670    -1.0956550
  H       -2.6293534    -2.1670238     0.3055230
  H       -3.6887270    -0.5571790     0.5306310
units angstrom
no_reorient  #important for SAPT in psi4, default
symmetry c1  #important for SAPT in psi4, default
}

set PROPERTIES_ORIGIN ["COM"]
properties('MP2/aug-cc-pvtz', properties = ['dipole'])
--------------------------------------------------------------------------

    Molecular point group: c1
  Charge       = -1
  Multiplicity = 1
  Basis Set: AUG-CC-PVTZ
    Blend: AUG-CC-PVTZ
  Basis Set: (AUG-CC-PVTZ AUX)
    Blend: AUG-CC-PVTZ-JKFIT

    Orbital Energies [Eh]
    ---------------------

    Doubly Occupied:

       1A    -92.000307     2A    -20.342018     3A    -20.341689
       4A    -20.341074     5A    -11.132686     6A    -11.107402
       7A    -11.098688     8A    -11.087914     9A     -8.961899
      10A     -6.647244    11A     -6.646781    12A     -6.646751
      13A     -1.258656    14A     -1.115692    15A     -1.115236
      16A     -0.966436    17A     -0.824764    18A     -0.804416
      19A     -0.663507    20A     -0.608880    21A     -0.520186
      22A     -0.491308    23A     -0.477575    24A     -0.454728
      25A     -0.445086    26A     -0.438642    27A     -0.421412
      28A     -0.394703    29A     -0.368464    30A     -0.346809
      31A     -0.338330    32A     -0.320994    33A     -0.320940
      34A     -0.278352    35A     -0.276454    36A     -0.249565
      37A     -0.240623

  @DF-RHF Final Energy:  -778.99491692232345

   => Energetics <=

    Nuclear Repulsion Energy =            516.0715116446890534
    One-Electron Energy =               -2109.9404342229481699
    Two-Electron Energy =                 814.8740056559356617
    Total Energy =                       -778.9949169223234549
  Basis Set: (AUG-CC-PVTZ AUX)
    Blend: AUG-CC-PVTZ-RI
    Molecular point group: c1

    Geometry (in Angstrom), charge = -1, multiplicity = 1:

       Center              X                  Y                   Z               Mass
    ------------   -----------------  -----------------  -----------------  -----------------
         S            1.108408862592    -0.022345167640     0.018557753233    31.972071174400
         O            1.100022862592    -0.284639167640     1.485735753233    15.994914619570
         O            2.070629862592    -0.852639167640    -0.754522246767    15.994914619570
         O            1.130474862592     1.425376832360    -0.341333246767    15.994914619570
         C           -1.705613137408    -0.082540167640     0.232561753233    12.000000000000
         C           -0.507158137408    -0.635537167640    -0.535215246767    12.000000000000
         C           -1.979075137408     1.384560832360    -0.093654246767    12.000000000000
         C           -2.947395137408    -0.932450167640    -0.040440246767    12.000000000000
         H           -1.453775137408    -0.161968167640     1.297142753233     1.007825032230
         H           -0.589929137408    -0.417399167640    -1.607098246767     1.007825032230
         H           -0.452669137408    -1.723327167640    -0.414724246767     1.007825032230
         H           -2.266298137408     1.487847832360    -1.148109246767     1.007825032230
         H           -1.082437137408     1.983055832360     0.071579753233     1.007825032230
         H           -2.803208137408     1.771461832360     0.518791753233     1.007825032230
         H           -3.202432137408    -0.907880167640    -1.107056246767     1.007825032230
         H           -2.754571537408    -2.169136967640     0.294121753233     1.007825032230
         H           -3.813945137408    -0.559292167640     0.519229753233     1.007825032230

  Basis Set: AUG-CC-PVTZ
    Blend: AUG-CC-PVTZ
  Basis Set: (AUG-CC-PVTZ AUX)
    Blend: AUG-CC-PVTZ-JKFIT
	 Reference Energy          =    -778.9949169223234549 [Eh]
	 Singles Energy            =      -0.0000000000000000 [Eh]
	 Same-Spin Energy          =      -0.4485971103846771 [Eh]
	 Opposite-Spin Energy      =      -1.3762455216471916 [Eh]
	 Correlation Energy        =      -1.8248426320318687 [Eh]
	 Total Energy              =    -780.8197595543553007 [Eh]

	 ================> DF-SCS-MP2 Energies <==================
	-----------------------------------------------------------
	 SCS Same-Spin Scale       =       0.3333333333333333 [-]
	 SCS Opposite-Spin Scale   =       1.2000000000000000 [-]
	 SCS Same-Spin Energy      =      -0.1495323701282257 [Eh]
	 SCS Opposite-Spin Energy  =      -1.6514946259766299 [Eh]
	 SCS Correlation Energy    =      -1.8010269961048555 [Eh]
	 SCS Total Energy          =    -780.7959439184282928 [Eh]
	-----------------------------------------------------------

  Dipole Moment: [D]
     X:    -6.8119      Y:    -0.6193      Z:    -0.8286     Total:     6.8900

*** Psi4 exiting successfully. Buy a developer a beer!
