                               Psi4 1.4a3.dev225

  ==> Input File <==

--------------------------------------------------------------------------
#psi4
#
memory 32 gb

molecule  {
-1 1
  S        1.2336270    -0.0202320     0.0299590
  O        1.2252410    -0.2825260     1.4971370
  O        2.1958480    -0.8505260    -0.7431210
  O        1.2556930     1.4274900    -0.3299320
  C       -1.5803950    -0.0804270     0.2439630
  C       -0.3819400    -0.6334240    -0.5238140
  C       -1.8538570     1.3866740    -0.0822530
  C       -2.8221770    -0.9303370    -0.0290390
  H       -1.2826365    -0.1743380     1.5026614
  H       -0.4647110    -0.4152860    -1.5956970
  H       -0.3274510    -1.7212140    -0.4033230
  H       -2.1410800     1.4899610    -1.1367080
  H       -0.9572190     1.9851690     0.0829810
  H       -2.6779900     1.7735750     0.5301930
  H       -3.0772140    -0.9057670    -1.0956550
  H       -2.6591200    -1.9761140     0.2538760
  H       -3.6887270    -0.5571790     0.5306310
units angstrom
no_reorient  #important for SAPT in psi4, default
symmetry c1  #important for SAPT in psi4, default
}

set PROPERTIES_ORIGIN ["COM"]
properties('MP2/aug-cc-pvtz', properties = ['dipole'])
--------------------------------------------------------------------------

    Molecular point group: c1
  Charge       = -1
  Multiplicity = 1
  Basis Set: AUG-CC-PVTZ
    Blend: AUG-CC-PVTZ
  Basis Set: (AUG-CC-PVTZ AUX)
    Blend: AUG-CC-PVTZ-JKFIT

    Orbital Energies [Eh]
    ---------------------

    Doubly Occupied:

       1A    -92.000238     2A    -20.341500     3A    -20.341158
       4A    -20.341106     5A    -11.126174     6A    -11.109960
       7A    -11.100518     8A    -11.086703     9A     -8.961813
      10A     -6.647179    11A     -6.646693    12A     -6.646653
      13A     -1.258357    14A     -1.115366    15A     -1.114903
      16A     -0.962296    17A     -0.828036    18A     -0.812167
      19A     -0.652451    20A     -0.600395    21A     -0.514638
      22A     -0.492300    23A     -0.484079    24A     -0.460033
      25A     -0.447017    26A     -0.437340    27A     -0.421074
      28A     -0.403217    29A     -0.369556    30A     -0.352238
      31A     -0.325741    32A     -0.320633    33A     -0.308382
      34A     -0.277222    35A     -0.276052    36A     -0.249594
      37A     -0.240034

  @DF-RHF Final Energy:  -778.99443039263610

   => Energetics <=

    Nuclear Repulsion Energy =            515.9716323551507458
    One-Electron Energy =               -2109.7864944982293309
    Two-Electron Energy =                 814.8204317504425944
    Total Energy =                       -778.9944303926361044
  Basis Set: (AUG-CC-PVTZ AUX)
    Blend: AUG-CC-PVTZ-RI
    Molecular point group: c1

    Geometry (in Angstrom), charge = -1, multiplicity = 1:

       Center              X                  Y                   Z               Mass
    ------------   -----------------  -----------------  -----------------  -----------------
         S            1.108290051874    -0.023642773466     0.017509894171    31.972071174400
         O            1.099904051874    -0.285936773466     1.484687894171    15.994914619570
         O            2.070511051874    -0.853936773466    -0.755570105829    15.994914619570
         O            1.130356051874     1.424079226534    -0.342381105829    15.994914619570
         C           -1.705731948126    -0.083837773466     0.231513894171    12.000000000000
         C           -0.507276948126    -0.636834773466    -0.536263105829    12.000000000000
         C           -1.979193948126     1.383263226534    -0.094702105829    12.000000000000
         C           -2.947513948126    -0.933747773466    -0.041488105829    12.000000000000
         H           -1.407973448126    -0.177748773466     1.490212294171     1.007825032230
         H           -0.590047948126    -0.418696773466    -1.608146105829     1.007825032230
         H           -0.452787948126    -1.724624773466    -0.415772105829     1.007825032230
         H           -2.266416948126     1.486550226534    -1.149157105829     1.007825032230
         H           -1.082555948126     1.981758226534     0.070531894171     1.007825032230
         H           -2.803326948126     1.770164226534     0.517743894171     1.007825032230
         H           -3.202550948126    -0.909177773466    -1.108104105829     1.007825032230
         H           -2.784456948126    -1.979524773466     0.241426894171     1.007825032230
         H           -3.814063948126    -0.560589773466     0.518181894171     1.007825032230

  Basis Set: AUG-CC-PVTZ
    Blend: AUG-CC-PVTZ
  Basis Set: (AUG-CC-PVTZ AUX)
    Blend: AUG-CC-PVTZ-JKFIT
	 Reference Energy          =    -778.9944303926361044 [Eh]
	 Singles Energy            =      -0.0000000000000000 [Eh]
	 Same-Spin Energy          =      -0.4490901242862042 [Eh]
	 Opposite-Spin Energy      =      -1.3767624661101201 [Eh]
	 Correlation Energy        =      -1.8258525903963243 [Eh]
	 Total Energy              =    -780.8202829830324845 [Eh]

	 ================> DF-SCS-MP2 Energies <==================
	-----------------------------------------------------------
	 SCS Same-Spin Scale       =       0.3333333333333333 [-]
	 SCS Opposite-Spin Scale   =       1.2000000000000000 [-]
	 SCS Same-Spin Energy      =      -0.1496967080954014 [Eh]
	 SCS Opposite-Spin Energy  =      -1.6521149593321440 [Eh]
	 SCS Correlation Energy    =      -1.8018116674275455 [Eh]
	 SCS Total Energy          =    -780.7962420600636051 [Eh]
	-----------------------------------------------------------

  Dipole Moment: [D]
     X:    -6.8146      Y:    -0.8152      Z:    -0.8975     Total:     6.9216

*** Psi4 exiting successfully. Buy a developer a beer!
