                               Psi4 1.4a3.dev225

  ==> Input File <==

--------------------------------------------------------------------------
#psi4
#
memory 32 gb

molecule  {
-1 1
  S        1.2336270    -0.0202320     0.0299590
  O        1.2252410    -0.2825260     1.4971370
  O        2.1958480    -0.8505260    -0.7431210
  O        1.2556930     1.4274900    -0.3299320
  C       -1.5803950    -0.0804270     0.2439630
  C       -0.3819400    -0.6334240    -0.5238140
  C       -1.8538570     1.3866740    -0.0822530
  C       -2.8221770    -0.9303370    -0.0290390
  H       -1.3285570    -0.1598550     1.3085440
  H       -0.4647110    -0.4152860    -1.5956970
  H       -0.3373961    -1.5226757    -0.4253145
  H       -2.1410800     1.4899610    -1.1367080
  H       -0.9572190     1.9851690     0.0829810
  H       -2.6779900     1.7735750     0.5301930
  H       -3.0772140    -0.9057670    -1.0956550
  H       -2.6591200    -1.9761140     0.2538760
  H       -3.6887270    -0.5571790     0.5306310
units angstrom
no_reorient  #important for SAPT in psi4, default
symmetry c1  #important for SAPT in psi4, default
}

set PROPERTIES_ORIGIN ["COM"]
properties('MP2/aug-cc-pvtz', properties = ['dipole'])
--------------------------------------------------------------------------

    Molecular point group: c1
  Charge       = -1
  Multiplicity = 1
  Basis Set: AUG-CC-PVTZ
    Blend: AUG-CC-PVTZ
  Basis Set: (AUG-CC-PVTZ AUX)
    Blend: AUG-CC-PVTZ-JKFIT

    Orbital Energies [Eh]
    ---------------------

    Doubly Occupied:

       1A    -91.998933     2A    -20.341771     3A    -20.341155
       4A    -20.339610     5A    -11.108681     6A    -11.103154
       7A    -11.083518     8A    -11.074098     9A     -8.960616
      10A     -6.645924    11A     -6.645494    12A     -6.645476
      13A     -1.258004    14A     -1.115544    15A     -1.113972
      16A     -0.970790    17A     -0.844882    18A     -0.811758
      19A     -0.664681    20A     -0.618094    21A     -0.526480
      22A     -0.507147    23A     -0.484003    24A     -0.460376
      25A     -0.448365    26A     -0.435955    27A     -0.422465
      28A     -0.409249    29A     -0.369686    30A     -0.352821
      31A     -0.340466    32A     -0.320392    33A     -0.320100
      34A     -0.278020    35A     -0.277035    36A     -0.248036
      37A     -0.239821

  @DF-RHF Final Energy:  -778.98158381728229

   => Energetics <=

    Nuclear Repulsion Energy =            518.0695746363040826
    One-Electron Energy =               -2113.8491753826633612
    Two-Electron Energy =                 816.7980169290771073
    Total Energy =                       -778.9815838172822851
  Basis Set: (AUG-CC-PVTZ AUX)
    Blend: AUG-CC-PVTZ-RI
    Molecular point group: c1

    Geometry (in Angstrom), charge = -1, multiplicity = 1:

       Center              X                  Y                   Z               Mass
    ------------   -----------------  -----------------  -----------------  -----------------
         S            1.108700939155    -0.025209529083     0.019099358854    31.972071174400
         O            1.100314939155    -0.287503529083     1.486277358854    15.994914619570
         O            2.070921939155    -0.855503529083    -0.753980641146    15.994914619570
         O            1.130766939155     1.422512470917    -0.340791641146    15.994914619570
         C           -1.705321060845    -0.085404529083     0.233103358854    12.000000000000
         C           -0.506866060845    -0.638401529083    -0.534673641146    12.000000000000
         C           -1.978783060845     1.381696470917    -0.093112641146    12.000000000000
         C           -2.947103060845    -0.935314529083    -0.039898641146    12.000000000000
         H           -1.453483060845    -0.164832529083     1.297684358854     1.007825032230
         H           -0.589637060845    -0.420263529083    -1.606556641146     1.007825032230
         H           -0.462322160845    -1.527653229083    -0.436174141146     1.007825032230
         H           -2.266006060845     1.484983470917    -1.147567641146     1.007825032230
         H           -1.082145060845     1.980191470917     0.072121358854     1.007825032230
         H           -2.802916060845     1.768597470917     0.519333358854     1.007825032230
         H           -3.202140060845    -0.910744529083    -1.106514641146     1.007825032230
         H           -2.784046060845    -1.981091529083     0.243016358854     1.007825032230
         H           -3.813653060845    -0.562156529083     0.519771358854     1.007825032230

  Basis Set: AUG-CC-PVTZ
    Blend: AUG-CC-PVTZ
  Basis Set: (AUG-CC-PVTZ AUX)
    Blend: AUG-CC-PVTZ-JKFIT
	 Reference Energy          =    -778.9815838172822851 [Eh]
	 Singles Energy            =      -0.0000000000000000 [Eh]
	 Same-Spin Energy          =      -0.4484684301809069 [Eh]
	 Opposite-Spin Energy      =      -1.3739285544912399 [Eh]
	 Correlation Energy        =      -1.8223969846721468 [Eh]
	 Total Energy              =    -780.8039808019544807 [Eh]

	 ================> DF-SCS-MP2 Energies <==================
	-----------------------------------------------------------
	 SCS Same-Spin Scale       =       0.3333333333333333 [-]
	 SCS Opposite-Spin Scale   =       1.2000000000000000 [-]
	 SCS Same-Spin Energy      =      -0.1494894767269689 [Eh]
	 SCS Opposite-Spin Energy  =      -1.6487142653894877 [Eh]
	 SCS Correlation Energy    =      -1.7982037421164567 [Eh]
	 SCS Total Energy          =    -780.7797875593987555 [Eh]
	-----------------------------------------------------------

  Dipole Moment: [D]
     X:    -6.8565      Y:    -0.9189      Z:    -0.8031     Total:     6.9642

*** Psi4 exiting successfully. Buy a developer a beer!
