                               Psi4 1.4a3.dev225

  ==> Input File <==

--------------------------------------------------------------------------
#psi4
#
memory 32 gb

molecule  {
-1 1
  S        1.2336270    -0.0202320     0.0299590
  O        1.2252410    -0.2825260     1.4971370
  O        2.1958480    -0.8505260    -0.7431210
  O        1.2556930     1.4274900    -0.3299320
  C       -1.5803950    -0.0804270     0.2439630
  C       -0.3819400    -0.6334240    -0.5238140
  C       -1.8538570     1.3866740    -0.0822530
  C       -2.8221770    -0.9303370    -0.0290390
  H       -1.3400371    -0.1562342     1.2600147
  H       -0.4647110    -0.4152860    -1.5956970
  H       -0.3274510    -1.7212140    -0.4033230
  H       -2.1410800     1.4899610    -1.1367080
  H       -0.9572190     1.9851690     0.0829810
  H       -2.6779900     1.7735750     0.5301930
  H       -3.0772140    -0.9057670    -1.0956550
  H       -2.6591200    -1.9761140     0.2538760
  H       -3.6887270    -0.5571790     0.5306310
units angstrom
no_reorient  #important for SAPT in psi4, default
symmetry c1  #important for SAPT in psi4, default
}

set PROPERTIES_ORIGIN ["COM"]
properties('MP2/aug-cc-pvtz', properties = ['dipole'])
--------------------------------------------------------------------------

    Molecular point group: c1
  Charge       = -1
  Multiplicity = 1
  Basis Set: AUG-CC-PVTZ
    Blend: AUG-CC-PVTZ
  Basis Set: (AUG-CC-PVTZ AUX)
    Blend: AUG-CC-PVTZ-JKFIT

    Orbital Energies [Eh]
    ---------------------

    Doubly Occupied:

       1A    -91.999840     2A    -20.341736     3A    -20.341107
       4A    -20.340638     5A    -11.108048     6A    -11.098533
       7A    -11.097754     8A    -11.084419     9A     -8.961431
      10A     -6.646772    11A     -6.646312    12A     -6.646286
      13A     -1.258211    14A     -1.115347    15A     -1.114701
      16A     -0.968317    17A     -0.826486    18A     -0.810636
      19A     -0.669609    20A     -0.610282    21A     -0.522383
      22A     -0.491412    23A     -0.482993    24A     -0.460509
      25A     -0.446756    26A     -0.436259    27A     -0.420915
      28A     -0.402476    29A     -0.368435    30A     -0.350021
      31A     -0.346133    32A     -0.320996    33A     -0.320424
      34A     -0.277981    35A     -0.275837    36A     -0.248708
      37A     -0.240193

  @DF-RHF Final Energy:  -779.01368135962502

   => Energetics <=

    Nuclear Repulsion Energy =            517.0834102225942388
    One-Electron Energy =               -2111.9963919805750265
    Two-Electron Energy =                 815.8993003983557628
    Total Energy =                       -779.0136813596250249
  Basis Set: (AUG-CC-PVTZ AUX)
    Blend: AUG-CC-PVTZ-RI
    Molecular point group: c1

    Geometry (in Angstrom), charge = -1, multiplicity = 1:

       Center              X                  Y                   Z               Mass
    ------------   -----------------  -----------------  -----------------  -----------------
         S            1.108712228964    -0.023775925551     0.019294542374    31.972071174400
         O            1.100326228964    -0.286069925551     1.486472542374    15.994914619570
         O            2.070933228964    -0.854069925551    -0.753785457626    15.994914619570
         O            1.130778228964     1.423946074449    -0.340596457626    15.994914619570
         C           -1.705309771036    -0.083970925551     0.233298542374    12.000000000000
         C           -0.506854771036    -0.636967925551    -0.534478457626    12.000000000000
         C           -1.978771771036     1.383130074449    -0.092917457626    12.000000000000
         C           -2.947091771036    -0.933880925551    -0.039703457626    12.000000000000
         H           -1.464951871036    -0.159778125551     1.249350242374     1.007825032230
         H           -0.589625771036    -0.418829925551    -1.606361457626     1.007825032230
         H           -0.452365771036    -1.724757925551    -0.413987457626     1.007825032230
         H           -2.265994771036     1.486417074449    -1.147372457626     1.007825032230
         H           -1.082133771036     1.981625074449     0.072316542374     1.007825032230
         H           -2.802904771036     1.770031074449     0.519528542374     1.007825032230
         H           -3.202128771036    -0.909310925551    -1.106319457626     1.007825032230
         H           -2.784034771036    -1.979657925551     0.243211542374     1.007825032230
         H           -3.813641771036    -0.560722925551     0.519966542374     1.007825032230

  Basis Set: AUG-CC-PVTZ
    Blend: AUG-CC-PVTZ
  Basis Set: (AUG-CC-PVTZ AUX)
    Blend: AUG-CC-PVTZ-JKFIT
	 Reference Energy          =    -779.0136813596250249 [Eh]
	 Singles Energy            =      -0.0000000000000000 [Eh]
	 Same-Spin Energy          =      -0.4485610091620438 [Eh]
	 Opposite-Spin Energy      =      -1.3743788923733531 [Eh]
	 Correlation Energy        =      -1.8229399015353969 [Eh]
	 Total Energy              =    -780.8366212611604169 [Eh]

	 ================> DF-SCS-MP2 Energies <==================
	-----------------------------------------------------------
	 SCS Same-Spin Scale       =       0.3333333333333333 [-]
	 SCS Opposite-Spin Scale   =       1.2000000000000000 [-]
	 SCS Same-Spin Energy      =      -0.1495203363873479 [Eh]
	 SCS Opposite-Spin Energy  =      -1.6492546708480236 [Eh]
	 SCS Correlation Energy    =      -1.7987750072353714 [Eh]
	 SCS Total Energy          =    -780.8124563668603741 [Eh]
	-----------------------------------------------------------

  Dipole Moment: [D]
     X:    -6.8549      Y:    -0.8343      Z:    -0.7741     Total:     6.9488

*** Psi4 exiting successfully. Buy a developer a beer!
