                               Psi4 1.4a3.dev225

  ==> Input File <==

--------------------------------------------------------------------------
#psi4
#
memory 32 gb

molecule  {
-1 1
  S        1.2336270    -0.0202320     0.0299590
  O        1.2252410    -0.2825260     1.4971370
  O        2.1958480    -0.8505260    -0.7431210
  O        1.2556930     1.4274900    -0.3299320
  C       -1.5803950    -0.0804270     0.2439630
  C       -0.3819400    -0.6334240    -0.5238140
  C       -1.8538570     1.3866740    -0.0822530
  C       -2.8221770    -0.9303370    -0.0290390
  H       -1.3285570    -0.1598550     1.3085440
  H       -0.4647110    -0.4152860    -1.5956970
  H       -0.3274510    -1.7212140    -0.4033230
  H       -2.1410800     1.4899610    -1.1367080
  H       -0.9407763     1.9961443     0.0860111
  H       -2.6779900     1.7735750     0.5301930
  H       -3.0772140    -0.9057670    -1.0956550
  H       -2.6591200    -1.9761140     0.2538760
  H       -3.6887270    -0.5571790     0.5306310
units angstrom
no_reorient  #important for SAPT in psi4, default
symmetry c1  #important for SAPT in psi4, default
}

set PROPERTIES_ORIGIN ["COM"]
properties('MP2/aug-cc-pvtz', properties = ['dipole'])
--------------------------------------------------------------------------

    Molecular point group: c1
  Charge       = -1
  Multiplicity = 1
  Basis Set: AUG-CC-PVTZ
    Blend: AUG-CC-PVTZ
  Basis Set: (AUG-CC-PVTZ AUX)
    Blend: AUG-CC-PVTZ-JKFIT

    Orbital Energies [Eh]
    ---------------------

    Doubly Occupied:

       1A    -91.999935     2A    -20.341670     3A    -20.341205
       4A    -20.340744     5A    -11.108432     6A    -11.104429
       7A    -11.098337     8A    -11.086734     9A     -8.961526
      10A     -6.646870    11A     -6.646407    12A     -6.646378
      13A     -1.258279    14A     -1.115366    15A     -1.114825
      16A     -0.966197    17A     -0.826739    18A     -0.809300
      19A     -0.663918    20A     -0.608215    21A     -0.520600
      22A     -0.491545    23A     -0.482112    24A     -0.460270
      25A     -0.446702    26A     -0.435843    27A     -0.420611
      28A     -0.402414    29A     -0.366865    30A     -0.349850
      31A     -0.340903    32A     -0.320493    33A     -0.320293
      34A     -0.277987    35A     -0.275758    36A     -0.248844
      37A     -0.240179

  @DF-RHF Final Energy:  -779.01390654745683

   => Energetics <=

    Nuclear Repulsion Energy =            516.7767809170370583
    One-Electron Energy =               -2111.4078297006130924
    Two-Electron Energy =                 815.6171422361192072
    Total Energy =                       -779.0139065474568270
  Basis Set: (AUG-CC-PVTZ AUX)
    Blend: AUG-CC-PVTZ-RI
    Molecular point group: c1

    Geometry (in Angstrom), charge = -1, multiplicity = 1:

       Center              X                  Y                   Z               Mass
    ------------   -----------------  -----------------  -----------------  -----------------
         S            1.108506858873    -0.023830017345     0.018915326871    31.972071174400
         O            1.100120858873    -0.286124017345     1.486093326871    15.994914619570
         O            2.070727858873    -0.854124017345    -0.754164673129    15.994914619570
         O            1.130572858873     1.423891982655    -0.340975673129    15.994914619570
         C           -1.705515141127    -0.084025017345     0.232919326871    12.000000000000
         C           -0.507060141127    -0.637022017345    -0.534857673129    12.000000000000
         C           -1.978977141127     1.383075982655    -0.093296673129    12.000000000000
         C           -2.947297141127    -0.933935017345    -0.040082673129    12.000000000000
         H           -1.453677141127    -0.163453017345     1.297500326871     1.007825032230
         H           -0.589831141127    -0.418884017345    -1.606740673129     1.007825032230
         H           -0.452571141127    -1.724812017345    -0.414366673129     1.007825032230
         H           -2.266200141127     1.486362982655    -1.147751673129     1.007825032230
         H           -1.065896441127     1.992546282655     0.074967426871     1.007825032230
         H           -2.803110141127     1.769976982655     0.519149326871     1.007825032230
         H           -3.202334141127    -0.909365017345    -1.106698673129     1.007825032230
         H           -2.784240141127    -1.979712017345     0.242832326871     1.007825032230
         H           -3.813847141127    -0.560777017345     0.519587326871     1.007825032230

  Basis Set: AUG-CC-PVTZ
    Blend: AUG-CC-PVTZ
  Basis Set: (AUG-CC-PVTZ AUX)
    Blend: AUG-CC-PVTZ-JKFIT
	 Reference Energy          =    -779.0139065474568270 [Eh]
	 Singles Energy            =      -0.0000000000000000 [Eh]
	 Same-Spin Energy          =      -0.4487085028380237 [Eh]
	 Opposite-Spin Energy      =      -1.3749228538714995 [Eh]
	 Correlation Energy        =      -1.8236313567095230 [Eh]
	 Total Energy              =    -780.8375379041663109 [Eh]

	 ================> DF-SCS-MP2 Energies <==================
	-----------------------------------------------------------
	 SCS Same-Spin Scale       =       0.3333333333333333 [-]
	 SCS Opposite-Spin Scale   =       1.2000000000000000 [-]
	 SCS Same-Spin Energy      =      -0.1495695009460079 [Eh]
	 SCS Opposite-Spin Energy  =      -1.6499074246457994 [Eh]
	 SCS Correlation Energy    =      -1.7994769255918073 [Eh]
	 SCS Total Energy          =    -780.8133834730485887 [Eh]
	-----------------------------------------------------------

  Dipole Moment: [D]
     X:    -6.8394      Y:    -0.8385      Z:    -0.7907     Total:     6.9359

*** Psi4 exiting successfully. Buy a developer a beer!
