                               Psi4 1.4a3.dev225

  ==> Input File <==

--------------------------------------------------------------------------
#psi4
#
memory 32 gb

molecule  {
-1 1
  S        1.2336270    -0.0202320     0.0299590
  O        1.2252410    -0.2825260     1.4971370
  O        2.1958480    -0.8505260    -0.7431210
  O        1.2556930     1.4274900    -0.3299320
  C       -1.5803950    -0.0804270     0.2439630
  C       -0.4709722    -0.6672164    -0.5543319
  C       -1.8538570     1.3866740    -0.0822530
  C       -2.8221770    -0.9303370    -0.0290390
  H       -1.3285570    -0.1598550     1.3085440
  H       -0.4647110    -0.4152860    -1.5956970
  H       -0.3274510    -1.7212140    -0.4033230
  H       -2.1410800     1.4899610    -1.1367080
  H       -0.9572190     1.9851690     0.0829810
  H       -2.6779900     1.7735750     0.5301930
  H       -3.0772140    -0.9057670    -1.0956550
  H       -2.6591200    -1.9761140     0.2538760
  H       -3.6887270    -0.5571790     0.5306310
units angstrom
no_reorient  #important for SAPT in psi4, default
symmetry c1  #important for SAPT in psi4, default
}

set PROPERTIES_ORIGIN ["COM"]
properties('MP2/aug-cc-pvtz', properties = ['dipole'])
--------------------------------------------------------------------------

    Molecular point group: c1
  Charge       = -1
  Multiplicity = 1
  Basis Set: AUG-CC-PVTZ
    Blend: AUG-CC-PVTZ
  Basis Set: (AUG-CC-PVTZ AUX)
    Blend: AUG-CC-PVTZ-JKFIT

    Orbital Energies [Eh]
    ---------------------

    Doubly Occupied:

       1A    -91.998491     2A    -20.342532     3A    -20.341742
       4A    -20.341708     5A    -11.106491     6A    -11.101830
       7A    -11.096477     8A    -11.085484     9A     -8.959744
      10A     -6.644884    11A     -6.644557    12A     -6.644529
      13A     -1.255781    14A     -1.115007    15A     -1.114285
      16A     -0.971687    17A     -0.819557    18A     -0.811613
      19A     -0.661422    20A     -0.608262    21A     -0.523353
      22A     -0.491158    23A     -0.484008    24A     -0.458028
      25A     -0.446875    26A     -0.437149    27A     -0.420879
      28A     -0.405541    29A     -0.369926    30A     -0.356850
      31A     -0.344744    32A     -0.321311    33A     -0.320056
      34A     -0.279341    35A     -0.277554    36A     -0.240902
      37A     -0.228802

  @DF-RHF Final Energy:  -779.00688575336437

   => Energetics <=

    Nuclear Repulsion Energy =            515.3544603044789483
    One-Electron Energy =               -2108.5775731818780514
    Two-Electron Energy =                 814.2162271240348446
    Total Energy =                       -779.0068857533643722
  Basis Set: (AUG-CC-PVTZ AUX)
    Blend: AUG-CC-PVTZ-RI
    Molecular point group: c1

    Geometry (in Angstrom), charge = -1, multiplicity = 1:

       Center              X                  Y                   Z               Mass
    ------------   -----------------  -----------------  -----------------  -----------------
         S            1.116424684279    -0.020789965009     0.021610182359    31.972071174400
         O            1.108038684279    -0.283083965009     1.488788182359    15.994914619570
         O            2.078645684279    -0.851083965009    -0.751469817641    15.994914619570
         O            1.138490684279     1.426932034991    -0.338280817641    15.994914619570
         C           -1.697597315721    -0.080984965009     0.235614182359    12.000000000000
         C           -0.588174515721    -0.667774365009    -0.562680717641    12.000000000000
         C           -1.971059315721     1.386116034991    -0.090601817641    12.000000000000
         C           -2.939379315721    -0.930894965009    -0.037387817641    12.000000000000
         H           -1.445759315721    -0.160412965009     1.300195182359     1.007825032230
         H           -0.581913315721    -0.415843965009    -1.604045817641     1.007825032230
         H           -0.444653315721    -1.721771965009    -0.411671817641     1.007825032230
         H           -2.258282315721     1.489403034991    -1.145056817641     1.007825032230
         H           -1.074421315721     1.984611034991     0.074632182359     1.007825032230
         H           -2.795192315721     1.773017034991     0.521844182359     1.007825032230
         H           -3.194416315721    -0.906324965009    -1.104003817641     1.007825032230
         H           -2.776322315721    -1.976671965009     0.245527182359     1.007825032230
         H           -3.805929315721    -0.557736965009     0.522282182359     1.007825032230

  Basis Set: AUG-CC-PVTZ
    Blend: AUG-CC-PVTZ
  Basis Set: (AUG-CC-PVTZ AUX)
    Blend: AUG-CC-PVTZ-JKFIT
	 Reference Energy          =    -779.0068857533643722 [Eh]
	 Singles Energy            =      -0.0000000000000000 [Eh]
	 Same-Spin Energy          =      -0.4494422538045664 [Eh]
	 Opposite-Spin Energy      =      -1.3762624479317700 [Eh]
	 Correlation Energy        =      -1.8257047017363364 [Eh]
	 Total Energy              =    -780.8325904551006715 [Eh]

	 ================> DF-SCS-MP2 Energies <==================
	-----------------------------------------------------------
	 SCS Same-Spin Scale       =       0.3333333333333333 [-]
	 SCS Opposite-Spin Scale   =       1.2000000000000000 [-]
	 SCS Same-Spin Energy      =      -0.1498140846015221 [Eh]
	 SCS Opposite-Spin Energy  =      -1.6515149375181239 [Eh]
	 SCS Correlation Energy    =      -1.8013290221196461 [Eh]
	 SCS Total Energy          =    -780.8082147754839752 [Eh]
	-----------------------------------------------------------

  Dipole Moment: [D]
     X:    -6.7134      Y:    -0.7716      Z:    -0.7608     Total:     6.8003

*** Psi4 exiting successfully. Buy a developer a beer!
