                               Psi4 1.4a3.dev225

  ==> Input File <==

--------------------------------------------------------------------------
#psi4
#
memory 32 gb

molecule  {
-1 1
  S        1.2336270    -0.0202320     0.0299590
  O        1.2252410    -0.2825260     1.4971370
  O        2.1958480    -0.8505260    -0.7431210
  O        1.2556930     1.4274900    -0.3299320
  C       -1.5803950    -0.0804270     0.2439630
  C       -0.2929078    -0.5996316    -0.4932961
  C       -1.8538570     1.3866740    -0.0822530
  C       -2.8221770    -0.9303370    -0.0290390
  H       -1.3285570    -0.1598550     1.3085440
  H       -0.4647110    -0.4152860    -1.5956970
  H       -0.3274510    -1.7212140    -0.4033230
  H       -2.1410800     1.4899610    -1.1367080
  H       -0.9572190     1.9851690     0.0829810
  H       -2.6779900     1.7735750     0.5301930
  H       -3.0772140    -0.9057670    -1.0956550
  H       -2.6591200    -1.9761140     0.2538760
  H       -3.6887270    -0.5571790     0.5306310
units angstrom
no_reorient  #important for SAPT in psi4, default
symmetry c1  #important for SAPT in psi4, default
}

set PROPERTIES_ORIGIN ["COM"]
properties('MP2/aug-cc-pvtz', properties = ['dipole'])
--------------------------------------------------------------------------

    Molecular point group: c1
  Charge       = -1
  Multiplicity = 1
  Basis Set: AUG-CC-PVTZ
    Blend: AUG-CC-PVTZ
  Basis Set: (AUG-CC-PVTZ AUX)
    Blend: AUG-CC-PVTZ-JKFIT

    Orbital Energies [Eh]
    ---------------------

    Doubly Occupied:

       1A    -91.999197     2A    -20.340460     3A    -20.340217
       4A    -20.339063     5A    -11.110880     6A    -11.108258
       7A    -11.102213     8A    -11.084421     9A     -8.961848
      10A     -6.647458    11A     -6.646695    12A     -6.646668
      13A     -1.261206    14A     -1.115412    15A     -1.114876
      16A     -0.962254    17A     -0.836954    18A     -0.810961
      19A     -0.669148    20A     -0.606846    21A     -0.520593
      22A     -0.492132    23A     -0.482857    24A     -0.462885
      25A     -0.446491    26A     -0.436597    27A     -0.421125
      28A     -0.397541    29A     -0.367378    30A     -0.345671
      31A     -0.335281    32A     -0.320501    33A     -0.317644
      34A     -0.275295    35A     -0.272609    36A     -0.264288
      37A     -0.239527

  @DF-RHF Final Energy:  -779.00566736244502

   => Energetics <=

    Nuclear Repulsion Energy =            518.4817253477835948
    One-Electron Energy =               -2114.7678804479578503
    Two-Electron Energy =                 817.2804877377292314
    Total Energy =                       -779.0056673624450241
  Basis Set: (AUG-CC-PVTZ AUX)
    Blend: AUG-CC-PVTZ-RI
    Molecular point group: c1

    Geometry (in Angstrom), charge = -1, multiplicity = 1:

       Center              X                  Y                   Z               Mass
    ------------   -----------------  -----------------  -----------------  -----------------
         S            1.100830903108    -0.026708624671     0.016265043697    31.972071174400
         O            1.092444903108    -0.289002624671     1.483443043697    15.994914619570
         O            2.063051903108    -0.857002624671    -0.756814956303    15.994914619570
         O            1.122896903108     1.421013375329    -0.343625956303    15.994914619570
         C           -1.713191096892    -0.086903624671     0.230269043697    12.000000000000
         C           -0.425703896892    -0.606108224671    -0.506990056303    12.000000000000
         C           -1.986653096892     1.380197375329    -0.095946956303    12.000000000000
         C           -2.954973096892    -0.936813624671    -0.042732956303    12.000000000000
         H           -1.461353096892    -0.166331624671     1.294850043697     1.007825032230
         H           -0.597507096892    -0.421762624671    -1.609390956303     1.007825032230
         H           -0.460247096892    -1.727690624671    -0.417016956303     1.007825032230
         H           -2.273876096892     1.483484375329    -1.150401956303     1.007825032230
         H           -1.090015096892     1.978692375329     0.069287043697     1.007825032230
         H           -2.810786096892     1.767098375329     0.516499043697     1.007825032230
         H           -3.210010096892    -0.912243624671    -1.109348956303     1.007825032230
         H           -2.791916096892    -1.982590624671     0.240182043697     1.007825032230
         H           -3.821523096892    -0.563655624671     0.516937043697     1.007825032230

  Basis Set: AUG-CC-PVTZ
    Blend: AUG-CC-PVTZ
  Basis Set: (AUG-CC-PVTZ AUX)
    Blend: AUG-CC-PVTZ-JKFIT
	 Reference Energy          =    -779.0056673624450241 [Eh]
	 Singles Energy            =      -0.0000000000000000 [Eh]
	 Same-Spin Energy          =      -0.4488112349760178 [Eh]
	 Opposite-Spin Energy      =      -1.3748127132678185 [Eh]
	 Correlation Energy        =      -1.8236239482438363 [Eh]
	 Total Energy              =    -780.8292913106888591 [Eh]

	 ================> DF-SCS-MP2 Energies <==================
	-----------------------------------------------------------
	 SCS Same-Spin Scale       =       0.3333333333333333 [-]
	 SCS Opposite-Spin Scale   =       1.2000000000000000 [-]
	 SCS Same-Spin Energy      =      -0.1496037449920059 [Eh]
	 SCS Opposite-Spin Energy  =      -1.6497752559213821 [Eh]
	 SCS Correlation Energy    =      -1.7993790009133881 [Eh]
	 SCS Total Energy          =    -780.8050463633584286 [Eh]
	-----------------------------------------------------------

  Dipole Moment: [D]
     X:    -6.9773      Y:    -0.8810      Z:    -0.8077     Total:     7.0789

*** Psi4 exiting successfully. Buy a developer a beer!
