                               Psi4 1.4a3.dev225

  ==> Input File <==

--------------------------------------------------------------------------
#psi4
#
memory 32 gb

molecule  {
-1 1
  S        1.2336270    -0.0202320     0.0299590
  O        1.2252410    -0.2825260     1.4971370
  O        2.1958480    -0.8505260    -0.7431210
  O        1.2556930     1.4274900    -0.3299320
  C       -1.5803950    -0.0804270     0.2439630
  C       -0.3819400    -0.6334240    -0.5238140
  C       -1.8538570     1.3866740    -0.0822530
  C       -2.8221770    -0.9303370    -0.0290390
  H       -1.3331491    -0.1584067     1.2891323
  H       -0.4647110    -0.4152860    -1.5956970
  H       -0.3274510    -1.7212140    -0.4033230
  H       -2.1410800     1.4899610    -1.1367080
  H       -0.9572190     1.9851690     0.0829810
  H       -2.6779900     1.7735750     0.5301930
  H       -3.0772140    -0.9057670    -1.0956550
  H       -2.6591200    -1.9761140     0.2538760
  H       -3.6887270    -0.5571790     0.5306310
units angstrom
no_reorient  #important for SAPT in psi4, default
symmetry c1  #important for SAPT in psi4, default
}

set PROPERTIES_ORIGIN ["COM"]
properties('MP2/aug-cc-pvtz', properties = ['dipole'])
--------------------------------------------------------------------------

    Molecular point group: c1
  Charge       = -1
  Multiplicity = 1
  Basis Set: AUG-CC-PVTZ
    Blend: AUG-CC-PVTZ
  Basis Set: (AUG-CC-PVTZ AUX)
    Blend: AUG-CC-PVTZ-JKFIT

    Orbital Energies [Eh]
    ---------------------

    Doubly Occupied:

       1A    -91.999866     2A    -20.341678     3A    -20.341138
       4A    -20.340675     5A    -11.108217     6A    -11.101989
       7A    -11.098126     8A    -11.084621     9A     -8.961457
      10A     -6.646800    11A     -6.646337    12A     -6.646310
      13A     -1.258219    14A     -1.115336    15A     -1.114725
      16A     -0.967110    17A     -0.826615    18A     -0.810751
      19A     -0.666289    20A     -0.609056    21A     -0.521467
      22A     -0.491477    23A     -0.483062    24A     -0.460429
      25A     -0.446769    26A     -0.436342    27A     -0.420860
      28A     -0.402506    29A     -0.368407    30A     -0.349978
      31A     -0.343048    32A     -0.320700    33A     -0.320439
      34A     -0.277965    35A     -0.275875    36A     -0.248789
      37A     -0.240181

  @DF-RHF Final Energy:  -779.01458093444455

   => Energetics <=

    Nuclear Repulsion Energy =            516.9355223021057100
    One-Electron Energy =               -2111.7129908271285785
    Two-Electron Energy =                 815.7628875905783161
    Total Energy =                       -779.0145809344445524
  Basis Set: (AUG-CC-PVTZ AUX)
    Blend: AUG-CC-PVTZ-RI
    Molecular point group: c1

    Geometry (in Angstrom), charge = -1, multiplicity = 1:

       Center              X                  Y                   Z               Mass
    ------------   -----------------  -----------------  -----------------  -----------------
         S            1.108661568243    -0.023759946977     0.019080384619    31.972071174400
         O            1.100275568243    -0.286053946977     1.486258384619    15.994914619570
         O            2.070882568243    -0.854053946977    -0.753999615381    15.994914619570
         O            1.130727568243     1.423962053023    -0.340810615381    15.994914619570
         C           -1.705360431757    -0.083954946977     0.233084384619    12.000000000000
         C           -0.506905431757    -0.636951946977    -0.534692615381    12.000000000000
         C           -1.978822431757     1.383146053023    -0.093131615381    12.000000000000
         C           -2.947142431757    -0.933864946977    -0.039917615381    12.000000000000
         H           -1.458114531757    -0.161934646977     1.278253684619     1.007825032230
         H           -0.589676431757    -0.418813946977    -1.606575615381     1.007825032230
         H           -0.452416431757    -1.724741946977    -0.414201615381     1.007825032230
         H           -2.266045431757     1.486433053023    -1.147586615381     1.007825032230
         H           -1.082184431757     1.981641053023     0.072102384619     1.007825032230
         H           -2.802955431757     1.770047053023     0.519314384619     1.007825032230
         H           -3.202179431757    -0.909294946977    -1.106533615381     1.007825032230
         H           -2.784085431757    -1.979641946977     0.242997384619     1.007825032230
         H           -3.813692431757    -0.560706946977     0.519752384619     1.007825032230

  Basis Set: AUG-CC-PVTZ
    Blend: AUG-CC-PVTZ
  Basis Set: (AUG-CC-PVTZ AUX)
    Blend: AUG-CC-PVTZ-JKFIT
	 Reference Energy          =    -779.0145809344445524 [Eh]
	 Singles Energy            =      -0.0000000000000000 [Eh]
	 Same-Spin Energy          =      -0.4486124880657453 [Eh]
	 Opposite-Spin Energy      =      -1.3745854158879056 [Eh]
	 Correlation Energy        =      -1.8231979039536510 [Eh]
	 Total Energy              =    -780.8377788383982079 [Eh]

	 ================> DF-SCS-MP2 Energies <==================
	-----------------------------------------------------------
	 SCS Same-Spin Scale       =       0.3333333333333333 [-]
	 SCS Opposite-Spin Scale   =       1.2000000000000000 [-]
	 SCS Same-Spin Energy      =      -0.1495374960219151 [Eh]
	 SCS Opposite-Spin Energy  =      -1.6495024990654867 [Eh]
	 SCS Correlation Energy    =      -1.7990399950874019 [Eh]
	 SCS Total Energy          =    -780.8136209295319077 [Eh]
	-----------------------------------------------------------

  Dipole Moment: [D]
     X:    -6.8504      Y:    -0.8326      Z:    -0.7831     Total:     6.9451

*** Psi4 exiting successfully. Buy a developer a beer!
