                               Psi4 1.4a3.dev225

  ==> Input File <==

--------------------------------------------------------------------------
#psi4
#
memory 32 gb

molecule  {
-1 1
  S        1.2336270    -0.0202320     0.0299590
  O        1.2252410    -0.2825260     1.4971370
  O        2.1958480    -0.8505260    -0.7431210
  O        1.2556930     1.4274900    -0.3299320
  C       -1.5803950    -0.0804270     0.2439630
  C       -0.3819400    -0.6334240    -0.5238140
  C       -1.8538570     1.3866740    -0.0822530
  C       -2.8384164    -0.9414517    -0.0326092
  H       -1.3285570    -0.1598550     1.3085440
  H       -0.4647110    -0.4152860    -1.5956970
  H       -0.3274510    -1.7212140    -0.4033230
  H       -2.1410800     1.4899610    -1.1367080
  H       -0.9572190     1.9851690     0.0829810
  H       -2.6779900     1.7735750     0.5301930
  H       -3.0772140    -0.9057670    -1.0956550
  H       -2.6591200    -1.9761140     0.2538760
  H       -3.6887270    -0.5571790     0.5306310
units angstrom
no_reorient  #important for SAPT in psi4, default
symmetry c1  #important for SAPT in psi4, default
}

set PROPERTIES_ORIGIN ["COM"]
properties('MP2/aug-cc-pvtz', properties = ['dipole'])
--------------------------------------------------------------------------

    Molecular point group: c1
  Charge       = -1
  Multiplicity = 1
  Basis Set: AUG-CC-PVTZ
    Blend: AUG-CC-PVTZ
  Basis Set: (AUG-CC-PVTZ AUX)
    Blend: AUG-CC-PVTZ-JKFIT

    Orbital Energies [Eh]
    ---------------------

    Doubly Occupied:

       1A    -91.999869     2A    -20.341617     3A    -20.341145
       4A    -20.340692     5A    -11.107213     6A    -11.105341
       7A    -11.098245     8A    -11.084734     9A     -8.961460
      10A     -6.646804    11A     -6.646340    12A     -6.646311
      13A     -1.258205    14A     -1.115310    15A     -1.114724
      16A     -0.963861    17A     -0.826791    18A     -0.811146
      19A     -0.664063    20A     -0.607889    21A     -0.520223
      22A     -0.491523    23A     -0.482888    24A     -0.460784
      25A     -0.447092    26A     -0.436763    27A     -0.422220
      28A     -0.403777    29A     -0.365826    30A     -0.349663
      31A     -0.341538    32A     -0.320488    33A     -0.320356
      34A     -0.277902    35A     -0.275878    36A     -0.248484
      37A     -0.240127

  @DF-RHF Final Energy:  -779.01436413420925

   => Energetics <=

    Nuclear Repulsion Energy =            516.4833370913701174
    One-Electron Energy =               -2110.8208224230684209
    Two-Electron Energy =                 815.3231211974889447
    Total Energy =                       -779.0143641342092451
  Basis Set: (AUG-CC-PVTZ AUX)
    Blend: AUG-CC-PVTZ-RI
    Molecular point group: c1

    Geometry (in Angstrom), charge = -1, multiplicity = 1:

       Center              X                  Y                   Z               Mass
    ------------   -----------------  -----------------  -----------------  -----------------
         S            1.110049940119    -0.022775938012     0.019250269109    31.972071174400
         O            1.101663940119    -0.285069938012     1.486428269109    15.994914619570
         O            2.072270940119    -0.853069938012    -0.753829730891    15.994914619570
         O            1.132115940119     1.424946061988    -0.340640730891    15.994914619570
         C           -1.703972059881    -0.082970938012     0.233254269109    12.000000000000
         C           -0.505517059881    -0.635967938012    -0.534522730891    12.000000000000
         C           -1.977434059881     1.384130061988    -0.092961730891    12.000000000000
         C           -2.961993459881    -0.943995638012    -0.043317930891    12.000000000000
         H           -1.452134059881    -0.162398938012     1.297835269109     1.007825032230
         H           -0.588288059881    -0.417829938012    -1.606405730891     1.007825032230
         H           -0.451028059881    -1.723757938012    -0.414031730891     1.007825032230
         H           -2.264657059881     1.487417061988    -1.147416730891     1.007825032230
         H           -1.080796059881     1.982625061988     0.072272269109     1.007825032230
         H           -2.801567059881     1.771031061988     0.519484269109     1.007825032230
         H           -3.200791059881    -0.908310938012    -1.106363730891     1.007825032230
         H           -2.782697059881    -1.978657938012     0.243167269109     1.007825032230
         H           -3.812304059881    -0.559722938012     0.519922269109     1.007825032230

  Basis Set: AUG-CC-PVTZ
    Blend: AUG-CC-PVTZ
  Basis Set: (AUG-CC-PVTZ AUX)
    Blend: AUG-CC-PVTZ-JKFIT
	 Reference Energy          =    -779.0143641342092451 [Eh]
	 Singles Energy            =      -0.0000000000000000 [Eh]
	 Same-Spin Energy          =      -0.4485363368572247 [Eh]
	 Opposite-Spin Energy      =      -1.3746473604761498 [Eh]
	 Correlation Energy        =      -1.8231836973333744 [Eh]
	 Total Energy              =    -780.8375478315425653 [Eh]

	 ================> DF-SCS-MP2 Energies <==================
	-----------------------------------------------------------
	 SCS Same-Spin Scale       =       0.3333333333333333 [-]
	 SCS Opposite-Spin Scale   =       1.2000000000000000 [-]
	 SCS Same-Spin Energy      =      -0.1495121122857416 [Eh]
	 SCS Opposite-Spin Energy  =      -1.6495768325713798 [Eh]
	 SCS Correlation Energy    =      -1.7990889448571212 [Eh]
	 SCS Total Energy          =    -780.8134530790663348 [Eh]
	-----------------------------------------------------------

  Dipole Moment: [D]
     X:    -6.8502      Y:    -0.8320      Z:    -0.7911     Total:     6.9457

*** Psi4 exiting successfully. Buy a developer a beer!
