                               Psi4 1.4a3.dev225

  ==> Input File <==

--------------------------------------------------------------------------
#psi4
#
memory 32 gb

molecule  {
-1 1
  S        1.2336270    -0.0202320     0.0299590
  O        1.2252410    -0.2825260     1.4971370
  O        2.1958480    -0.8505260    -0.7431210
  O        1.2556930     1.4274900    -0.3299320
  C       -1.5803950    -0.0804270     0.2439630
  C       -0.3819400    -0.6334240    -0.5238140
  C       -1.8538570     1.3866740    -0.0822530
  C       -2.8221770    -0.9303370    -0.0290390
  H       -1.3285570    -0.1598550     1.3085440
  H       -0.4647110    -0.4152860    -1.5956970
  H       -0.3274510    -1.7212140    -0.4033230
  H       -2.1410800     1.4899610    -1.1367080
  H       -0.9572190     1.9851690     0.0829810
  H       -2.6779900     1.7735750     0.5301930
  H       -3.0539645    -0.9080068    -0.9984210
  H       -2.6591200    -1.9761140     0.2538760
  H       -3.6887270    -0.5571790     0.5306310
units angstrom
no_reorient  #important for SAPT in psi4, default
symmetry c1  #important for SAPT in psi4, default
}

set PROPERTIES_ORIGIN ["COM"]
properties('MP2/aug-cc-pvtz', properties = ['dipole'])
--------------------------------------------------------------------------

    Molecular point group: c1
  Charge       = -1
  Multiplicity = 1
  Basis Set: AUG-CC-PVTZ
    Blend: AUG-CC-PVTZ
  Basis Set: (AUG-CC-PVTZ AUX)
    Blend: AUG-CC-PVTZ-JKFIT

    Orbital Energies [Eh]
    ---------------------

    Doubly Occupied:

       1A    -91.999674     2A    -20.341376     3A    -20.340973
       4A    -20.340516     5A    -11.103039     6A    -11.098038
       7A    -11.095111     8A    -11.084555     9A     -8.961265
      10A     -6.646610    11A     -6.646145    12A     -6.646116
      13A     -1.258005    14A     -1.115093    15A     -1.114543
      16A     -0.968057    17A     -0.831859    18A     -0.813671
      19A     -0.667391    20A     -0.608489    21A     -0.522341
      22A     -0.492536    23A     -0.483751    24A     -0.462823
      25A     -0.446817    26A     -0.437822    27A     -0.429384
      28A     -0.401927    29A     -0.367718    30A     -0.349380
      31A     -0.341537    32A     -0.320311    33A     -0.320218
      34A     -0.277705    35A     -0.275697    36A     -0.248526
      37A     -0.239950

  @DF-RHF Final Energy:  -779.00844890913675

   => Energetics <=

    Nuclear Repulsion Energy =            517.2970145968827183
    One-Electron Energy =               -2112.4129955877715474
    Two-Electron Energy =                 816.1075320817520833
    Total Energy =                       -779.0084489091367459
  Basis Set: (AUG-CC-PVTZ AUX)
    Blend: AUG-CC-PVTZ-RI
    Molecular point group: c1

    Geometry (in Angstrom), charge = -1, multiplicity = 1:

       Center              X                  Y                   Z               Mass
    ------------   -----------------  -----------------  -----------------  -----------------
         S            1.108456795372    -0.023732821280     0.018222464281    31.972071174400
         O            1.100070795372    -0.286026821280     1.485400464281    15.994914619570
         O            2.070677795372    -0.854026821280    -0.754857535719    15.994914619570
         O            1.130522795372     1.423989178720    -0.341668535719    15.994914619570
         C           -1.705565204628    -0.083927821280     0.232226464281    12.000000000000
         C           -0.507110204628    -0.636924821280    -0.535550535719    12.000000000000
         C           -1.979027204628     1.383173178720    -0.093989535719    12.000000000000
         C           -2.947347204628    -0.933837821280    -0.040775535719    12.000000000000
         H           -1.453727204628    -0.163355821280     1.296807464281     1.007825032230
         H           -0.589881204628    -0.418786821280    -1.607433535719     1.007825032230
         H           -0.452621204628    -1.724714821280    -0.415059535719     1.007825032230
         H           -2.266250204628     1.486460178720    -1.148444535719     1.007825032230
         H           -1.082389204628     1.981668178720     0.071244464281     1.007825032230
         H           -2.803160204628     1.770074178720     0.518456464281     1.007825032230
         H           -3.179134704628    -0.911507621280    -1.010157535719     1.007825032230
         H           -2.784290204628    -1.979614821280     0.242139464281     1.007825032230
         H           -3.813897204628    -0.560679821280     0.518894464281     1.007825032230

  Basis Set: AUG-CC-PVTZ
    Blend: AUG-CC-PVTZ
  Basis Set: (AUG-CC-PVTZ AUX)
    Blend: AUG-CC-PVTZ-JKFIT
	 Reference Energy          =    -779.0084489091367459 [Eh]
	 Singles Energy            =      -0.0000000000000000 [Eh]
	 Same-Spin Energy          =      -0.4486931638648259 [Eh]
	 Opposite-Spin Energy      =      -1.3743039209730026 [Eh]
	 Correlation Energy        =      -1.8229970848378285 [Eh]
	 Total Energy              =    -780.8314459939746257 [Eh]

	 ================> DF-SCS-MP2 Energies <==================
	-----------------------------------------------------------
	 SCS Same-Spin Scale       =       0.3333333333333333 [-]
	 SCS Opposite-Spin Scale   =       1.2000000000000000 [-]
	 SCS Same-Spin Energy      =      -0.1495643879549420 [Eh]
	 SCS Opposite-Spin Energy  =      -1.6491647051676031 [Eh]
	 SCS Correlation Energy    =      -1.7987290931225450 [Eh]
	 SCS Total Energy          =    -780.8071780022593202 [Eh]
	-----------------------------------------------------------

  Dipole Moment: [D]
     X:    -6.8849      Y:    -0.8424      Z:    -0.8519     Total:     6.9883

*** Psi4 exiting successfully. Buy a developer a beer!
