                               Psi4 1.4a3.dev225

  ==> Input File <==

--------------------------------------------------------------------------
#psi4
#
memory 32 gb

molecule  {
-1 1
  S        1.2336270    -0.0202320     0.0299590
  O        1.2252410    -0.2825260     1.4971370
  O        2.1958480    -0.8505260    -0.7431210
  O        1.2556930     1.4274900    -0.3299320
  C       -1.5803950    -0.0804270     0.2439630
  C       -0.3997464    -0.6401825    -0.5299176
  C       -1.8538570     1.3866740    -0.0822530
  C       -2.8221770    -0.9303370    -0.0290390
  H       -1.3285570    -0.1598550     1.3085440
  H       -0.4647110    -0.4152860    -1.5956970
  H       -0.3274510    -1.7212140    -0.4033230
  H       -2.1410800     1.4899610    -1.1367080
  H       -0.9572190     1.9851690     0.0829810
  H       -2.6779900     1.7735750     0.5301930
  H       -3.0772140    -0.9057670    -1.0956550
  H       -2.6591200    -1.9761140     0.2538760
  H       -3.6887270    -0.5571790     0.5306310
units angstrom
no_reorient  #important for SAPT in psi4, default
symmetry c1  #important for SAPT in psi4, default
}

set PROPERTIES_ORIGIN ["COM"]
properties('MP2/aug-cc-pvtz', properties = ['dipole'])
--------------------------------------------------------------------------

    Molecular point group: c1
  Charge       = -1
  Multiplicity = 1
  Basis Set: AUG-CC-PVTZ
    Blend: AUG-CC-PVTZ
  Basis Set: (AUG-CC-PVTZ AUX)
    Blend: AUG-CC-PVTZ-JKFIT

    Orbital Energies [Eh]
    ---------------------

    Doubly Occupied:

       1A    -91.999753     2A    -20.341832     3A    -20.341296
       4A    -20.340953     5A    -11.107918     6A    -11.103721
       7A    -11.097752     8A    -11.084884     9A     -8.961226
      10A     -6.646525    11A     -6.646099    12A     -6.646071
      13A     -1.257698    14A     -1.115281    15A     -1.114668
      16A     -0.967364    17A     -0.825078    18A     -0.810925
      19A     -0.663558    20A     -0.608319    21A     -0.521159
      22A     -0.491405    23A     -0.483270    24A     -0.459896
      25A     -0.446819    26A     -0.436495    27A     -0.420813
      28A     -0.403308    29A     -0.368669    30A     -0.351286
      31A     -0.341831    32A     -0.320733    33A     -0.320385
      34A     -0.278319    35A     -0.276334    36A     -0.245301
      37A     -0.240149

  @DF-RHF Final Energy:  -779.01413652523331

   => Energetics <=

    Nuclear Repulsion Energy =            516.5314723459223387
    One-Electron Energy =               -2110.9170289358962691
    Two-Electron Energy =                 815.3714200647406187
    Total Energy =                       -779.0141365252333117
  Basis Set: (AUG-CC-PVTZ AUX)
    Blend: AUG-CC-PVTZ-RI
    Molecular point group: c1

    Geometry (in Angstrom), charge = -1, multiplicity = 1:

       Center              X                  Y                   Z               Mass
    ------------   -----------------  -----------------  -----------------  -----------------
         S            1.110187168307    -0.023157427122     0.019472128645    31.972071174400
         O            1.101801168307    -0.285451427122     1.486650128645    15.994914619570
         O            2.072408168307    -0.853451427122    -0.753607871355    15.994914619570
         O            1.132253168307     1.424564572878    -0.340418871355    15.994914619570
         C           -1.703834831693    -0.083352427122     0.233476128645    12.000000000000
         C           -0.523186231693    -0.643107927122    -0.540404471355    12.000000000000
         C           -1.977296831693     1.383748572878    -0.092739871355    12.000000000000
         C           -2.945616831693    -0.933262427122    -0.039525871355    12.000000000000
         H           -1.451996831693    -0.162780427122     1.298057128645     1.007825032230
         H           -0.588150831693    -0.418211427122    -1.606183871355     1.007825032230
         H           -0.450890831693    -1.724139427122    -0.413809871355     1.007825032230
         H           -2.264519831693     1.487035572878    -1.147194871355     1.007825032230
         H           -1.080658831693     1.982243572878     0.072494128645     1.007825032230
         H           -2.801429831693     1.770649572878     0.519706128645     1.007825032230
         H           -3.200653831693    -0.908692427122    -1.106141871355     1.007825032230
         H           -2.782559831693    -1.979039427122     0.243389128645     1.007825032230
         H           -3.812166831693    -0.560104427122     0.520144128645     1.007825032230

  Basis Set: AUG-CC-PVTZ
    Blend: AUG-CC-PVTZ
  Basis Set: (AUG-CC-PVTZ AUX)
    Blend: AUG-CC-PVTZ-JKFIT
	 Reference Energy          =    -779.0141365252333117 [Eh]
	 Singles Energy            =      -0.0000000000000000 [Eh]
	 Same-Spin Energy          =      -0.4487357537968641 [Eh]
	 Opposite-Spin Energy      =      -1.3749210801420624 [Eh]
	 Correlation Energy        =      -1.8236568339389265 [Eh]
	 Total Energy              =    -780.8377933591722240 [Eh]

	 ================> DF-SCS-MP2 Energies <==================
	-----------------------------------------------------------
	 SCS Same-Spin Scale       =       0.3333333333333333 [-]
	 SCS Opposite-Spin Scale   =       1.2000000000000000 [-]
	 SCS Same-Spin Energy      =      -0.1495785845989547 [Eh]
	 SCS Opposite-Spin Energy  =      -1.6499052961704748 [Eh]
	 SCS Correlation Energy    =      -1.7994838807694296 [Eh]
	 SCS Total Energy          =    -780.8136204060027694 [Eh]
	-----------------------------------------------------------

  Dipole Moment: [D]
     X:    -6.8215      Y:    -0.8203      Z:    -0.7852     Total:     6.9154

*** Psi4 exiting successfully. Buy a developer a beer!
