                               Psi4 1.4a3.dev225

  ==> Input File <==

--------------------------------------------------------------------------
#psi4
#
memory 32 gb

molecule  {
-1 1
  S        1.2336270    -0.0202320     0.0299590
  O        1.2252410    -0.2825260     1.4971370
  O        2.1958480    -0.8505260    -0.7431210
  O        1.2556930     1.4274900    -0.3299320
  C       -1.5803950    -0.0804270     0.2439630
  C       -0.3819400    -0.6334240    -0.5238140
  C       -1.8538570     1.3866740    -0.0822530
  C       -2.8221770    -0.9303370    -0.0290390
  H       -1.3285570    -0.1598550     1.3085440
  H       -0.4647110    -0.4152860    -1.5956970
  H       -0.3274510    -1.7212140    -0.4033230
  H       -2.1410800     1.4899610    -1.1367080
  H       -1.0394324     1.9302926     0.0678306
  H       -2.6779900     1.7735750     0.5301930
  H       -3.0772140    -0.9057670    -1.0956550
  H       -2.6591200    -1.9761140     0.2538760
  H       -3.6887270    -0.5571790     0.5306310
units angstrom
no_reorient  #important for SAPT in psi4, default
symmetry c1  #important for SAPT in psi4, default
}

set PROPERTIES_ORIGIN ["COM"]
properties('MP2/aug-cc-pvtz', properties = ['dipole'])
--------------------------------------------------------------------------

    Molecular point group: c1
  Charge       = -1
  Multiplicity = 1
  Basis Set: AUG-CC-PVTZ
    Blend: AUG-CC-PVTZ
  Basis Set: (AUG-CC-PVTZ AUX)
    Blend: AUG-CC-PVTZ-JKFIT

    Orbital Energies [Eh]
    ---------------------

    Doubly Occupied:

       1A    -91.999677     2A    -20.341497     3A    -20.341004
       4A    -20.340528     5A    -11.107977     6A    -11.103928
       7A    -11.098194     8A    -11.074414     9A     -8.961268
      10A     -6.646614    11A     -6.646146    12A     -6.646121
      13A     -1.257996    14A     -1.115177    15A     -1.114381
      16A     -0.967767    17A     -0.826837    18A     -0.819977
      19A     -0.666622    20A     -0.608332    21A     -0.522845
      22A     -0.492003    23A     -0.488975    24A     -0.461043
      25A     -0.447431    26A     -0.439125    27A     -0.421815
      28A     -0.403223    29A     -0.375410    30A     -0.350678
      31A     -0.340687    32A     -0.320921    33A     -0.320222
      34A     -0.277776    35A     -0.276388    36A     -0.248856
      37A     -0.240106

  @DF-RHF Final Energy:  -779.00857661471287

   => Energetics <=

    Nuclear Repulsion Energy =            517.1855290887021965
    One-Electron Energy =               -2112.1642863431688966
    Two-Electron Energy =                 815.9701806397538348
    Total Energy =                       -779.0085766147128652
  Basis Set: (AUG-CC-PVTZ AUX)
    Blend: AUG-CC-PVTZ-RI
    Molecular point group: c1

    Geometry (in Angstrom), charge = -1, multiplicity = 1:

       Center              X                  Y                   Z               Mass
    ------------   -----------------  -----------------  -----------------  -----------------
         S            1.109232467058    -0.023345683051     0.019049043079    31.972071174400
         O            1.100846467058    -0.285639683051     1.486227043079    15.994914619570
         O            2.071453467058    -0.853639683051    -0.754030956921    15.994914619570
         O            1.131298467058     1.424376316949    -0.340841956921    15.994914619570
         C           -1.704789532942    -0.083540683051     0.233053043079    12.000000000000
         C           -0.506334532942    -0.636537683051    -0.534723956921    12.000000000000
         C           -1.978251532942     1.383560316949    -0.093162956921    12.000000000000
         C           -2.946571532942    -0.933450683051    -0.039948956921    12.000000000000
         H           -1.452951532942    -0.162968683051     1.297634043079     1.007825032230
         H           -0.589105532942    -0.418399683051    -1.606606956921     1.007825032230
         H           -0.451845532942    -1.724327683051    -0.414232956921     1.007825032230
         H           -2.265474532942     1.486847316949    -1.147617956921     1.007825032230
         H           -1.163826932942     1.927178916949     0.056920643079     1.007825032230
         H           -2.802384532942     1.770461316949     0.519283043079     1.007825032230
         H           -3.201608532942    -0.908880683051    -1.106564956921     1.007825032230
         H           -2.783514532942    -1.979227683051     0.242966043079     1.007825032230
         H           -3.813121532942    -0.560292683051     0.519721043079     1.007825032230

  Basis Set: AUG-CC-PVTZ
    Blend: AUG-CC-PVTZ
  Basis Set: (AUG-CC-PVTZ AUX)
    Blend: AUG-CC-PVTZ-JKFIT
	 Reference Energy          =    -779.0085766147128652 [Eh]
	 Singles Energy            =      -0.0000000000000000 [Eh]
	 Same-Spin Energy          =      -0.4484116439262238 [Eh]
	 Opposite-Spin Energy      =      -1.3740223941695500 [Eh]
	 Correlation Energy        =      -1.8224340380957738 [Eh]
	 Total Energy              =    -780.8310106528086862 [Eh]

	 ================> DF-SCS-MP2 Energies <==================
	-----------------------------------------------------------
	 SCS Same-Spin Scale       =       0.3333333333333333 [-]
	 SCS Opposite-Spin Scale   =       1.2000000000000000 [-]
	 SCS Same-Spin Energy      =      -0.1494705479754079 [Eh]
	 SCS Opposite-Spin Energy  =      -1.6488268730034599 [Eh]
	 SCS Correlation Energy    =      -1.7982974209788678 [Eh]
	 SCS Total Energy          =    -780.8068740356917488 [Eh]
	-----------------------------------------------------------

  Dipole Moment: [D]
     X:    -6.8839      Y:    -0.8014      Z:    -0.7872     Total:     6.9750

*** Psi4 exiting successfully. Buy a developer a beer!
