                               Psi4 1.4a3.dev225

  ==> Input File <==

--------------------------------------------------------------------------
#psi4
#
memory 32 gb

molecule  {
-1 1
  S        1.2336270    -0.0202320     0.0299590
  O        1.2252410    -0.2825260     1.4971370
  O        2.1958480    -0.8505260    -0.7431210
  O        1.2556930     1.4274900    -0.3299320
  C       -1.5803950    -0.0804270     0.2439630
  C       -0.3819400    -0.6334240    -0.5238140
  C       -1.8538570     1.3866740    -0.0822530
  C       -2.8221770    -0.9303370    -0.0290390
  H       -1.3285570    -0.1598550     1.3085440
  H       -0.4647110    -0.4152860    -1.5956970
  H       -0.3274510    -1.7212140    -0.4033230
  H       -2.1410800     1.4899610    -1.1367080
  H       -0.9572190     1.9851690     0.0829810
  H       -2.6779900     1.7735750     0.5301930
  H       -3.1004635    -0.9035272    -1.1928890
  H       -2.6591200    -1.9761140     0.2538760
  H       -3.6887270    -0.5571790     0.5306310
units angstrom
no_reorient  #important for SAPT in psi4, default
symmetry c1  #important for SAPT in psi4, default
}

set PROPERTIES_ORIGIN ["COM"]
properties('MP2/aug-cc-pvtz', properties = ['dipole'])
--------------------------------------------------------------------------

    Molecular point group: c1
  Charge       = -1
  Multiplicity = 1
  Basis Set: AUG-CC-PVTZ
    Blend: AUG-CC-PVTZ
  Basis Set: (AUG-CC-PVTZ AUX)
    Blend: AUG-CC-PVTZ-JKFIT

    Orbital Energies [Eh]
    ---------------------

    Doubly Occupied:

       1A    -92.000179     2A    -20.341991     3A    -20.341421
       4A    -20.340961     5A    -11.121032     6A    -11.106003
       7A    -11.098682     8A    -11.085083     9A     -8.961771
      10A     -6.647115    11A     -6.646651    12A     -6.646624
      13A     -1.258525    14A     -1.115652    15A     -1.115011
      16A     -0.965772    17A     -0.824617    18A     -0.807872
      19A     -0.662224    20A     -0.608125    21A     -0.520142
      22A     -0.491612    23A     -0.483038    24A     -0.459076
      25A     -0.446995    26A     -0.436555    27A     -0.409087
      28A     -0.402740    29A     -0.369321    30A     -0.350984
      31A     -0.339595    32A     -0.320761    33A     -0.320579
      34A     -0.278269    35A     -0.276181    36A     -0.249266
      37A     -0.240471

  @DF-RHF Final Energy:  -779.00831247906683

   => Energetics <=

    Nuclear Repulsion Energy =            516.4320454639920399
    One-Electron Energy =               -2110.7007486339202842
    Two-Electron Energy =                 815.2603906908615272
    Total Energy =                       -779.0083124790668307
  Basis Set: (AUG-CC-PVTZ AUX)
    Blend: AUG-CC-PVTZ-RI
    Molecular point group: c1

    Geometry (in Angstrom), charge = -1, multiplicity = 1:

       Center              X                  Y                   Z               Mass
    ------------   -----------------  -----------------  -----------------  -----------------
         S            1.108798792015    -0.023765768400     0.019652761775    31.972071174400
         O            1.100412792015    -0.286059768400     1.486830761775    15.994914619570
         O            2.071019792015    -0.854059768400    -0.753427238225    15.994914619570
         O            1.130864792015     1.423956231600    -0.340238238225    15.994914619570
         C           -1.705223207985    -0.083960768400     0.233656761775    12.000000000000
         C           -0.506768207985    -0.636957768400    -0.534120238225    12.000000000000
         C           -1.978685207985     1.383140231600    -0.092559238225    12.000000000000
         C           -2.947005207985    -0.933870768400    -0.039345238225    12.000000000000
         H           -1.453385207985    -0.163388768400     1.298237761775     1.007825032230
         H           -0.589539207985    -0.418819768400    -1.606003238225     1.007825032230
         H           -0.452279207985    -1.724747768400    -0.413629238225     1.007825032230
         H           -2.265908207985     1.486427231600    -1.147014238225     1.007825032230
         H           -1.082047207985     1.981635231600     0.072674761775     1.007825032230
         H           -2.802818207985     1.770041231600     0.519886761775     1.007825032230
         H           -3.225291707985    -0.907060968400    -1.203195238225     1.007825032230
         H           -2.783948207985    -1.979647768400     0.243569761775     1.007825032230
         H           -3.813555207985    -0.560712768400     0.520324761775     1.007825032230

  Basis Set: AUG-CC-PVTZ
    Blend: AUG-CC-PVTZ
  Basis Set: (AUG-CC-PVTZ AUX)
    Blend: AUG-CC-PVTZ-JKFIT
	 Reference Energy          =    -779.0083124790668307 [Eh]
	 Singles Energy            =      -0.0000000000000000 [Eh]
	 Same-Spin Energy          =      -0.4486157868235277 [Eh]
	 Opposite-Spin Energy      =      -1.3753890204657147 [Eh]
	 Correlation Energy        =      -1.8240048072892423 [Eh]
	 Total Energy              =    -780.8323172863561012 [Eh]

	 ================> DF-SCS-MP2 Energies <==================
	-----------------------------------------------------------
	 SCS Same-Spin Scale       =       0.3333333333333333 [-]
	 SCS Opposite-Spin Scale   =       1.2000000000000000 [-]
	 SCS Same-Spin Energy      =      -0.1495385956078426 [Eh]
	 SCS Opposite-Spin Energy  =      -1.6504668245588576 [Eh]
	 SCS Correlation Energy    =      -1.8000054201667002 [Eh]
	 SCS Total Energy          =    -780.8083178992335434 [Eh]
	-----------------------------------------------------------

  Dipole Moment: [D]
     X:    -6.8007      Y:    -0.8178      Z:    -0.7110     Total:     6.8865

*** Psi4 exiting successfully. Buy a developer a beer!
