                               Psi4 1.4a3.dev225

  ==> Input File <==

--------------------------------------------------------------------------
#psi4
#
memory 32 gb

molecule  {
-1 1
  S        1.2336270    -0.0202320     0.0299590
  O        1.2252410    -0.2825260     1.4971370
  O        2.1958480    -0.8505260    -0.7431210
  O        1.2556930     1.4274900    -0.3299320
  C       -1.5803950    -0.0804270     0.2439630
  C       -0.3819400    -0.6334240    -0.5238140
  C       -1.8538570     1.3866740    -0.0822530
  C       -2.6597832    -0.8191902     0.0066628
  H       -1.3285570    -0.1598550     1.3085440
  H       -0.4647110    -0.4152860    -1.5956970
  H       -0.3274510    -1.7212140    -0.4033230
  H       -2.1410800     1.4899610    -1.1367080
  H       -0.9572190     1.9851690     0.0829810
  H       -2.6779900     1.7735750     0.5301930
  H       -3.0772140    -0.9057670    -1.0956550
  H       -2.6591200    -1.9761140     0.2538760
  H       -3.6887270    -0.5571790     0.5306310
units angstrom
no_reorient  #important for SAPT in psi4, default
symmetry c1  #important for SAPT in psi4, default
}

set PROPERTIES_ORIGIN ["COM"]
properties('MP2/aug-cc-pvtz', properties = ['dipole'])
--------------------------------------------------------------------------

    Molecular point group: c1
  Charge       = -1
  Multiplicity = 1
  Basis Set: AUG-CC-PVTZ
    Blend: AUG-CC-PVTZ
  Basis Set: (AUG-CC-PVTZ AUX)
    Blend: AUG-CC-PVTZ-JKFIT

    Orbital Energies [Eh]
    ---------------------

    Doubly Occupied:

       1A    -92.001049     2A    -20.342814     3A    -20.342248
       4A    -20.341815     5A    -11.124743     6A    -11.101036
       7A    -11.093412     8A    -11.087273     9A     -8.962644
      10A     -6.647992    11A     -6.647525    12A     -6.647499
      13A     -1.259403    14A     -1.116494    15A     -1.115845
      16A     -1.004309    17A     -0.829583    18A     -0.809655
      19A     -0.664339    20A     -0.613592    21A     -0.533721
      22A     -0.497381    23A     -0.490963    24A     -0.461709
      25A     -0.447286    26A     -0.442517    27A     -0.409600
      28A     -0.399000    29A     -0.380347    30A     -0.336219
      31A     -0.326916    32A     -0.321485    33A     -0.316807
      34A     -0.278986    35A     -0.276790    36A     -0.250970
      37A     -0.241396

  @DF-RHF Final Energy:  -778.96530767756440

   => Energetics <=

    Nuclear Repulsion Energy =            520.7073330803220870
    One-Electron Energy =               -2119.0145576696395437
    Two-Electron Energy =                 819.3419169117530600
    Total Energy =                       -778.9653076775643967
  Basis Set: (AUG-CC-PVTZ AUX)
    Blend: AUG-CC-PVTZ-RI
    Molecular point group: c1

    Geometry (in Angstrom), charge = -1, multiplicity = 1:

       Center              X                  Y                   Z               Mass
    ------------   -----------------  -----------------  -----------------  -----------------
         S            1.094406346955    -0.033482845606     0.015811069729    31.972071174400
         O            1.086020346955    -0.295776845606     1.482989069729    15.994914619570
         O            2.056627346955    -0.863776845606    -0.757268930271    15.994914619570
         O            1.116472346955     1.414239154394    -0.344079930271    15.994914619570
         C           -1.719615653045    -0.093677845606     0.229815069729    12.000000000000
         C           -0.521160653045    -0.646674845606    -0.537961930271    12.000000000000
         C           -1.993077653045     1.373423154394    -0.096400930271    12.000000000000
         C           -2.799003853045    -0.832441045606    -0.007485130271    12.000000000000
         H           -1.467777653045    -0.173105845606     1.294396069729     1.007825032230
         H           -0.603931653045    -0.428536845606    -1.609844930271     1.007825032230
         H           -0.466671653045    -1.734464845606    -0.417470930271     1.007825032230
         H           -2.280300653045     1.476710154394    -1.150855930271     1.007825032230
         H           -1.096439653045     1.971918154394     0.068833069729     1.007825032230
         H           -2.817210653045     1.760324154394     0.516045069729     1.007825032230
         H           -3.216434653045    -0.919017845606    -1.109802930271     1.007825032230
         H           -2.798340653045    -1.989364845606     0.239728069729     1.007825032230
         H           -3.827947653045    -0.570429845606     0.516483069729     1.007825032230

  Basis Set: AUG-CC-PVTZ
    Blend: AUG-CC-PVTZ
  Basis Set: (AUG-CC-PVTZ AUX)
    Blend: AUG-CC-PVTZ-JKFIT
	 Reference Energy          =    -778.9653076775643967 [Eh]
	 Singles Energy            =      -0.0000000000000000 [Eh]
	 Same-Spin Energy          =      -0.4517031610205712 [Eh]
	 Opposite-Spin Energy      =      -1.3788894317524392 [Eh]
	 Correlation Energy        =      -1.8305925927730105 [Eh]
	 Total Energy              =    -780.7959002703373699 [Eh]

	 ================> DF-SCS-MP2 Energies <==================
	-----------------------------------------------------------
	 SCS Same-Spin Scale       =       0.3333333333333333 [-]
	 SCS Opposite-Spin Scale   =       1.2000000000000000 [-]
	 SCS Same-Spin Energy      =      -0.1505677203401904 [Eh]
	 SCS Opposite-Spin Energy  =      -1.6546673181029270 [Eh]
	 SCS Correlation Energy    =      -1.8052350384431173 [Eh]
	 SCS Total Energy          =    -780.7705427160075260 [Eh]
	-----------------------------------------------------------

  Dipole Moment: [D]
     X:    -6.6347      Y:    -0.7168      Z:    -0.7555     Total:     6.7160

*** Psi4 exiting successfully. Buy a developer a beer!
