                               Psi4 1.3.2 release

  ==> Input File <==

--------------------------------------------------------------------------
#psi4
#
memory 32 gb

molecule  {
0 1
  F       -2.7449650     0.0145570    -0.0001620
  O        2.7531530    -0.0983640     0.0001690
  C        1.3806500    -0.0137200     0.0000700
  C        0.6751730    -1.2211850     0.0000160
  C        0.6920260     1.2024995    -0.0999220
  C       -0.7178840    -1.2139290    -0.0000690
  C       -0.7046260     1.2155960    -0.0000150
  C       -1.3854560     0.0061980    -0.0000700
  H        1.2313420    -2.1539510     0.0000130
  H        1.2396650     2.1436990     0.0001380
  H       -1.2874740    -2.1381980    -0.0001180
  H       -1.2612150     2.1476890    -0.0000120
  H        3.1178830     0.8039200     0.0000280
units angstrom
no_reorient  #important for SAPT in psi4, default
symmetry c1  #important for SAPT in psi4, default
}

set PROPERTIES_ORIGIN ["COM"]
properties('MP2/aug-cc-pvtz', properties = ['dipole'])
--------------------------------------------------------------------------

    Molecular point group: c1
  Charge       = 0
  Multiplicity = 1
  Basis Set: AUG-CC-PVTZ
    Blend: AUG-CC-PVTZ
  Basis Set: (AUG-CC-PVTZ AUX)
    Blend: AUG-CC-PVTZ-JKFIT

    Orbital Energies [Eh]
    ---------------------

    Doubly Occupied:

       1A    -26.304465     2A    -20.599700     3A    -11.324263
       4A    -11.313731     5A    -11.256679     6A    -11.254912
       7A    -11.254388     8A    -11.247604     9A     -1.617104
      10A     -1.408548    11A     -1.162070    12A     -1.038329
      13A     -1.013449    14A     -0.871596    15A     -0.839673
      16A     -0.746458    17A     -0.740401    18A     -0.703650
      19A     -0.687628    20A     -0.643766    21A     -0.625620
      22A     -0.609086    23A     -0.596783    24A     -0.583047
      25A     -0.559339    26A     -0.509694    27A     -0.491494
      28A     -0.359105    29A     -0.321886

  @DF-RHF Final Energy:  -404.55551315525292

   => Energetics <=

    Nuclear Repulsion Energy =            341.9225478829482654
    One-Electron Energy =               -1231.5871886717131929
    Two-Electron Energy =                 485.1091276335120028
    Total Energy =                       -404.5555131552529247
  Basis Set: (AUG-CC-PVTZ AUX)
    Blend: AUG-CC-PVTZ-RI
    Molecular point group: c1

    Geometry (in Angstrom), charge = 0, multiplicity = 1:

       Center              X                  Y                   Z               Mass
    ------------   -----------------  -----------------  -----------------  -----------------
         F           -2.693453868532     0.021535391805     0.010551014782    18.998403162730
         O            2.804664131468    -0.091385608195     0.010882014782    15.994914619570
         C            1.432161131468    -0.006741608195     0.010783014782    12.000000000000
         C            0.726684131468    -1.214206608195     0.010729014782    12.000000000000
         C            0.743537131468     1.209477891805    -0.089208985218    12.000000000000
         C           -0.666372868532    -1.206950608195     0.010644014782    12.000000000000
         C           -0.653114868532     1.222574391805     0.010698014782    12.000000000000
         C           -1.333944868532     0.013176391805     0.010643014782    12.000000000000
         H            1.282853131468    -2.146972608195     0.010726014782     1.007825032230
         H            1.291176131468     2.150677391805     0.010851014782     1.007825032230
         H           -1.235962868532    -2.131219608195     0.010595014782     1.007825032230
         H           -1.209703868532     2.154667391805     0.010701014782     1.007825032230
         H            3.169394131468     0.810898391805     0.010741014782     1.007825032230

  Basis Set: AUG-CC-PVTZ
    Blend: AUG-CC-PVTZ
  Basis Set: (AUG-CC-PVTZ AUX)
    Blend: AUG-CC-PVTZ-JKFIT
	 Reference Energy          =    -404.5555131552529247 [Eh]
	 Singles Energy            =      -0.0000000000000000 [Eh]
	 Same-Spin Energy          =      -0.3986199185866219 [Eh]
	 Opposite-Spin Energy      =      -1.1966950487870536 [Eh]
	 Correlation Energy        =      -1.5953149673736755 [Eh]
	 Total Energy              =    -406.1508281226265922 [Eh]

	 ================> DF-SCS-MP2 Energies <==================
	-----------------------------------------------------------
	 SCS Same-Spin Scale       =       0.3333333333333333 [-]
	 SCS Opposite-Spin Scale   =       1.2000000000000000 [-]
	 SCS Same-Spin Energy      =      -0.1328733061955406 [Eh]
	 SCS Opposite-Spin Energy  =      -1.4360340585444642 [Eh]
	 SCS Correlation Energy    =      -1.5689073647400047 [Eh]
	 SCS Total Energy          =    -406.1244205199929524 [Eh]
	-----------------------------------------------------------

  Dipole Moment: [D]
     X:     1.4904      Y:     1.2489      Z:     0.0714     Total:     1.9458

*** Psi4 exiting successfully. Buy a developer a beer!
