                               Psi4 1.3.2 release

  ==> Input File <==

--------------------------------------------------------------------------
#psi4
#
memory 32 gb

molecule  {
0 1
  F       -2.7449650     0.0145570    -0.0001620
  O        2.7531530    -0.0983640     0.0001690
  C        1.3806500    -0.0137200     0.0000700
  C        0.6751730    -1.2211850     0.0000160
  C        0.6920200     1.2024970     0.0000780
  C       -0.7178840    -1.2139290    -0.0000690
  C       -0.7046290     1.2155949     0.0499850
  C       -1.3854560     0.0061980    -0.0000700
  H        1.2313420    -2.1539510     0.0000130
  H        1.2396650     2.1436990     0.0001380
  H       -1.2874740    -2.1381980    -0.0001180
  H       -1.2612150     2.1476890    -0.0000120
  H        3.1178830     0.8039200     0.0000280
units angstrom
no_reorient  #important for SAPT in psi4, default
symmetry c1  #important for SAPT in psi4, default
}

set PROPERTIES_ORIGIN ["COM"]
properties('MP2/aug-cc-pvtz', properties = ['dipole'])
--------------------------------------------------------------------------

    Molecular point group: c1
  Charge       = 0
  Multiplicity = 1
  Basis Set: AUG-CC-PVTZ
    Blend: AUG-CC-PVTZ
  Basis Set: (AUG-CC-PVTZ AUX)
    Blend: AUG-CC-PVTZ-JKFIT

    Orbital Energies [Eh]
    ---------------------

    Doubly Occupied:

       1A    -26.304534     2A    -20.599430     3A    -11.324571
       4A    -11.312803     5A    -11.256180     6A    -11.254352
       7A    -11.253826     8A    -11.247741     9A     -1.617149
      10A     -1.408349    11A     -1.162285    12A     -1.038590
      13A     -1.013594    14A     -0.871712    15A     -0.839969
      16A     -0.746794    17A     -0.740652    18A     -0.703796
      19A     -0.687618    20A     -0.643877    21A     -0.626003
      22A     -0.609205    23A     -0.597027    24A     -0.582935
      25A     -0.559978    26A     -0.510198    27A     -0.491708
      28A     -0.359101    29A     -0.321923

  @DF-RHF Final Energy:  -404.55765831007204

   => Energetics <=

    Nuclear Repulsion Energy =            342.0081853239623797
    One-Electron Energy =               -1231.7598854663178827
    Two-Electron Energy =                 485.1940418322834603
    Total Energy =                       -404.5576583100720427
  Basis Set: (AUG-CC-PVTZ AUX)
    Blend: AUG-CC-PVTZ-RI
    Molecular point group: c1

    Geometry (in Angstrom), charge = 0, multiplicity = 1:

       Center              X                  Y                   Z               Mass
    ------------   -----------------  -----------------  -----------------  -----------------
         F           -2.693452904525     0.021535777408    -0.005515759741    18.998403162730
         O            2.804665095475    -0.091385222592    -0.005184759741    15.994914619570
         C            1.432162095475    -0.006741222592    -0.005283759741    12.000000000000
         C            0.726685095475    -1.214206222592    -0.005337759741    12.000000000000
         C            0.743532095475     1.209475777408    -0.005275759741    12.000000000000
         C           -0.666371904525    -1.206950222592    -0.005422759741    12.000000000000
         C           -0.653116904525     1.222573677408     0.044631240259    12.000000000000
         C           -1.333943904525     0.013176777408    -0.005423759741    12.000000000000
         H            1.282854095475    -2.146972222592    -0.005340759741     1.007825032230
         H            1.291177095475     2.150677777408    -0.005215759741     1.007825032230
         H           -1.235961904525    -2.131219222592    -0.005471759741     1.007825032230
         H           -1.209702904525     2.154667777408    -0.005365759741     1.007825032230
         H            3.169395095475     0.810898777408    -0.005325759741     1.007825032230

  Basis Set: AUG-CC-PVTZ
    Blend: AUG-CC-PVTZ
  Basis Set: (AUG-CC-PVTZ AUX)
    Blend: AUG-CC-PVTZ-JKFIT
	 Reference Energy          =    -404.5576583100720427 [Eh]
	 Singles Energy            =      -0.0000000000000000 [Eh]
	 Same-Spin Energy          =      -0.3985180603245123 [Eh]
	 Opposite-Spin Energy      =      -1.1963733361507272 [Eh]
	 Correlation Energy        =      -1.5948913964752394 [Eh]
	 Total Energy              =    -406.1525497065472905 [Eh]

	 ================> DF-SCS-MP2 Energies <==================
	-----------------------------------------------------------
	 SCS Same-Spin Scale       =       0.3333333333333333 [-]
	 SCS Opposite-Spin Scale   =       1.2000000000000000 [-]
	 SCS Same-Spin Energy      =      -0.1328393534415041 [Eh]
	 SCS Opposite-Spin Energy  =      -1.4356480033808725 [Eh]
	 SCS Correlation Energy    =      -1.5684873568223767 [Eh]
	 SCS Total Energy          =    -406.1261456668944447 [Eh]
	-----------------------------------------------------------

  Dipole Moment: [D]
     X:     1.4986      Y:     1.2671      Z:    -0.0304     Total:     1.9627

*** Psi4 exiting successfully. Buy a developer a beer!
