                               Psi4 1.3.2 release

  ==> Input File <==

--------------------------------------------------------------------------
#psi4
#
memory 32 gb

molecule  {
0 1
  F       -2.7449650     0.0145570    -0.0001620
  O        2.7531530    -0.0983640     0.0001690
  C        1.3806500    -0.0137200     0.0000700
  C        0.6751730    -1.2211850     0.0000160
  C        0.6920350     1.2025033    -0.2499220
  C       -0.7178840    -1.2139290    -0.0000690
  C       -0.7046260     1.2155960    -0.0000150
  C       -1.3854560     0.0061980    -0.0000700
  H        1.2313420    -2.1539510     0.0000130
  H        1.2396650     2.1436990     0.0001380
  H       -1.2874740    -2.1381980    -0.0001180
  H       -1.2612150     2.1476890    -0.0000120
  H        3.1178830     0.8039200     0.0000280
units angstrom
no_reorient  #important for SAPT in psi4, default
symmetry c1  #important for SAPT in psi4, default
}

set PROPERTIES_ORIGIN ["COM"]
properties('MP2/aug-cc-pvtz', properties = ['dipole'])
--------------------------------------------------------------------------

    Molecular point group: c1
  Charge       = 0
  Multiplicity = 1
  Basis Set: AUG-CC-PVTZ
    Blend: AUG-CC-PVTZ
  Basis Set: (AUG-CC-PVTZ AUX)
    Blend: AUG-CC-PVTZ-JKFIT

    Orbital Energies [Eh]
    ---------------------

    Doubly Occupied:

       1A    -26.304504     2A    -20.601156     3A    -11.324041
       4A    -11.318440     5A    -11.260313     6A    -11.258254
       7A    -11.257958     8A    -11.247753     9A     -1.617241
      10A     -1.409661    11A     -1.160665    12A     -1.036589
      13A     -1.012566    14A     -0.870693    15A     -0.838172
      16A     -0.744563    17A     -0.739361    18A     -0.702658
      19A     -0.687872    20A     -0.642613    21A     -0.624123
      22A     -0.607629    23A     -0.595099    24A     -0.583770
      25A     -0.554725    26A     -0.506762    27A     -0.489488
      28A     -0.359237    29A     -0.321669

  @DF-RHF Final Energy:  -404.54002060958067

   => Energetics <=

    Nuclear Repulsion Energy =            341.3323499059818573
    One-Electron Energy =               -1230.3895905814356411
    Two-Electron Energy =                 484.5172200658731754
    Total Energy =                       -404.5400206095806652
  Basis Set: (AUG-CC-PVTZ AUX)
    Blend: AUG-CC-PVTZ-RI
    Molecular point group: c1

    Geometry (in Angstrom), charge = 0, multiplicity = 1:

       Center              X                  Y                   Z               Mass
    ------------   -----------------  -----------------  -----------------  -----------------
         F           -2.693454832538     0.021534984780     0.026617789305    18.998403162730
         O            2.804663167462    -0.091386015220     0.026948789305    15.994914619570
         C            1.432160167462    -0.006742015220     0.026849789305    12.000000000000
         C            0.726683167462    -1.214207015220     0.026795789305    12.000000000000
         C            0.743545167462     1.209481284780    -0.223142210695    12.000000000000
         C           -0.666373832538    -1.206951015220     0.026710789305    12.000000000000
         C           -0.653115832538     1.222573984780     0.026764789305    12.000000000000
         C           -1.333945832538     0.013175984780     0.026709789305    12.000000000000
         H            1.282852167462    -2.146973015220     0.026792789305     1.007825032230
         H            1.291175167462     2.150676984780     0.026917789305     1.007825032230
         H           -1.235963832538    -2.131220015220     0.026661789305     1.007825032230
         H           -1.209704832538     2.154666984780     0.026767789305     1.007825032230
         H            3.169393167462     0.810897984780     0.026807789305     1.007825032230

  Basis Set: AUG-CC-PVTZ
    Blend: AUG-CC-PVTZ
  Basis Set: (AUG-CC-PVTZ AUX)
    Blend: AUG-CC-PVTZ-JKFIT
	 Reference Energy          =    -404.5400206095806652 [Eh]
	 Singles Energy            =      -0.0000000000000000 [Eh]
	 Same-Spin Energy          =      -0.3993499384532596 [Eh]
	 Opposite-Spin Energy      =      -1.1991231554198474 [Eh]
	 Correlation Energy        =      -1.5984730938731069 [Eh]
	 Total Energy              =    -406.1384937034537757 [Eh]

	 ================> DF-SCS-MP2 Energies <==================
	-----------------------------------------------------------
	 SCS Same-Spin Scale       =       0.3333333333333333 [-]
	 SCS Opposite-Spin Scale   =       1.2000000000000000 [-]
	 SCS Same-Spin Energy      =      -0.1331166461510865 [Eh]
	 SCS Opposite-Spin Energy  =      -1.4389477865038167 [Eh]
	 SCS Correlation Energy    =      -1.5720644326549031 [Eh]
	 SCS Total Energy          =    -406.1120850422355488 [Eh]
	-----------------------------------------------------------

  Dipole Moment: [D]
     X:     1.4603      Y:     1.1251      Z:     0.1845     Total:     1.8527

*** Psi4 exiting successfully. Buy a developer a beer!
