                               Psi4 1.3.2 release

  ==> Input File <==

--------------------------------------------------------------------------
#psi4
#
memory 32 gb

molecule  {
0 1
  F       -2.7449650     0.0145570    -0.0001620
  O        2.7531530    -0.0983640     0.0001690
  C        1.3806500    -0.0137200     0.0000700
  C        0.6751730    -1.2211850     0.0000160
  C        0.6920200     1.2024970     0.0000780
  C       -0.7178840    -1.2139290    -0.0000690
  C       -0.7046319     1.2155938     0.0999850
  C       -1.3854560     0.0061980    -0.0000700
  H        1.2313420    -2.1539510     0.0000130
  H        1.2396650     2.1436990     0.0001380
  H       -1.2874740    -2.1381980    -0.0001180
  H       -1.2612150     2.1476890    -0.0000120
  H        3.1178830     0.8039200     0.0000280
units angstrom
no_reorient  #important for SAPT in psi4, default
symmetry c1  #important for SAPT in psi4, default
}

set PROPERTIES_ORIGIN ["COM"]
properties('MP2/aug-cc-pvtz', properties = ['dipole'])
--------------------------------------------------------------------------

    Molecular point group: c1
  Charge       = 0
  Multiplicity = 1
  Basis Set: AUG-CC-PVTZ
    Blend: AUG-CC-PVTZ
  Basis Set: (AUG-CC-PVTZ AUX)
    Blend: AUG-CC-PVTZ-JKFIT

    Orbital Energies [Eh]
    ---------------------

    Doubly Occupied:

       1A    -26.304706     2A    -20.599406     3A    -11.325269
       4A    -11.312746     5A    -11.256787     6A    -11.254377
       7A    -11.254332     8A    -11.248144     9A     -1.617303
      10A     -1.408348    11A     -1.162005    12A     -1.038305
      13A     -1.013482    14A     -0.871481    15A     -0.839829
      16A     -0.746392    17A     -0.740737    18A     -0.703610
      19A     -0.687674    20A     -0.643342    21A     -0.625836
      22A     -0.608660    23A     -0.596943    24A     -0.583070
      25A     -0.559316    26A     -0.510069    27A     -0.491228
      28A     -0.359058    29A     -0.321815

  @DF-RHF Final Energy:  -404.55539806404204

   => Energetics <=

    Nuclear Repulsion Energy =            341.9211802054368263
    One-Electron Energy =               -1231.5846175377246254
    Two-Electron Energy =                 485.1080392682457614
    Total Energy =                       -404.5553980640420377
  Basis Set: (AUG-CC-PVTZ AUX)
    Blend: AUG-CC-PVTZ-RI
    Molecular point group: c1

    Geometry (in Angstrom), charge = 0, multiplicity = 1:

       Center              X                  Y                   Z               Mass
    ------------   -----------------  -----------------  -----------------  -----------------
         F           -2.693452593901     0.021535895231    -0.010871351248    18.998403162730
         O            2.804665406099    -0.091385104769    -0.010540351248    15.994914619570
         C            1.432162406099    -0.006741104769    -0.010639351248    12.000000000000
         C            0.726685406099    -1.214206104769    -0.010693351248    12.000000000000
         C            0.743532406099     1.209475895231    -0.010631351248    12.000000000000
         C           -0.666371593901    -1.206950104769    -0.010778351248    12.000000000000
         C           -0.653119493901     1.222572695231     0.089275648752    12.000000000000
         C           -1.333943593901     0.013176895231    -0.010779351248    12.000000000000
         H            1.282854406099    -2.146972104769    -0.010696351248     1.007825032230
         H            1.291177406099     2.150677895231    -0.010571351248     1.007825032230
         H           -1.235961593901    -2.131219104769    -0.010827351248     1.007825032230
         H           -1.209702593901     2.154667895231    -0.010721351248     1.007825032230
         H            3.169395406099     0.810898895231    -0.010681351248     1.007825032230

  Basis Set: AUG-CC-PVTZ
    Blend: AUG-CC-PVTZ
  Basis Set: (AUG-CC-PVTZ AUX)
    Blend: AUG-CC-PVTZ-JKFIT
	 Reference Energy          =    -404.5553980640420377 [Eh]
	 Singles Energy            =      -0.0000000000000000 [Eh]
	 Same-Spin Energy          =      -0.3986582722764026 [Eh]
	 Opposite-Spin Energy      =      -1.1967650108549530 [Eh]
	 Correlation Energy        =      -1.5954232831313555 [Eh]
	 Total Energy              =    -406.1508213471734052 [Eh]

	 ================> DF-SCS-MP2 Energies <==================
	-----------------------------------------------------------
	 SCS Same-Spin Scale       =       0.3333333333333333 [-]
	 SCS Opposite-Spin Scale   =       1.2000000000000000 [-]
	 SCS Same-Spin Energy      =      -0.1328860907588009 [Eh]
	 SCS Opposite-Spin Energy  =      -1.4361180130259437 [Eh]
	 SCS Correlation Energy    =      -1.5690041037847444 [Eh]
	 SCS Total Energy          =    -406.1244021678267586 [Eh]
	-----------------------------------------------------------

  Dipole Moment: [D]
     X:     1.5048      Y:     1.2500      Z:    -0.0614     Total:     1.9572

*** Psi4 exiting successfully. Buy a developer a beer!
