                               Psi4 1.3.2 release

  ==> Input File <==

--------------------------------------------------------------------------
#psi4
#
memory 32 gb

molecule  {
0 1
  F       -2.7449650     0.0145570    -0.0001620
  O        2.7531530    -0.0983640     0.0001690
  C        1.3806500    -0.0137200     0.0000700
  C        0.6751730    -1.2211850     0.0000160
  C        0.6920320     1.2025020    -0.1999220
  C       -0.7178840    -1.2139290    -0.0000690
  C       -0.7046260     1.2155960    -0.0000150
  C       -1.3854560     0.0061980    -0.0000700
  H        1.2313420    -2.1539510     0.0000130
  H        1.2396650     2.1436990     0.0001380
  H       -1.2874740    -2.1381980    -0.0001180
  H       -1.2612150     2.1476890    -0.0000120
  H        3.1178830     0.8039200     0.0000280
units angstrom
no_reorient  #important for SAPT in psi4, default
symmetry c1  #important for SAPT in psi4, default
}

set PROPERTIES_ORIGIN ["COM"]
properties('MP2/aug-cc-pvtz', properties = ['dipole'])
--------------------------------------------------------------------------

    Molecular point group: c1
  Charge       = 0
  Multiplicity = 1
  Basis Set: AUG-CC-PVTZ
    Blend: AUG-CC-PVTZ
  Basis Set: (AUG-CC-PVTZ AUX)
    Blend: AUG-CC-PVTZ-JKFIT

    Orbital Energies [Eh]
    ---------------------

    Doubly Occupied:

       1A    -26.304475     2A    -20.600526     3A    -11.324117
       4A    -11.316448     5A    -11.258784     6A    -11.256642
       7A    -11.256624     8A    -11.247673     9A     -1.617171
      10A     -1.409181    11A     -1.161238    12A     -1.037322
      13A     -1.012946    14A     -0.871071    15A     -0.838768
      16A     -0.745272    17A     -0.739792    18A     -0.703074
      19A     -0.687759    20A     -0.643043    21A     -0.624619
      22A     -0.608229    23A     -0.595868    24A     -0.583503
      25A     -0.556740    26A     -0.508044    27A     -0.490361
      28A     -0.359152    29A     -0.321742

  @DF-RHF Final Energy:  -404.54670746647088

   => Energetics <=

    Nuclear Repulsion Energy =            341.5828253051951151
    One-Electron Energy =               -1230.8986965274361864
    Two-Electron Energy =                 484.7691637557701938
    Total Energy =                       -404.5467074664708775
  Basis Set: (AUG-CC-PVTZ AUX)
    Blend: AUG-CC-PVTZ-RI
    Molecular point group: c1

    Geometry (in Angstrom), charge = 0, multiplicity = 1:

       Center              X                  Y                   Z               Mass
    ------------   -----------------  -----------------  -----------------  -----------------
         F           -2.693454511203     0.021535124025     0.021262197797    18.998403162730
         O            2.804663488797    -0.091385875975     0.021593197797    15.994914619570
         C            1.432160488797    -0.006741875975     0.021494197797    12.000000000000
         C            0.726683488797    -1.214206875975     0.021440197797    12.000000000000
         C            0.743542488797     1.209480124025    -0.178497802203    12.000000000000
         C           -0.666373511203    -1.206950875975     0.021355197797    12.000000000000
         C           -0.653115511203     1.222574124025     0.021409197797    12.000000000000
         C           -1.333945511203     0.013176124025     0.021354197797    12.000000000000
         H            1.282852488797    -2.146972875975     0.021437197797     1.007825032230
         H            1.291175488797     2.150677124025     0.021562197797     1.007825032230
         H           -1.235963511203    -2.131219875975     0.021306197797     1.007825032230
         H           -1.209704511203     2.154667124025     0.021412197797     1.007825032230
         H            3.169393488797     0.810898124025     0.021452197797     1.007825032230

  Basis Set: AUG-CC-PVTZ
    Blend: AUG-CC-PVTZ
  Basis Set: (AUG-CC-PVTZ AUX)
    Blend: AUG-CC-PVTZ-JKFIT
	 Reference Energy          =    -404.5467074664708775 [Eh]
	 Singles Energy            =      -0.0000000000000000 [Eh]
	 Same-Spin Energy          =      -0.3990445458107109 [Eh]
	 Opposite-Spin Energy      =      -1.1980958370809056 [Eh]
	 Correlation Energy        =      -1.5971403828916166 [Eh]
	 Total Energy              =    -406.1438478493624871 [Eh]

	 ================> DF-SCS-MP2 Energies <==================
	-----------------------------------------------------------
	 SCS Same-Spin Scale       =       0.3333333333333333 [-]
	 SCS Opposite-Spin Scale   =       1.2000000000000000 [-]
	 SCS Same-Spin Energy      =      -0.1330148486035703 [Eh]
	 SCS Opposite-Spin Energy  =      -1.4377150044970868 [Eh]
	 SCS Correlation Energy    =      -1.5707298531006570 [Eh]
	 SCS Total Energy          =    -406.1174373195715361 [Eh]
	-----------------------------------------------------------

  Dipole Moment: [D]
     X:     1.4729      Y:     1.1777      Z:     0.1458     Total:     1.8915

*** Psi4 exiting successfully. Buy a developer a beer!
