                               Psi4 1.3.2 release

  ==> Input File <==

--------------------------------------------------------------------------
#psi4
#
memory 32 gb

molecule  {
0 1
  F       -2.7449650     0.0145570    -0.0001620
  O        2.7531530    -0.0983640     0.0001690
  C        1.3806500    -0.0137200     0.0000700
  C        0.6751730    -1.2211850     0.0000160
  C        0.6920200     1.2024970     0.0000780
  C       -0.7178840    -1.2139290    -0.0000690
  C       -0.7046378     1.2155916     0.1999850
  C       -1.3854560     0.0061980    -0.0000700
  H        1.2313420    -2.1539510     0.0000130
  H        1.2396650     2.1436990     0.0001380
  H       -1.2874740    -2.1381980    -0.0001180
  H       -1.2612150     2.1476890    -0.0000120
  H        3.1178830     0.8039200     0.0000280
units angstrom
no_reorient  #important for SAPT in psi4, default
symmetry c1  #important for SAPT in psi4, default
}

set PROPERTIES_ORIGIN ["COM"]
properties('MP2/aug-cc-pvtz', properties = ['dipole'])
--------------------------------------------------------------------------

    Molecular point group: c1
  Charge       = 0
  Multiplicity = 1
  Basis Set: AUG-CC-PVTZ
    Blend: AUG-CC-PVTZ
  Basis Set: (AUG-CC-PVTZ AUX)
    Blend: AUG-CC-PVTZ-JKFIT

    Orbital Energies [Eh]
    ---------------------

    Doubly Occupied:

       1A    -26.305432     2A    -20.599357     3A    -11.328056
       4A    -11.312584     5A    -11.259198     6A    -11.256569
       7A    -11.254336     8A    -11.249819     9A     -1.617949
      10A     -1.408390    11A     -1.160973    12A     -1.037203
      13A     -1.013091    14A     -0.870627    15A     -0.839350
      16A     -0.744931    17A     -0.741133    18A     -0.702974
      19A     -0.687917    20A     -0.641544    21A     -0.625261
      22A     -0.606469    23A     -0.596553    24A     -0.583635
      25A     -0.556621    26A     -0.509520    27A     -0.489342
      28A     -0.358961    29A     -0.321454

  @DF-RHF Final Energy:  -404.54623531541881

   => Energetics <=

    Nuclear Repulsion Energy =            341.5774479167545792
    One-Electron Energy =               -1230.8888673370800007
    Two-Electron Energy =                 484.7651841049065524
    Total Energy =                       -404.5462353154188122
  Basis Set: (AUG-CC-PVTZ AUX)
    Blend: AUG-CC-PVTZ-RI
    Molecular point group: c1

    Geometry (in Angstrom), charge = 0, multiplicity = 1:

       Center              X                  Y                   Z               Mass
    ------------   -----------------  -----------------  -----------------  -----------------
         F           -2.693451961941     0.021536130877    -0.021582534263    18.998403162730
         O            2.804666038059    -0.091384869123    -0.021251534263    15.994914619570
         C            1.432163038059    -0.006740869123    -0.021350534263    12.000000000000
         C            0.726686038059    -1.214205869123    -0.021404534263    12.000000000000
         C            0.743533038059     1.209476130877    -0.021342534263    12.000000000000
         C           -0.666370961941    -1.206949869123    -0.021489534263    12.000000000000
         C           -0.653124761941     1.222570730877     0.178564465737    12.000000000000
         C           -1.333942961941     0.013177130877    -0.021490534263    12.000000000000
         H            1.282855038059    -2.146971869123    -0.021407534263     1.007825032230
         H            1.291178038059     2.150678130877    -0.021282534263     1.007825032230
         H           -1.235960961941    -2.131218869123    -0.021538534263     1.007825032230
         H           -1.209701961941     2.154668130877    -0.021432534263     1.007825032230
         H            3.169396038059     0.810899130877    -0.021392534263     1.007825032230

  Basis Set: AUG-CC-PVTZ
    Blend: AUG-CC-PVTZ
  Basis Set: (AUG-CC-PVTZ AUX)
    Blend: AUG-CC-PVTZ-JKFIT
	 Reference Energy          =    -404.5462353154188122 [Eh]
	 Singles Energy            =      -0.0000000000000000 [Eh]
	 Same-Spin Energy          =      -0.3991902440232564 [Eh]
	 Opposite-Spin Energy      =      -1.1983383367808831 [Eh]
	 Correlation Energy        =      -1.5975285808041395 [Eh]
	 Total Energy              =    -406.1437638962229357 [Eh]

	 ================> DF-SCS-MP2 Energies <==================
	-----------------------------------------------------------
	 SCS Same-Spin Scale       =       0.3333333333333333 [-]
	 SCS Opposite-Spin Scale   =       1.2000000000000000 [-]
	 SCS Same-Spin Energy      =      -0.1330634146744188 [Eh]
	 SCS Opposite-Spin Energy  =      -1.4380060041370597 [Eh]
	 SCS Correlation Energy    =      -1.5710694188114784 [Eh]
	 SCS Total Energy          =    -406.1173047342302880 [Eh]
	-----------------------------------------------------------

  Dipole Moment: [D]
     X:     1.5294      Y:     1.1817      Z:    -0.1263     Total:     1.9368

*** Psi4 exiting successfully. Buy a developer a beer!
