                               Psi4 1.3.2 release

  ==> Input File <==

--------------------------------------------------------------------------
#psi4
#
memory 32 gb

molecule  {
0 1
  F       -2.7449650     0.0145570    -0.0001620
  O        2.7531530    -0.0983640     0.0001690
  C        1.3806500    -0.0137200     0.0000700
  C        0.6751730    -1.2211850     0.0000160
  C        0.6920200     1.2024970     0.0000780
  C       -0.7178840    -1.2139290    -0.0000690
  C       -0.7046349     1.2155927     0.1499850
  C       -1.3854560     0.0061980    -0.0000700
  H        1.2313420    -2.1539510     0.0000130
  H        1.2396650     2.1436990     0.0001380
  H       -1.2874740    -2.1381980    -0.0001180
  H       -1.2612150     2.1476890    -0.0000120
  H        3.1178830     0.8039200     0.0000280
units angstrom
no_reorient  #important for SAPT in psi4, default
symmetry c1  #important for SAPT in psi4, default
}

set PROPERTIES_ORIGIN ["COM"]
properties('MP2/aug-cc-pvtz', properties = ['dipole'])
--------------------------------------------------------------------------

    Molecular point group: c1
  Charge       = 0
  Multiplicity = 1
  Basis Set: AUG-CC-PVTZ
    Blend: AUG-CC-PVTZ
  Basis Set: (AUG-CC-PVTZ AUX)
    Blend: AUG-CC-PVTZ-JKFIT

    Orbital Energies [Eh]
    ---------------------

    Doubly Occupied:

       1A    -26.305006     2A    -20.599380     3A    -11.326437
       4A    -11.312671     5A    -11.257801     6A    -11.255298
       7A    -11.254325     8A    -11.248836     9A     -1.617571
      10A     -1.408361    11A     -1.161563    12A     -1.037844
      13A     -1.013314    14A     -0.871116    15A     -0.839618
      16A     -0.745760    17A     -0.740897    18A     -0.703329
      19A     -0.687775    20A     -0.642532    21A     -0.625583
      22A     -0.607749    23A     -0.596796    24A     -0.583305
      25A     -0.558207    26A     -0.509852    27A     -0.490436
      28A     -0.359007    29A     -0.321656

  @DF-RHF Final Energy:  -404.55159962260967

   => Energetics <=

    Nuclear Repulsion Energy =            341.7771295238849802
    One-Electron Energy =               -1231.2934084455191623
    Two-Electron Energy =                 484.9646792990245672
    Total Energy =                       -404.5515996226096718
  Basis Set: (AUG-CC-PVTZ AUX)
    Blend: AUG-CC-PVTZ-RI
    Molecular point group: c1

    Geometry (in Angstrom), charge = 0, multiplicity = 1:

       Center              X                  Y                   Z               Mass
    ------------   -----------------  -----------------  -----------------  -----------------
         F           -2.693452272566     0.021536013054    -0.016226942756    18.998403162730
         O            2.804665727434    -0.091384986946    -0.015895942756    15.994914619570
         C            1.432162727434    -0.006740986946    -0.015994942756    12.000000000000
         C            0.726685727434    -1.214205986946    -0.016048942756    12.000000000000
         C            0.743532727434     1.209476013054    -0.015986942756    12.000000000000
         C           -0.666371272566    -1.206949986946    -0.016133942756    12.000000000000
         C           -0.653122172566     1.222571713054     0.133920057244    12.000000000000
         C           -1.333943272566     0.013177013054    -0.016134942756    12.000000000000
         H            1.282854727434    -2.146971986946    -0.016051942756     1.007825032230
         H            1.291177727434     2.150678013054    -0.015926942756     1.007825032230
         H           -1.235961272566    -2.131218986946    -0.016182942756     1.007825032230
         H           -1.209702272566     2.154668013054    -0.016076942756     1.007825032230
         H            3.169395727434     0.810899013054    -0.016036942756     1.007825032230

  Basis Set: AUG-CC-PVTZ
    Blend: AUG-CC-PVTZ
  Basis Set: (AUG-CC-PVTZ AUX)
    Blend: AUG-CC-PVTZ-JKFIT
	 Reference Energy          =    -404.5515996226096718 [Eh]
	 Singles Energy            =      -0.0000000000000000 [Eh]
	 Same-Spin Energy          =      -0.3988830282850490 [Eh]
	 Opposite-Spin Energy      =      -1.1974230882250620 [Eh]
	 Correlation Energy        =      -1.5963061165101111 [Eh]
	 Total Energy              =    -406.1479057391197784 [Eh]

	 ================> DF-SCS-MP2 Energies <==================
	-----------------------------------------------------------
	 SCS Same-Spin Scale       =       0.3333333333333333 [-]
	 SCS Opposite-Spin Scale   =       1.2000000000000000 [-]
	 SCS Same-Spin Energy      =      -0.1329610094283497 [Eh]
	 SCS Opposite-Spin Energy  =      -1.4369077058700743 [Eh]
	 SCS Correlation Energy    =      -1.5698687152984241 [Eh]
	 SCS Total Energy          =    -406.1214683379080839 [Eh]
	-----------------------------------------------------------

  Dipole Moment: [D]
     X:     1.5151      Y:     1.2214      Z:    -0.0932     Total:     1.9483

*** Psi4 exiting successfully. Buy a developer a beer!
