                               Psi4 1.3.2 release

  ==> Input File <==

--------------------------------------------------------------------------
#psi4
#
memory 32 gb

molecule  {
0 1
  F       -2.7449650     0.0145570    -0.0001620
  O        2.7531530    -0.0983640     0.0001690
  C        1.3806500    -0.0137200     0.0000700
  C        0.6751730    -1.2211850     0.0000160
  C        0.6920290     1.2025008    -0.1499220
  C       -0.7178840    -1.2139290    -0.0000690
  C       -0.7046260     1.2155960    -0.0000150
  C       -1.3854560     0.0061980    -0.0000700
  H        1.2313420    -2.1539510     0.0000130
  H        1.2396650     2.1436990     0.0001380
  H       -1.2874740    -2.1381980    -0.0001180
  H       -1.2612150     2.1476890    -0.0000120
  H        3.1178830     0.8039200     0.0000280
units angstrom
no_reorient  #important for SAPT in psi4, default
symmetry c1  #important for SAPT in psi4, default
}

set PROPERTIES_ORIGIN ["COM"]
properties('MP2/aug-cc-pvtz', properties = ['dipole'])
--------------------------------------------------------------------------

    Molecular point group: c1
  Charge       = 0
  Multiplicity = 1
  Basis Set: AUG-CC-PVTZ
    Blend: AUG-CC-PVTZ
  Basis Set: (AUG-CC-PVTZ AUX)
    Blend: AUG-CC-PVTZ-JKFIT

    Orbital Energies [Eh]
    ---------------------

    Doubly Occupied:

       1A    -26.304464     2A    -20.600041     3A    -11.324194
       4A    -11.314870     5A    -11.257564     6A    -11.255626
       7A    -11.255329     8A    -11.247625     9A     -1.617127
      10A     -1.408809    11A     -1.161712    12A     -1.037904
      13A     -1.013238    14A     -0.871372    15A     -0.839279
      16A     -0.745928    17A     -0.740140    18A     -0.703405
      19A     -0.687679    20A     -0.643440    21A     -0.625151
      22A     -0.608725    23A     -0.596422    24A     -0.583246
      25A     -0.558266    26A     -0.509014    27A     -0.491025
      28A     -0.359114    29A     -0.321817

  @DF-RHF Final Energy:  -404.55186190161925

   => Energetics <=

    Nuclear Repulsion Energy =            341.7801831130257142
    One-Electron Energy =               -1231.2990407624567979
    Two-Electron Energy =                 484.9669957478118363
    Total Energy =                       -404.5518619016192474
  Basis Set: (AUG-CC-PVTZ AUX)
    Blend: AUG-CC-PVTZ-RI
    Molecular point group: c1

    Geometry (in Angstrom), charge = 0, multiplicity = 1:

       Center              X                  Y                   Z               Mass
    ------------   -----------------  -----------------  -----------------  -----------------
         F           -2.693454189867     0.021535252560     0.015906606290    18.998403162730
         O            2.804663810133    -0.091385747440     0.016237606290    15.994914619570
         C            1.432160810133    -0.006741747440     0.016138606290    12.000000000000
         C            0.726683810133    -1.214206747440     0.016084606290    12.000000000000
         C            0.743539810133     1.209479052560    -0.133853393710    12.000000000000
         C           -0.666373189867    -1.206950747440     0.015999606290    12.000000000000
         C           -0.653115189867     1.222574252560     0.016053606290    12.000000000000
         C           -1.333945189867     0.013176252560     0.015998606290    12.000000000000
         H            1.282852810133    -2.146972747440     0.016081606290     1.007825032230
         H            1.291175810133     2.150677252560     0.016206606290     1.007825032230
         H           -1.235963189867    -2.131219747440     0.015950606290     1.007825032230
         H           -1.209704189867     2.154667252560     0.016056606290     1.007825032230
         H            3.169393810133     0.810898252560     0.016096606290     1.007825032230

  Basis Set: AUG-CC-PVTZ
    Blend: AUG-CC-PVTZ
  Basis Set: (AUG-CC-PVTZ AUX)
    Blend: AUG-CC-PVTZ-JKFIT
	 Reference Energy          =    -404.5518619016192474 [Eh]
	 Singles Energy            =      -0.0000000000000000 [Eh]
	 Same-Spin Energy          =      -0.3987996644847273 [Eh]
	 Opposite-Spin Energy      =      -1.1972812818389267 [Eh]
	 Correlation Energy        =      -1.5960809463236540 [Eh]
	 Total Energy              =    -406.1479428479428861 [Eh]

	 ================> DF-SCS-MP2 Energies <==================
	-----------------------------------------------------------
	 SCS Same-Spin Scale       =       0.3333333333333333 [-]
	 SCS Opposite-Spin Scale   =       1.2000000000000000 [-]
	 SCS Same-Spin Energy      =      -0.1329332214949091 [Eh]
	 SCS Opposite-Spin Energy  =      -1.4367375382067120 [Eh]
	 SCS Correlation Energy    =      -1.5696707597016211 [Eh]
	 SCS Total Energy          =    -406.1215326613208845 [Eh]
	-----------------------------------------------------------

  Dipole Moment: [D]
     X:     1.4830      Y:     1.2191      Z:     0.1081     Total:     1.9228

*** Psi4 exiting successfully. Buy a developer a beer!
