                               Psi4 1.3.2 release

  ==> Input File <==

--------------------------------------------------------------------------
#psi4
#
memory 32 gb

molecule  {
0 1
  F       -2.7449650     0.0145570    -0.0001620
  O        2.7531530    -0.0983640     0.0001690
  C        1.3806500    -0.0137200     0.0000700
  C        0.6751730    -1.2211850     0.0000160
  C        0.6920230     1.2024983    -0.0499220
  C       -0.7178840    -1.2139290    -0.0000690
  C       -0.7046260     1.2155960    -0.0000150
  C       -1.3854560     0.0061980    -0.0000700
  H        1.2313420    -2.1539510     0.0000130
  H        1.2396650     2.1436990     0.0001380
  H       -1.2874740    -2.1381980    -0.0001180
  H       -1.2612150     2.1476890    -0.0000120
  H        3.1178830     0.8039200     0.0000280
units angstrom
no_reorient  #important for SAPT in psi4, default
symmetry c1  #important for SAPT in psi4, default
}

set PROPERTIES_ORIGIN ["COM"]
properties('MP2/aug-cc-pvtz', properties = ['dipole'])
--------------------------------------------------------------------------

    Molecular point group: c1
  Charge       = 0
  Multiplicity = 1
  Basis Set: AUG-CC-PVTZ
    Blend: AUG-CC-PVTZ
  Basis Set: (AUG-CC-PVTZ AUX)
    Blend: AUG-CC-PVTZ-JKFIT

    Orbital Energies [Eh]
    ---------------------

    Doubly Occupied:

       1A    -26.304474     2A    -20.599503     3A    -11.324317
       4A    -11.313050     5A    -11.256153     6A    -11.254497
       7A    -11.253827     8A    -11.247604     9A     -1.617099
      10A     -1.408398    11A     -1.162300    12A     -1.038595
      13A     -1.013585    14A     -0.871741    15A     -0.839929
      16A     -0.746809    17A     -0.740568    18A     -0.703807
      19A     -0.687606    20A     -0.643986    21A     -0.625945
      22A     -0.609309    23A     -0.596988    24A     -0.582930
      25A     -0.559983    26A     -0.510103    27A     -0.491775
      28A     -0.359112    29A     -0.321940

  @DF-RHF Final Energy:  -404.55768672297461

   => Energetics <=

    Nuclear Repulsion Energy =            342.0085290483190192
    One-Electron Energy =               -1231.7605630834837029
    Two-Electron Energy =                 485.1943473121900752
    Total Energy =                       -404.5576867229746085
  Basis Set: (AUG-CC-PVTZ AUX)
    Blend: AUG-CC-PVTZ-RI
    Molecular point group: c1

    Geometry (in Angstrom), charge = 0, multiplicity = 1:

       Center              X                  Y                   Z               Mass
    ------------   -----------------  -----------------  -----------------  -----------------
         F           -2.693453547196     0.021535520339     0.005195423274    18.998403162730
         O            2.804664452804    -0.091385479661     0.005526423274    15.994914619570
         C            1.432161452804    -0.006741479661     0.005427423274    12.000000000000
         C            0.726684452804    -1.214206479661     0.005373423274    12.000000000000
         C            0.743534452804     1.209476820339    -0.044564576726    12.000000000000
         C           -0.666372547196    -1.206950479661     0.005288423274    12.000000000000
         C           -0.653114547196     1.222574520339     0.005342423274    12.000000000000
         C           -1.333944547196     0.013176520339     0.005287423274    12.000000000000
         H            1.282853452804    -2.146972479661     0.005370423274     1.007825032230
         H            1.291176452804     2.150677520339     0.005495423274     1.007825032230
         H           -1.235962547196    -2.131219479661     0.005239423274     1.007825032230
         H           -1.209703547196     2.154667520339     0.005345423274     1.007825032230
         H            3.169394452804     0.810898520339     0.005385423274     1.007825032230

  Basis Set: AUG-CC-PVTZ
    Blend: AUG-CC-PVTZ
  Basis Set: (AUG-CC-PVTZ AUX)
    Blend: AUG-CC-PVTZ-JKFIT
	 Reference Energy          =    -404.5576867229746085 [Eh]
	 Singles Energy            =      -0.0000000000000000 [Eh]
	 Same-Spin Energy          =      -0.3985077690781468 [Eh]
	 Opposite-Spin Energy      =      -1.1963512552509425 [Eh]
	 Correlation Energy        =      -1.5948590243290894 [Eh]
	 Total Energy              =    -406.1525457473036909 [Eh]

	 ================> DF-SCS-MP2 Energies <==================
	-----------------------------------------------------------
	 SCS Same-Spin Scale       =       0.3333333333333333 [-]
	 SCS Opposite-Spin Scale   =       1.2000000000000000 [-]
	 SCS Same-Spin Energy      =      -0.1328359230260489 [Eh]
	 SCS Opposite-Spin Energy  =      -1.4356215063011311 [Eh]
	 SCS Correlation Energy    =      -1.5684574293271800 [Eh]
	 SCS Total Energy          =    -406.1261441523017766 [Eh]
	-----------------------------------------------------------

  Dipole Moment: [D]
     X:     1.4949      Y:     1.2668      Z:     0.0355     Total:     1.9598

*** Psi4 exiting successfully. Buy a developer a beer!
