                               Psi4 1.3.2 release

  ==> Input File <==

--------------------------------------------------------------------------
#psi4
#
memory 32 gb

molecule  {
0 1
  F       -2.7449650     0.0145570    -0.0001620
  O        2.7531530    -0.0983640     0.0001690
  C        1.3806500    -0.0137200     0.0000700
  C        0.6751730    -1.2211850     0.0000160
  C        0.6920200     1.2024970     0.0000780
  C       -0.7178840    -1.2139290    -0.0000690
  C       -0.7046408     1.2155905     0.2499850
  C       -1.3854560     0.0061980    -0.0000700
  H        1.2313420    -2.1539510     0.0000130
  H        1.2396650     2.1436990     0.0001380
  H       -1.2874740    -2.1381980    -0.0001180
  H       -1.2612150     2.1476890    -0.0000120
  H        3.1178830     0.8039200     0.0000280
units angstrom
no_reorient  #important for SAPT in psi4, default
symmetry c1  #important for SAPT in psi4, default
}

set PROPERTIES_ORIGIN ["COM"]
properties('MP2/aug-cc-pvtz', properties = ['dipole'])
--------------------------------------------------------------------------

    Molecular point group: c1
  Charge       = 0
  Multiplicity = 1
  Basis Set: AUG-CC-PVTZ
    Blend: AUG-CC-PVTZ
  Basis Set: (AUG-CC-PVTZ AUX)
    Blend: AUG-CC-PVTZ-JKFIT

    Orbital Energies [Eh]
    ---------------------

    Doubly Occupied:

       1A    -26.305979     2A    -20.599340     3A    -11.330101
       4A    -11.312495     5A    -11.260945     6A    -11.258164
       7A    -11.254384     8A    -11.251087     9A     -1.618434
      10A     -1.408440    11A     -1.160251    12A     -1.036379
      13A     -1.012815    14A     -0.870024    15A     -0.839041
      16A     -0.743953    17A     -0.741449    18A     -0.702569
      19A     -0.688097    20A     -0.640493    21A     -0.624892
      22A     -0.604877    23A     -0.596146    24A     -0.584042
      25A     -0.554520    26A     -0.509041    27A     -0.487949
      28A     -0.358938    29A     -0.321223

  @DF-RHF Final Energy:  -404.53927356983519

   => Energetics <=

    Nuclear Repulsion Energy =            341.3240480088240361
    One-Electron Energy =               -1230.3745103581156854
    Two-Electron Energy =                 484.5111887794564041
    Total Energy =                       -404.5392735698351885
  Basis Set: (AUG-CC-PVTZ AUX)
    Blend: AUG-CC-PVTZ-RI
    Molecular point group: c1

    Geometry (in Angstrom), charge = 0, multiplicity = 1:

       Center              X                  Y                   Z               Mass
    ------------   -----------------  -----------------  -----------------  -----------------
         F           -2.693451640606     0.021536248700    -0.026938125771    18.998403162730
         O            2.804666359394    -0.091384751300    -0.026607125771    15.994914619570
         C            1.432163359394    -0.006740751300    -0.026706125771    12.000000000000
         C            0.726686359394    -1.214205751300    -0.026760125771    12.000000000000
         C            0.743533359394     1.209476248700    -0.026698125771    12.000000000000
         C           -0.666370640606    -1.206949751300    -0.026845125771    12.000000000000
         C           -0.653127440606     1.222569748700     0.223208874229    12.000000000000
         C           -1.333942640606     0.013177248700    -0.026846125771    12.000000000000
         H            1.282855359394    -2.146971751300    -0.026763125771     1.007825032230
         H            1.291178359394     2.150678248700    -0.026638125771     1.007825032230
         H           -1.235960640606    -2.131218751300    -0.026894125771     1.007825032230
         H           -1.209701640606     2.154668248700    -0.026788125771     1.007825032230
         H            3.169396359394     0.810899248700    -0.026748125771     1.007825032230

  Basis Set: AUG-CC-PVTZ
    Blend: AUG-CC-PVTZ
  Basis Set: (AUG-CC-PVTZ AUX)
    Blend: AUG-CC-PVTZ-JKFIT
	 Reference Energy          =    -404.5392735698351885 [Eh]
	 Singles Energy            =      -0.0000000000000000 [Eh]
	 Same-Spin Energy          =      -0.3995758986114483 [Eh]
	 Opposite-Spin Energy      =      -1.1994979318220560 [Eh]
	 Correlation Energy        =      -1.5990738304335044 [Eh]
	 Total Energy              =    -406.1383474002686853 [Eh]

	 ================> DF-SCS-MP2 Energies <==================
	-----------------------------------------------------------
	 SCS Same-Spin Scale       =       0.3333333333333333 [-]
	 SCS Opposite-Spin Scale   =       1.2000000000000000 [-]
	 SCS Same-Spin Energy      =      -0.1331919662038161 [Eh]
	 SCS Opposite-Spin Energy  =      -1.4393975181864671 [Eh]
	 SCS Correlation Energy    =      -1.5725894843902832 [Eh]
	 SCS Total Energy          =    -406.1118630542254664 [Eh]
	-----------------------------------------------------------

  Dipole Moment: [D]
     X:     1.5475      Y:     1.1313      Z:    -0.1607     Total:     1.9236

*** Psi4 exiting successfully. Buy a developer a beer!
