                               Psi4 1.3.2 release

  ==> Input File <==

--------------------------------------------------------------------------
#psi4
#
memory 32 gb

molecule  {
0 1
  F       -2.7449650     0.0145570    -0.0001620
  O        2.7531530    -0.0983640     0.0001690
  C        1.3806500    -0.0137200     0.0000700
  C        0.6751730    -1.2211850     0.0000160
  C        0.6920200     1.2024970     0.0000780
  C       -0.7178840    -1.2139290    -0.0000690
  C       -0.7046437     1.2155894     0.2999850
  C       -1.3854560     0.0061980    -0.0000700
  H        1.2313420    -2.1539510     0.0000130
  H        1.2396650     2.1436990     0.0001380
  H       -1.2874740    -2.1381980    -0.0001180
  H       -1.2612150     2.1476890    -0.0000120
  H        3.1178830     0.8039200     0.0000280
units angstrom
no_reorient  #important for SAPT in psi4, default
symmetry c1  #important for SAPT in psi4, default
}

set PROPERTIES_ORIGIN ["COM"]
properties('MP2/aug-cc-pvtz', properties = ['dipole'])
--------------------------------------------------------------------------

    Molecular point group: c1
  Charge       = 0
  Multiplicity = 1
  Basis Set: AUG-CC-PVTZ
    Blend: AUG-CC-PVTZ
  Basis Set: (AUG-CC-PVTZ AUX)
    Blend: AUG-CC-PVTZ-JKFIT

    Orbital Energies [Eh]
    ---------------------

    Doubly Occupied:

       1A    -26.306647     2A    -20.599338     3A    -11.332543
       4A    -11.312413     5A    -11.263004     6A    -11.260046
       7A    -11.254528     8A    -11.252600     9A     -1.619023
      10A     -1.408519    11A     -1.159424    12A     -1.035374
      13A     -1.012485    14A     -0.869319    15A     -0.838710
      16A     -0.742914    17A     -0.741811    18A     -0.702142
      19A     -0.688316    20A     -0.639492    21A     -0.624498
      22A     -0.603157    23A     -0.595443    24A     -0.584484
      25A     -0.551853    26A     -0.508378    27A     -0.486254
      28A     -0.358961    29A     -0.320976

  @DF-RHF Final Energy:  -404.53068530265728

   => Energetics <=

    Nuclear Repulsion Energy =            341.0192852609309853
    One-Electron Energy =               -1229.7546397247090226
    Two-Electron Energy =                 484.2046691611208189
    Total Energy =                       -404.5306853026572753
  Basis Set: (AUG-CC-PVTZ AUX)
    Blend: AUG-CC-PVTZ-RI
    Molecular point group: c1

    Geometry (in Angstrom), charge = 0, multiplicity = 1:

       Center              X                  Y                   Z               Mass
    ------------   -----------------  -----------------  -----------------  -----------------
         F           -2.693451329981     0.021536366523    -0.032293717279    18.998403162730
         O            2.804666670019    -0.091384633477    -0.031962717279    15.994914619570
         C            1.432163670019    -0.006740633477    -0.032061717279    12.000000000000
         C            0.726686670019    -1.214205633477    -0.032115717279    12.000000000000
         C            0.743533670019     1.209476366523    -0.032053717279    12.000000000000
         C           -0.666370329981    -1.206949633477    -0.032200717279    12.000000000000
         C           -0.653130029981     1.222568766523     0.267853282721    12.000000000000
         C           -1.333942329981     0.013177366523    -0.032201717279    12.000000000000
         H            1.282855670019    -2.146971633477    -0.032118717279     1.007825032230
         H            1.291178670019     2.150678366523    -0.031993717279     1.007825032230
         H           -1.235960329981    -2.131218633477    -0.032249717279     1.007825032230
         H           -1.209701329981     2.154668366523    -0.032143717279     1.007825032230
         H            3.169396670019     0.810899366523    -0.032103717279     1.007825032230

  Basis Set: AUG-CC-PVTZ
    Blend: AUG-CC-PVTZ
  Basis Set: (AUG-CC-PVTZ AUX)
    Blend: AUG-CC-PVTZ-JKFIT
	 Reference Energy          =    -404.5306853026572753 [Eh]
	 Singles Energy            =      -0.0000000000000000 [Eh]
	 Same-Spin Energy          =      -0.4000342296954407 [Eh]
	 Opposite-Spin Energy      =      -1.2008903619820526 [Eh]
	 Correlation Energy        =      -1.6009245916774932 [Eh]
	 Total Energy              =    -406.1316098943347583 [Eh]

	 ================> DF-SCS-MP2 Energies <==================
	-----------------------------------------------------------
	 SCS Same-Spin Scale       =       0.3333333333333333 [-]
	 SCS Opposite-Spin Scale   =       1.2000000000000000 [-]
	 SCS Same-Spin Energy      =      -0.1333447432318136 [Eh]
	 SCS Opposite-Spin Energy  =      -1.4410684343784630 [Eh]
	 SCS Correlation Energy    =      -1.5744131776102765 [Eh]
	 SCS Total Energy          =    -406.1050984802675430 [Eh]
	-----------------------------------------------------------

  Dipole Moment: [D]
     X:     1.5694      Y:     1.0707      Z:    -0.1963     Total:     1.9099

*** Psi4 exiting successfully. Buy a developer a beer!
