                               Psi4 1.3.2 release

  ==> Input File <==

--------------------------------------------------------------------------
#psi4
#
memory 32 gb

molecule  {
0 1
  F       -2.7449650     0.0145570    -0.0001620
  O        2.7531530    -0.0983640     0.0001690
  C        1.3806500    -0.0137200     0.0000700
  C        0.6751730    -1.2211850     0.0000160
  C        0.6920380     1.2025045    -0.2999220
  C       -0.7178840    -1.2139290    -0.0000690
  C       -0.7046260     1.2155960    -0.0000150
  C       -1.3854560     0.0061980    -0.0000700
  H        1.2313420    -2.1539510     0.0000130
  H        1.2396650     2.1436990     0.0001380
  H       -1.2874740    -2.1381980    -0.0001180
  H       -1.2612150     2.1476890    -0.0000120
  H        3.1178830     0.8039200     0.0000280
units angstrom
no_reorient  #important for SAPT in psi4, default
symmetry c1  #important for SAPT in psi4, default
}

set PROPERTIES_ORIGIN ["COM"]
properties('MP2/aug-cc-pvtz', properties = ['dipole'])
--------------------------------------------------------------------------

    Molecular point group: c1
  Charge       = 0
  Multiplicity = 1
  Basis Set: AUG-CC-PVTZ
    Blend: AUG-CC-PVTZ
  Basis Set: (AUG-CC-PVTZ AUX)
    Blend: AUG-CC-PVTZ-JKFIT

    Orbital Energies [Eh]
    ---------------------

    Doubly Occupied:

       1A    -26.304558     2A    -20.601931     3A    -11.323977
       4A    -11.320815     5A    -11.262117     6A    -11.260179
       7A    -11.259585     8A    -11.247874     9A     -1.617343
      10A     -1.410249    11A     -1.160018    12A     -1.035717
      13A     -1.012086    14A     -0.870238    15A     -0.837528
      16A     -0.743878    17A     -0.738859    18A     -0.702166
      19A     -0.688022    20A     -0.642188    21A     -0.623754
      22A     -0.606983    23A     -0.594161    24A     -0.583953
      25A     -0.552173    26A     -0.505146    27A     -0.488376
      28A     -0.359390    29A     -0.321614

  @DF-RHF Final Energy:  -404.53177499235449

   => Energetics <=

    Nuclear Repulsion Energy =            341.0310718472528606
    One-Electron Energy =               -1229.7759383852187511
    Two-Electron Energy =                 484.2130915456114053
    Total Energy =                       -404.5317749923544852
  Basis Set: (AUG-CC-PVTZ AUX)
    Blend: AUG-CC-PVTZ-RI
    Molecular point group: c1

    Geometry (in Angstrom), charge = 0, multiplicity = 1:

       Center              X                  Y                   Z               Mass
    ------------   -----------------  -----------------  -----------------  -----------------
         F           -2.693455153874     0.021534856246     0.031973380812    18.998403162730
         O            2.804662846126    -0.091386143754     0.032304380812    15.994914619570
         C            1.432159846126    -0.006742143754     0.032205380812    12.000000000000
         C            0.726682846126    -1.214207143754     0.032151380812    12.000000000000
         C            0.743547846126     1.209482356246    -0.267786619188    12.000000000000
         C           -0.666374153874    -1.206951143754     0.032066380812    12.000000000000
         C           -0.653116153874     1.222573856246     0.032120380812    12.000000000000
         C           -1.333946153874     0.013175856246     0.032065380812    12.000000000000
         H            1.282851846126    -2.146973143754     0.032148380812     1.007825032230
         H            1.291174846126     2.150676856246     0.032273380812     1.007825032230
         H           -1.235964153874    -2.131220143754     0.032017380812     1.007825032230
         H           -1.209705153874     2.154666856246     0.032123380812     1.007825032230
         H            3.169392846126     0.810897856246     0.032163380812     1.007825032230

  Basis Set: AUG-CC-PVTZ
    Blend: AUG-CC-PVTZ
  Basis Set: (AUG-CC-PVTZ AUX)
    Blend: AUG-CC-PVTZ-JKFIT
	 Reference Energy          =    -404.5317749923544852 [Eh]
	 Singles Energy            =      -0.0000000000000000 [Eh]
	 Same-Spin Energy          =      -0.3997095126914781 [Eh]
	 Opposite-Spin Energy      =      -1.2003495575062471 [Eh]
	 Correlation Energy        =      -1.6000590701977253 [Eh]
	 Total Energy              =    -406.1318340625522296 [Eh]

	 ================> DF-SCS-MP2 Energies <==================
	-----------------------------------------------------------
	 SCS Same-Spin Scale       =       0.3333333333333333 [-]
	 SCS Opposite-Spin Scale   =       1.2000000000000000 [-]
	 SCS Same-Spin Energy      =      -0.1332365042304927 [Eh]
	 SCS Opposite-Spin Energy  =      -1.4404194690074965 [Eh]
	 SCS Correlation Energy    =      -1.5736559732379893 [Eh]
	 SCS Total Energy          =    -406.1054309655924612 [Eh]
	-----------------------------------------------------------

  Dipole Moment: [D]
     X:     1.4454      Y:     1.0618      Z:     0.2242     Total:     1.8074

*** Psi4 exiting successfully. Buy a developer a beer!
