                               Psi4 1.3.2 release

  ==> Input File <==

--------------------------------------------------------------------------
#psi4
#
memory 32 gb

molecule  {
0 1
  F       -2.7449650     0.0145570    -0.0001620
  O        2.7531530    -0.0983640     0.0001690
  C        1.3806500    -0.0137200     0.0000700
  C        0.6751730    -1.2211850     0.0000160
  C        0.6920200     1.2024970     0.0000780
  C       -0.7178840    -1.2139290    -0.0000690
  C       -0.7046260     1.2155960    -0.0000150
  C       -1.3854560     0.0061980    -0.0000700
  H        1.2313420    -2.1539510     0.0000130
  H        1.2396650     2.1436990     0.0001380
  H       -1.2874740    -2.1381980    -0.0001180
  H       -1.2612150     2.1476890    -0.0000120
  H        3.1178830     0.8039200     0.0000280
units angstrom
no_reorient  #important for SAPT in psi4, default
symmetry c1  #important for SAPT in psi4, default
}

set PROPERTIES_ORIGIN ["COM"]
properties('MP2/aug-cc-pvtz', properties = ['dipole'])
--------------------------------------------------------------------------

    Molecular point group: c1
  Charge       = 0
  Multiplicity = 1
  Basis Set: AUG-CC-PVTZ
    Blend: AUG-CC-PVTZ
  Basis Set: (AUG-CC-PVTZ AUX)
    Blend: AUG-CC-PVTZ-JKFIT

    Orbital Energies [Eh]
    ---------------------

    Doubly Occupied:

       1A    -26.304482     2A    -20.599443     3A    -11.324343
       4A    -11.312829     5A    -11.255984     6A    -11.254366
       7A    -11.253648     8A    -11.247613     9A     -1.617102
      10A     -1.408353    11A     -1.162385    12A     -1.038691
      13A     -1.013637    14A     -0.871796    15A     -0.840022
      16A     -0.746936    17A     -0.740630    18A     -0.703865
      19A     -0.687603    20A     -0.644068    21A     -0.626066
      22A     -0.609390    23A     -0.597057    24A     -0.582895
      25A     -0.560202    26A     -0.510244    27A     -0.491870
      28A     -0.359121    29A     -0.321964

  @DF-RHF Final Energy:  -404.55840517340516

   => Energetics <=

    Nuclear Repulsion Energy =            342.0372786625995332
    One-Electron Energy =               -1231.8181567460296719
    Two-Electron Energy =                 485.2224729100249760
    Total Energy =                       -404.5584051734051627
  Basis Set: (AUG-CC-PVTZ AUX)
    Blend: AUG-CC-PVTZ-RI
    Molecular point group: c1

    Geometry (in Angstrom), charge = 0, multiplicity = 1:

       Center              X                  Y                   Z               Mass
    ------------   -----------------  -----------------  -----------------  -----------------
         F           -2.693453225861     0.021535659585    -0.000160168233    18.998403162730
         O            2.804664774139    -0.091385340415     0.000170831767    15.994914619570
         C            1.432161774139    -0.006741340415     0.000071831767    12.000000000000
         C            0.726684774139    -1.214206340415     0.000017831767    12.000000000000
         C            0.743531774139     1.209475659585     0.000079831767    12.000000000000
         C           -0.666372225861    -1.206950340415    -0.000067168233    12.000000000000
         C           -0.653114225861     1.222574659585    -0.000013168233    12.000000000000
         C           -1.333944225861     0.013176659585    -0.000068168233    12.000000000000
         H            1.282853774139    -2.146972340415     0.000014831767     1.007825032230
         H            1.291176774139     2.150677659585     0.000139831767     1.007825032230
         H           -1.235962225861    -2.131219340415    -0.000116168233     1.007825032230
         H           -1.209703225861     2.154667659585    -0.000010168233     1.007825032230
         H            3.169394774139     0.810898659585     0.000029831767     1.007825032230

  Basis Set: AUG-CC-PVTZ
    Blend: AUG-CC-PVTZ
  Basis Set: (AUG-CC-PVTZ AUX)
    Blend: AUG-CC-PVTZ-JKFIT
	 Reference Energy          =    -404.5584051734051627 [Eh]
	 Singles Energy            =      -0.0000000000000000 [Eh]
	 Same-Spin Energy          =      -0.3984672769946773 [Eh]
	 Opposite-Spin Energy      =      -1.1962423355330567 [Eh]
	 Correlation Energy        =      -1.5947096125277340 [Eh]
	 Total Energy              =    -406.1531147859328712 [Eh]

	 ================> DF-SCS-MP2 Energies <==================
	-----------------------------------------------------------
	 SCS Same-Spin Scale       =       0.3333333333333333 [-]
	 SCS Opposite-Spin Scale   =       1.2000000000000000 [-]
	 SCS Same-Spin Energy      =      -0.1328224256648924 [Eh]
	 SCS Opposite-Spin Energy  =      -1.4354908026396680 [Eh]
	 SCS Correlation Energy    =      -1.5683132283045604 [Eh]
	 SCS Total Energy          =    -406.1267184017096952 [Eh]
	-----------------------------------------------------------

  Dipole Moment: [D]
     X:     1.4965      Y:     1.2727      Z:    -0.0001     Total:     1.9645

*** Psi4 exiting successfully. Buy a developer a beer!
