                               Psi4 1.3.2 release

  ==> Input File <==

--------------------------------------------------------------------------
#psi4
#
memory 32 gb

molecule  {
-2 1
  O       -1.4056027     1.1248384    -0.0007836
  O        1.3858810    -1.1351480    -0.0008800
  O       -1.3858790    -1.1351540     0.0008180
  O        1.3858810     1.1351480     0.0008280
  C       -0.8047150     0.0000000     0.0000430
  C        0.8047110     0.0000000    -0.0000080
units angstrom
no_reorient  #important for SAPT in psi4, default
symmetry c1  #important for SAPT in psi4, default
}

set PROPERTIES_ORIGIN ["COM"]
properties('MP2/aug-cc-pvtz', properties = ['dipole'])
--------------------------------------------------------------------------

    Molecular point group: c1
  Charge       = -2
  Multiplicity = 1
  Basis Set: AUG-CC-PVTZ
    Blend: AUG-CC-PVTZ
  Basis Set: (AUG-CC-PVTZ AUX)
    Blend: AUG-CC-PVTZ-JKFIT

    Orbital Energies [Eh]
    ---------------------

    Doubly Occupied:

       1A    -20.144444     2A    -20.144256     3A    -20.142922
       4A    -20.142154     5A    -10.984941     6A    -10.983172
       7A     -1.017348     8A     -0.985641     9A     -0.910631
      10A     -0.891052    11A     -0.466852    12A     -0.317751
      13A     -0.283770    14A     -0.253065    15A     -0.220033
      16A     -0.217407    17A     -0.161832    18A     -0.122958
      19A     -0.076712    20A     -0.046268    21A     -0.033087
      22A     -0.031842    23A     -0.016865

  @DF-RHF Final Energy:  -375.24683476368449

   => Energetics <=

    Nuclear Repulsion Energy =            205.7703613817978976
    One-Electron Energy =                -944.8443834097211038
    Two-Electron Energy =                 363.8271872642387166
    Total Energy =                       -375.2468347636844896
  Basis Set: (AUG-CC-PVTZ AUX)
    Blend: AUG-CC-PVTZ-RI
    Molecular point group: c1

    Geometry (in Angstrom), charge = -2, multiplicity = 1:

       Center              X                  Y                   Z               Mass
    ------------   -----------------  -----------------  -----------------  -----------------
         O           -1.402017065283     1.126713801020    -0.000785174108    15.994914619570
         O            1.389466634717    -1.133272598980    -0.000881574108    15.994914619570
         O           -1.382293365283    -1.133278598980     0.000816425892    15.994914619570
         O            1.389466634717     1.137023401020     0.000826425892    15.994914619570
         C           -0.801129365283     0.001875401020     0.000041425892    12.000000000000
         C            0.808296634717     0.001875401020    -0.000009574108    12.000000000000

  Basis Set: AUG-CC-PVTZ
    Blend: AUG-CC-PVTZ
  Basis Set: (AUG-CC-PVTZ AUX)
    Blend: AUG-CC-PVTZ-JKFIT
	 Reference Energy          =    -375.2468347636844896 [Eh]
	 Singles Energy            =      -0.0000000000000000 [Eh]
	 Same-Spin Energy          =      -0.3660609984007195 [Eh]
	 Opposite-Spin Energy      =      -1.0207122562411364 [Eh]
	 Correlation Energy        =      -1.3867732546418559 [Eh]
	 Total Energy              =    -376.6336080183263562 [Eh]

	 ================> DF-SCS-MP2 Energies <==================
	-----------------------------------------------------------
	 SCS Same-Spin Scale       =       0.3333333333333333 [-]
	 SCS Opposite-Spin Scale   =       1.2000000000000000 [-]
	 SCS Same-Spin Energy      =      -0.1220203328002398 [Eh]
	 SCS Opposite-Spin Energy  =      -1.2248547074893636 [Eh]
	 SCS Correlation Energy    =      -1.3468750402896035 [Eh]
	 SCS Total Energy          =    -376.5937098039740931 [Eh]
	-----------------------------------------------------------

  Dipole Moment: [D]
     X:     0.0425      Y:    -0.0005      Z:     0.0001     Total:     0.0425

*** Psi4 exiting successfully. Buy a developer a beer!
