                               Psi4 1.3.2 release

  ==> Input File <==

--------------------------------------------------------------------------
#psi4
#
memory 32 gb

molecule  {
-2 1
  O       -1.3858800     1.1351540    -0.0007920
  O        1.3858810    -1.1351480    -0.0008800
  O       -1.3858790    -1.1351540     0.0008180
  O        1.3858810     1.1351480     0.0008280
  C       -0.8047150     0.0000000     0.0000430
  C        1.0047110     0.0000000    -0.0000143
units angstrom
no_reorient  #important for SAPT in psi4, default
symmetry c1  #important for SAPT in psi4, default
}

set PROPERTIES_ORIGIN ["COM"]
properties('MP2/aug-cc-pvtz', properties = ['dipole'])
--------------------------------------------------------------------------

    Molecular point group: c1
  Charge       = -2
  Multiplicity = 1
  Basis Set: AUG-CC-PVTZ
    Blend: AUG-CC-PVTZ
  Basis Set: (AUG-CC-PVTZ AUX)
    Blend: AUG-CC-PVTZ-JKFIT

    Orbital Energies [Eh]
    ---------------------

    Doubly Occupied:

       1A    -20.159963     2A    -20.159928     3A    -20.127199
       4A    -20.127165     5A    -10.986220     6A    -10.954668
       7A     -1.057732     8A     -0.977599     9A     -0.974313
      10A     -0.881584    11A     -0.405309    12A     -0.330156
      13A     -0.282567    14A     -0.281341    15A     -0.243494
      16A     -0.216297    17A     -0.163315    18A     -0.136261
      19A     -0.099836    20A     -0.074880    21A     -0.029343
      22A     -0.024242    23A      0.047308

  @DF-RHF Final Energy:  -375.22613354674814

   => Energetics <=

    Nuclear Repulsion Energy =            205.7526503372631623
    One-Electron Energy =                -944.6653566446831292
    Two-Electron Energy =                 363.6865727606718224
    Total Energy =                       -375.2261335467481445
  Basis Set: (AUG-CC-PVTZ AUX)
    Blend: AUG-CC-PVTZ-RI
    Molecular point group: c1

    Geometry (in Angstrom), charge = -2, multiplicity = 1:

       Center              X                  Y                   Z               Mass
    ------------   -----------------  -----------------  -----------------  -----------------
         O           -1.413159032748     1.135154000000    -0.000791187678    15.994914619570
         O            1.358601967252    -1.135148000000    -0.000879187678    15.994914619570
         O           -1.413158032748    -1.135154000000     0.000818812322    15.994914619570
         O            1.358601967252     1.135148000000     0.000828812322    15.994914619570
         C           -0.831994032748     0.000000000000     0.000043812322    12.000000000000
         C            0.977431967252     0.000000000000    -0.000013487678    12.000000000000

  Basis Set: AUG-CC-PVTZ
    Blend: AUG-CC-PVTZ
  Basis Set: (AUG-CC-PVTZ AUX)
    Blend: AUG-CC-PVTZ-JKFIT
	 Reference Energy          =    -375.2261335467481445 [Eh]
	 Singles Energy            =      -0.0000000000000000 [Eh]
	 Same-Spin Energy          =      -0.3659505203301381 [Eh]
	 Opposite-Spin Energy      =      -1.0176281828344456 [Eh]
	 Correlation Energy        =      -1.3835787031645836 [Eh]
	 Total Energy              =    -376.6097122499127181 [Eh]

	 ================> DF-SCS-MP2 Energies <==================
	-----------------------------------------------------------
	 SCS Same-Spin Scale       =       0.3333333333333333 [-]
	 SCS Opposite-Spin Scale   =       1.2000000000000000 [-]
	 SCS Same-Spin Energy      =      -0.1219835067767127 [Eh]
	 SCS Opposite-Spin Energy  =      -1.2211538194013347 [Eh]
	 SCS Correlation Energy    =      -1.3431373261780475 [Eh]
	 SCS Total Energy          =    -376.5692708729262108 [Eh]
	-----------------------------------------------------------

  Dipole Moment: [D]
     X:     1.4353      Y:    -0.0000      Z:     0.0000     Total:     1.4353

*** Psi4 exiting successfully. Buy a developer a beer!
