                               Psi4 1.3.2 release

  ==> Input File <==

--------------------------------------------------------------------------
#psi4
#
memory 32 gb

molecule  {
-2 1
  O       -1.3459097     1.1547449    -0.0008038
  O        1.3858810    -1.1351480    -0.0008800
  O       -1.3858790    -1.1351540     0.0008180
  O        1.3858810     1.1351480     0.0008280
  C       -0.8047150     0.0000000     0.0000430
  C        0.8047110     0.0000000    -0.0000080
units angstrom
no_reorient  #important for SAPT in psi4, default
symmetry c1  #important for SAPT in psi4, default
}

set PROPERTIES_ORIGIN ["COM"]
properties('MP2/aug-cc-pvtz', properties = ['dipole'])
--------------------------------------------------------------------------

    Molecular point group: c1
  Charge       = -2
  Multiplicity = 1
  Basis Set: AUG-CC-PVTZ
    Blend: AUG-CC-PVTZ
  Basis Set: (AUG-CC-PVTZ AUX)
    Blend: AUG-CC-PVTZ-JKFIT

    Orbital Energies [Eh]
    ---------------------

    Doubly Occupied:

       1A    -20.145888     2A    -20.144331     3A    -20.141694
       4A    -20.141301     5A    -10.984204     6A    -10.980711
       7A     -1.016395     8A     -0.983408     9A     -0.912426
      10A     -0.891509    11A     -0.464528    12A     -0.316866
      13A     -0.283047    14A     -0.253290    15A     -0.220150
      16A     -0.216955    17A     -0.160650    18A     -0.120724
      19A     -0.079194    20A     -0.047068    21A     -0.032910
      22A     -0.031629    23A     -0.013298

  @DF-RHF Final Energy:  -375.24635333329138

   => Energetics <=

    Nuclear Repulsion Energy =            206.0732319704106033
    One-Electron Energy =                -945.4748145215445447
    Two-Electron Energy =                 364.1552292178425887
    Total Energy =                       -375.2463533332913812
  Basis Set: (AUG-CC-PVTZ AUX)
    Blend: AUG-CC-PVTZ-RI
    Molecular point group: c1

    Geometry (in Angstrom), charge = -2, multiplicity = 1:

       Center              X                  Y                   Z               Mass
    ------------   -----------------  -----------------  -----------------  -----------------
         O           -1.353176397003     1.151183227015    -0.000801701699    15.994914619570
         O            1.378614302997    -1.138709672985    -0.000877901699    15.994914619570
         O           -1.393145697003    -1.138715672985     0.000820098301    15.994914619570
         O            1.378614302997     1.131586327015     0.000830098301    15.994914619570
         C           -0.811981697003    -0.003561672985     0.000045098301    12.000000000000
         C            0.797444302997    -0.003561672985    -0.000005901699    12.000000000000

  Basis Set: AUG-CC-PVTZ
    Blend: AUG-CC-PVTZ
  Basis Set: (AUG-CC-PVTZ AUX)
    Blend: AUG-CC-PVTZ-JKFIT
	 Reference Energy          =    -375.2463533332913812 [Eh]
	 Singles Energy            =      -0.0000000000000000 [Eh]
	 Same-Spin Energy          =      -0.3662083300797513 [Eh]
	 Opposite-Spin Energy      =      -1.0208799067722507 [Eh]
	 Correlation Energy        =      -1.3870882368520021 [Eh]
	 Total Energy              =    -376.6334415701433613 [Eh]

	 ================> DF-SCS-MP2 Energies <==================
	-----------------------------------------------------------
	 SCS Same-Spin Scale       =       0.3333333333333333 [-]
	 SCS Opposite-Spin Scale   =       1.2000000000000000 [-]
	 SCS Same-Spin Energy      =      -0.1220694433599171 [Eh]
	 SCS Opposite-Spin Energy  =      -1.2250558881267009 [Eh]
	 SCS Correlation Energy    =      -1.3471253314866181 [Eh]
	 SCS Total Energy          =    -376.5934786647779902 [Eh]
	-----------------------------------------------------------

  Dipole Moment: [D]
     X:    -0.0851      Y:     0.0019      Z:     0.0001     Total:     0.0852

*** Psi4 exiting successfully. Buy a developer a beer!
