                               Psi4 1.3.2 release

  ==> Input File <==

--------------------------------------------------------------------------
#psi4
#
memory 32 gb

molecule  {
-2 1
  O       -1.3858800     1.1351540    -0.0007920
  O        1.3858810    -1.1351480    -0.0008800
  O       -1.3858790    -1.1351540     0.0008180
  O        1.3858810     1.1351480     0.0008280
  C       -0.8502867     0.0890124    -0.0000225
  C        0.8047110     0.0000000    -0.0000080
units angstrom
no_reorient  #important for SAPT in psi4, default
symmetry c1  #important for SAPT in psi4, default
}

set PROPERTIES_ORIGIN ["COM"]
properties('MP2/aug-cc-pvtz', properties = ['dipole'])
--------------------------------------------------------------------------

    Molecular point group: c1
  Charge       = -2
  Multiplicity = 1
  Basis Set: AUG-CC-PVTZ
    Blend: AUG-CC-PVTZ
  Basis Set: (AUG-CC-PVTZ AUX)
    Blend: AUG-CC-PVTZ-JKFIT

    Orbital Energies [Eh]
    ---------------------

    Doubly Occupied:

       1A    -20.165438     2A    -20.140534     3A    -20.139764
       4A    -20.125349     5A    -10.980229     6A    -10.978793
       7A     -1.051641     8A     -0.993879     9A     -0.901851
      10A     -0.883119    11A     -0.448788    12A     -0.327742
      13A     -0.288931    14A     -0.253419    15A     -0.227245
      16A     -0.223207    17A     -0.170657    18A     -0.129710
      19A     -0.074068    20A     -0.044429    21A     -0.030745
      22A     -0.030562    23A      0.001180

  @DF-RHF Final Energy:  -375.23540115261909

   => Energetics <=

    Nuclear Repulsion Energy =            205.9717213114629715
    One-Electron Energy =                -945.1964029716995128
    Two-Electron Energy =                 363.9892805076174795
    Total Energy =                       -375.2354011526190902
  Basis Set: (AUG-CC-PVTZ AUX)
    Blend: AUG-CC-PVTZ-RI
    Molecular point group: c1

    Geometry (in Angstrom), charge = -2, multiplicity = 1:

       Center              X                  Y                   Z               Mass
    ------------   -----------------  -----------------  -----------------  -----------------
         O           -1.379664240304     1.123013139050    -0.000783113085    15.994914619570
         O            1.392096759696    -1.147288860950    -0.000871113085    15.994914619570
         O           -1.379663240304    -1.147294860950     0.000826886915    15.994914619570
         O            1.392096759696     1.123007139050     0.000836886915    15.994914619570
         C           -0.844070940304     0.076871539050    -0.000013613085    12.000000000000
         C            0.810926759696    -0.012140860950     0.000000886915    12.000000000000

  Basis Set: AUG-CC-PVTZ
    Blend: AUG-CC-PVTZ
  Basis Set: (AUG-CC-PVTZ AUX)
    Blend: AUG-CC-PVTZ-JKFIT
	 Reference Energy          =    -375.2354011526190902 [Eh]
	 Singles Energy            =      -0.0000000000000000 [Eh]
	 Same-Spin Energy          =      -0.3656020111469909 [Eh]
	 Opposite-Spin Energy      =      -1.0192897467707134 [Eh]
	 Correlation Energy        =      -1.3848917579177042 [Eh]
	 Total Energy              =    -376.6202929105368185 [Eh]

	 ================> DF-SCS-MP2 Energies <==================
	-----------------------------------------------------------
	 SCS Same-Spin Scale       =       0.3333333333333333 [-]
	 SCS Opposite-Spin Scale   =       1.2000000000000000 [-]
	 SCS Same-Spin Energy      =      -0.1218673370489970 [Eh]
	 SCS Opposite-Spin Energy  =      -1.2231476961248560 [Eh]
	 SCS Correlation Energy    =      -1.3450150331738528 [Eh]
	 SCS Total Energy          =    -376.5804161857929557 [Eh]
	-----------------------------------------------------------

  Dipole Moment: [D]
     X:    -0.2387      Y:     1.0740      Z:    -0.0009     Total:     1.1002

*** Psi4 exiting successfully. Buy a developer a beer!
