                               Psi4 1.3.2 release

  ==> Input File <==

--------------------------------------------------------------------------
#psi4
#
memory 32 gb

molecule  {
-2 1
  O       -1.3659803     1.1451238    -0.0007980
  O        1.3858810    -1.1351480    -0.0008800
  O       -1.3858790    -1.1351540     0.0008180
  O        1.3858810     1.1351480     0.0008280
  C       -0.8047150     0.0000000     0.0000430
  C        0.8047110     0.0000000    -0.0000080
units angstrom
no_reorient  #important for SAPT in psi4, default
symmetry c1  #important for SAPT in psi4, default
}

set PROPERTIES_ORIGIN ["COM"]
properties('MP2/aug-cc-pvtz', properties = ['dipole'])
--------------------------------------------------------------------------

    Molecular point group: c1
  Charge       = -2
  Multiplicity = 1
  Basis Set: AUG-CC-PVTZ
    Blend: AUG-CC-PVTZ
  Basis Set: (AUG-CC-PVTZ AUX)
    Blend: AUG-CC-PVTZ-JKFIT

    Orbital Energies [Eh]
    ---------------------

    Doubly Occupied:

       1A    -20.144659     2A    -20.143883     3A    -20.142559
       4A    -20.142364     5A    -10.983888     6A    -10.982107
       7A     -1.016690     8A     -0.984164     9A     -0.911678
      10A     -0.891552    11A     -0.465307    12A     -0.317159
      13A     -0.283298    14A     -0.253182    15A     -0.220184
      16A     -0.217090    17A     -0.161068    18A     -0.121482
      19A     -0.078317    20A     -0.046700    21A     -0.033095
      22A     -0.031837    23A     -0.014511

  @DF-RHF Final Energy:  -375.24671006545327

   => Energetics <=

    Nuclear Repulsion Energy =            205.9665718734260906
    One-Electron Energy =                -945.2530140147272277
    Two-Electron Energy =                 364.0397320758478372
    Total Energy =                       -375.2467100654532715
  Basis Set: (AUG-CC-PVTZ AUX)
    Blend: AUG-CC-PVTZ-RI
    Molecular point group: c1

    Geometry (in Angstrom), charge = -2, multiplicity = 1:

       Center              X                  Y                   Z               Mass
    ------------   -----------------  -----------------  -----------------  -----------------
         O           -1.369598113398     1.143311266256    -0.000796956153    15.994914619570
         O            1.382263186602    -1.136960533744    -0.000878956153    15.994914619570
         O           -1.389496813398    -1.136966533744     0.000819043847    15.994914619570
         O            1.382263186602     1.133335466256     0.000829043847    15.994914619570
         C           -0.808332813398    -0.001812533744     0.000044043847    12.000000000000
         C            0.801093186602    -0.001812533744    -0.000006956153    12.000000000000

  Basis Set: AUG-CC-PVTZ
    Blend: AUG-CC-PVTZ
  Basis Set: (AUG-CC-PVTZ AUX)
    Blend: AUG-CC-PVTZ-JKFIT
	 Reference Energy          =    -375.2467100654532715 [Eh]
	 Singles Energy            =      -0.0000000000000000 [Eh]
	 Same-Spin Energy          =      -0.3661497988937659 [Eh]
	 Opposite-Spin Energy      =      -1.0208085988268423 [Eh]
	 Correlation Energy        =      -1.3869583977206081 [Eh]
	 Total Energy              =    -376.6336684631738763 [Eh]

	 ================> DF-SCS-MP2 Energies <==================
	-----------------------------------------------------------
	 SCS Same-Spin Scale       =       0.3333333333333333 [-]
	 SCS Opposite-Spin Scale   =       1.2000000000000000 [-]
	 SCS Same-Spin Energy      =      -0.1220499329645886 [Eh]
	 SCS Opposite-Spin Energy  =      -1.2249703185922107 [Eh]
	 SCS Correlation Energy    =      -1.3470202515567993 [Eh]
	 SCS Total Energy          =    -376.5937303170100563 [Eh]
	-----------------------------------------------------------

  Dipole Moment: [D]
     X:    -0.0426      Y:     0.0008      Z:     0.0001     Total:     0.0426

*** Psi4 exiting successfully. Buy a developer a beer!
