                               Psi4 1.4a3.dev225

  ==> Input File <==

--------------------------------------------------------------------------
#psi4
#
memory 32 gb

molecule  {
-2 1
  O       -0.7545120     0.8512310     1.3408040
  O       -0.7545120    -0.8512310    -1.3408040
  O        0.7545120    -0.8512310     1.3408040
  O        0.7545120     0.8512310    -1.3408040
  C        0.0296151    -0.0334114     0.7448426
  C        0.0000000     0.0000000    -0.7673510
units angstrom
no_reorient  #important for SAPT in psi4, default
symmetry c1  #important for SAPT in psi4, default
}

set PROPERTIES_ORIGIN ["COM"]
properties('MP2/aug-cc-pvtz', properties = ['dipole'])
--------------------------------------------------------------------------

    Molecular point group: c1
  Charge       = -2
  Multiplicity = 1
  Basis Set: AUG-CC-PVTZ
    Blend: AUG-CC-PVTZ
  Basis Set: (AUG-CC-PVTZ AUX)
    Blend: AUG-CC-PVTZ-JKFIT

    Orbital Energies [Eh]
    ---------------------

    Doubly Occupied:

       1A    -20.155864     2A    -20.148608     3A    -20.148446
       4A    -20.137001     5A    -10.984052     6A    -10.982954
       7A     -1.027736     8A     -0.992032     9A     -0.910299
      10A     -0.893517    11A     -0.500803    12A     -0.324126
      13A     -0.286455    14A     -0.253790    15A     -0.248041
      16A     -0.187633    17A     -0.182306    18A     -0.132950
      19A     -0.062609    20A     -0.055044    21A     -0.054462
      22A     -0.036878    23A     -0.014901

  @DF-RHF Final Energy:  -375.25484766914792

   => Energetics <=

    Nuclear Repulsion Energy =            207.7626449806600704
    One-Electron Energy =                -948.5939738063148070
    Two-Electron Energy =                 365.5764811565068158
    Total Energy =                       -375.2548476691479209
  Basis Set: (AUG-CC-PVTZ AUX)
    Blend: AUG-CC-PVTZ-RI
    Molecular point group: c1

    Geometry (in Angstrom), charge = -2, multiplicity = 1:

       Center              X                  Y                   Z               Mass
    ------------   -----------------  -----------------  -----------------  -----------------
         O           -0.758551356439     0.855788153403     1.343874036923    15.994914619570
         O           -0.758551356439    -0.846673846597    -1.337733963077    15.994914619570
         O            0.750472643561    -0.846673846597     1.343874036923    15.994914619570
         O            0.750472643561     0.855788153403    -1.337733963077    15.994914619570
         C            0.025575743561    -0.028854246597     0.747912636923    12.000000000000
         C           -0.004039356439     0.004557153403    -0.764280963077    12.000000000000

  Basis Set: AUG-CC-PVTZ
    Blend: AUG-CC-PVTZ
  Basis Set: (AUG-CC-PVTZ AUX)
    Blend: AUG-CC-PVTZ-JKFIT
	 Reference Energy          =    -375.2548476691479209 [Eh]
	 Singles Energy            =      -0.0000000000000000 [Eh]
	 Same-Spin Energy          =      -0.3652853406725428 [Eh]
	 Opposite-Spin Energy      =      -1.0189850527426836 [Eh]
	 Correlation Energy        =      -1.3842703934152263 [Eh]
	 Total Energy              =    -376.6391180625631705 [Eh]

	 ================> DF-SCS-MP2 Energies <==================
	-----------------------------------------------------------
	 SCS Same-Spin Scale       =       0.3333333333333333 [-]
	 SCS Opposite-Spin Scale   =       1.2000000000000000 [-]
	 SCS Same-Spin Energy      =      -0.1217617802241809 [Eh]
	 SCS Opposite-Spin Energy  =      -1.2227820632912203 [Eh]
	 SCS Correlation Energy    =      -1.3445438435154011 [Eh]
	 SCS Total Energy          =    -376.5993915126633169 [Eh]
	-----------------------------------------------------------

  Dipole Moment: [D]
     X:     0.3930      Y:    -0.4277      Z:    -0.1344     Total:     0.5962

*** Psi4 exiting successfully. Buy a developer a beer!
