                               Psi4 1.4a3.dev225

  ==> Input File <==

--------------------------------------------------------------------------
#psi4
#
memory 32 gb

molecule  {
-2 1
  O       -0.7545120     0.8512310     1.3408040
  O       -0.7545120    -0.8512310    -1.3408040
  O        0.7545120    -0.8512310     1.3408040
  O        0.7545120     0.8512310    -1.3408040
  C        0.0000000     0.0000000     0.7673510
  C        0.0000000     0.0000000    -0.7173510
units angstrom
no_reorient  #important for SAPT in psi4, default
symmetry c1  #important for SAPT in psi4, default
}

set PROPERTIES_ORIGIN ["COM"]
properties('MP2/aug-cc-pvtz', properties = ['dipole'])
--------------------------------------------------------------------------

    Molecular point group: c1
  Charge       = -2
  Multiplicity = 1
  Basis Set: AUG-CC-PVTZ
    Blend: AUG-CC-PVTZ
  Basis Set: (AUG-CC-PVTZ AUX)
    Blend: AUG-CC-PVTZ-JKFIT

    Orbital Energies [Eh]
    ---------------------

    Doubly Occupied:

       1A    -20.150776     2A    -20.150744     3A    -20.146142
       4A    -20.146110     5A    -10.986103     6A    -10.985273
       7A     -1.025191     8A     -0.981737     9A     -0.912927
      10A     -0.892584    11A     -0.514048    12A     -0.322695
      13A     -0.283628    14A     -0.256112    15A     -0.246797
      16A     -0.185439    17A     -0.175940    18A     -0.130847
      19A     -0.063771    20A     -0.056318    21A     -0.052696
      22A     -0.036531    23A     -0.022548

  @DF-RHF Final Energy:  -375.25237849024717

   => Energetics <=

    Nuclear Repulsion Energy =            207.7958214923759499
    One-Electron Energy =                -948.6464832245673051
    Two-Electron Energy =                 365.5982832419442161
    Total Energy =                       -375.2523784902471675
  Basis Set: (AUG-CC-PVTZ AUX)
    Blend: AUG-CC-PVTZ-RI
    Molecular point group: c1

    Geometry (in Angstrom), charge = -2, multiplicity = 1:

       Center              X                  Y                   Z               Mass
    ------------   -----------------  -----------------  -----------------  -----------------
         O           -0.754512000000     0.851231000000     1.333984241770    15.994914619570
         O           -0.754512000000    -0.851231000000    -1.347623758230    15.994914619570
         O            0.754512000000    -0.851231000000     1.333984241770    15.994914619570
         O            0.754512000000     0.851231000000    -1.347623758230    15.994914619570
         C           -0.000000000000     0.000000000000     0.760531241770    12.000000000000
         C           -0.000000000000     0.000000000000    -0.724170758230    12.000000000000

  Basis Set: AUG-CC-PVTZ
    Blend: AUG-CC-PVTZ
  Basis Set: (AUG-CC-PVTZ AUX)
    Blend: AUG-CC-PVTZ-JKFIT
	 Reference Energy          =    -375.2523784902471675 [Eh]
	 Singles Energy            =      -0.0000000000000000 [Eh]
	 Same-Spin Energy          =      -0.3659619937637513 [Eh]
	 Opposite-Spin Energy      =      -1.0204368803511237 [Eh]
	 Correlation Energy        =      -1.3863988741148749 [Eh]
	 Total Energy              =    -376.6387773643620562 [Eh]

	 ================> DF-SCS-MP2 Energies <==================
	-----------------------------------------------------------
	 SCS Same-Spin Scale       =       0.3333333333333333 [-]
	 SCS Opposite-Spin Scale   =       1.2000000000000000 [-]
	 SCS Same-Spin Energy      =      -0.1219873312545837 [Eh]
	 SCS Opposite-Spin Energy  =      -1.2245242564213483 [Eh]
	 SCS Correlation Energy    =      -1.3465115876759322 [Eh]
	 SCS Total Energy          =    -376.5988900779231017 [Eh]
	-----------------------------------------------------------

  Dipole Moment: [D]
     X:     0.0000      Y:     0.0000      Z:     0.2765     Total:     0.2765

*** Psi4 exiting successfully. Buy a developer a beer!
