                               Psi4 1.3.2 release

  ==> Input File <==

--------------------------------------------------------------------------
#psi4
#
memory 32 gb

molecule  {
-2 1
  O       -1.3858800     1.1351540    -0.0007920
  O        1.3858810    -1.1351480    -0.0008800
  O       -1.3858790    -1.1351540     0.0008180
  O        1.3858810     1.1351480     0.0008280
  C       -0.8047150     0.0000000     0.0000430
  C        0.6047110     0.0000000    -0.0000017
units angstrom
no_reorient  #important for SAPT in psi4, default
symmetry c1  #important for SAPT in psi4, default
}

set PROPERTIES_ORIGIN ["COM"]
properties('MP2/aug-cc-pvtz', properties = ['dipole'])
--------------------------------------------------------------------------

    Molecular point group: c1
  Charge       = -2
  Multiplicity = 1
  Basis Set: AUG-CC-PVTZ
    Blend: AUG-CC-PVTZ
  Basis Set: (AUG-CC-PVTZ AUX)
    Blend: AUG-CC-PVTZ-JKFIT

    Orbital Energies [Eh]
    ---------------------

    Doubly Occupied:

       1A    -20.156883     2A    -20.156849     3A    -20.143483
       4A    -20.143448     5A    -10.998397     6A    -10.992432
       7A     -1.027824     8A     -0.942172     9A     -0.919329
      10A     -0.840964    11A     -0.560175    12A     -0.320389
      13A     -0.273620    14A     -0.265597    15A     -0.228440
      16A     -0.184031    17A     -0.129249    18A     -0.108358
      19A     -0.075280    20A     -0.059927    21A     -0.050977
      22A     -0.021808    23A     -0.014151

  @DF-RHF Final Energy:  -375.18374706008274

   => Energetics <=

    Nuclear Repulsion Energy =            206.1555324075261524
    One-Electron Energy =                -945.4509916273249246
    Two-Electron Energy =                 364.1117121597160349
    Total Energy =                       -375.1837470600827373
  Basis Set: (AUG-CC-PVTZ AUX)
    Blend: AUG-CC-PVTZ-RI
    Molecular point group: c1

    Geometry (in Angstrom), charge = -2, multiplicity = 1:

       Center              X                  Y                   Z               Mass
    ------------   -----------------  -----------------  -----------------  -----------------
         O           -1.358600966906     1.135154000000    -0.000792906257    15.994914619570
         O            1.413160033094    -1.135148000000    -0.000880906257    15.994914619570
         O           -1.358599966906    -1.135154000000     0.000817093743    15.994914619570
         O            1.413160033094     1.135148000000     0.000827093743    15.994914619570
         C           -0.777435966906     0.000000000000     0.000042093743    12.000000000000
         C            0.631990033094     0.000000000000    -0.000002606257    12.000000000000

  Basis Set: AUG-CC-PVTZ
    Blend: AUG-CC-PVTZ
  Basis Set: (AUG-CC-PVTZ AUX)
    Blend: AUG-CC-PVTZ-JKFIT
	 Reference Energy          =    -375.1837470600827373 [Eh]
	 Singles Energy            =      -0.0000000000000000 [Eh]
	 Same-Spin Energy          =      -0.3719790495328891 [Eh]
	 Opposite-Spin Energy      =      -1.0349616275073434 [Eh]
	 Correlation Energy        =      -1.4069406770402324 [Eh]
	 Total Energy              =    -376.5906877371229484 [Eh]

	 ================> DF-SCS-MP2 Energies <==================
	-----------------------------------------------------------
	 SCS Same-Spin Scale       =       0.3333333333333333 [-]
	 SCS Opposite-Spin Scale   =       1.2000000000000000 [-]
	 SCS Same-Spin Energy      =      -0.1239930165109630 [Eh]
	 SCS Opposite-Spin Energy  =      -1.2419539530088122 [Eh]
	 SCS Correlation Energy    =      -1.3659469695197752 [Eh]
	 SCS Total Energy          =    -376.5496940296025059 [Eh]
	-----------------------------------------------------------

  Dipole Moment: [D]
     X:    -0.9437      Y:    -0.0000      Z:     0.0001     Total:     0.9437

*** Psi4 exiting successfully. Buy a developer a beer!
