                               Psi4 1.3.2 release

  ==> Input File <==

--------------------------------------------------------------------------
#psi4
#
memory 32 gb

molecule  {
-2 1
  O       -1.3858800     1.1351540    -0.0007920
  O        1.3858810    -1.1351480    -0.0008800
  O       -1.3858790    -1.1351540     0.0008180
  O        1.3858810     1.1351480     0.0008280
  C       -0.8047150     0.0000000     0.0000430
  C        0.9047110     0.0000000    -0.0000112
units angstrom
no_reorient  #important for SAPT in psi4, default
symmetry c1  #important for SAPT in psi4, default
}

set PROPERTIES_ORIGIN ["COM"]
properties('MP2/aug-cc-pvtz', properties = ['dipole'])
--------------------------------------------------------------------------

    Molecular point group: c1
  Charge       = -2
  Multiplicity = 1
  Basis Set: AUG-CC-PVTZ
    Blend: AUG-CC-PVTZ
  Basis Set: (AUG-CC-PVTZ AUX)
    Blend: AUG-CC-PVTZ-JKFIT

    Orbital Energies [Eh]
    ---------------------

    Doubly Occupied:

       1A    -20.148636     2A    -20.148601     3A    -20.135739
       4A    -20.135705     5A    -10.981079     6A    -10.971467
       7A     -1.032302     8A     -0.985954     9A     -0.937283
      10A     -0.890509    11A     -0.430413    12A     -0.321498
      13A     -0.283739    14A     -0.261623    15A     -0.224343
      16A     -0.223267    17A     -0.167198    18A     -0.129744
      19A     -0.085546    20A     -0.056714    21A     -0.033443
      22A     -0.030623    23A      0.014095

  @DF-RHF Final Energy:  -375.24486677441053

   => Energetics <=

    Nuclear Repulsion Energy =            205.8232172681871930
    One-Electron Energy =                -944.9335087893152831
    Two-Electron Energy =                 363.8654247467176219
    Total Energy =                       -375.2448667744105251
  Basis Set: (AUG-CC-PVTZ AUX)
    Blend: AUG-CC-PVTZ-RI
    Molecular point group: c1

    Geometry (in Angstrom), charge = -2, multiplicity = 1:

       Center              X                  Y                   Z               Mass
    ------------   -----------------  -----------------  -----------------  -----------------
         O           -1.399519516287     1.135154000000    -0.000791610503    15.994914619570
         O            1.372241483713    -1.135148000000    -0.000879610503    15.994914619570
         O           -1.399518516287    -1.135154000000     0.000818389497    15.994914619570
         O            1.372241483713     1.135148000000     0.000828389497    15.994914619570
         C           -0.818354516287     0.000000000000     0.000043389497    12.000000000000
         C            0.891071483713     0.000000000000    -0.000010810503    12.000000000000

  Basis Set: AUG-CC-PVTZ
    Blend: AUG-CC-PVTZ
  Basis Set: (AUG-CC-PVTZ AUX)
    Blend: AUG-CC-PVTZ-JKFIT
	 Reference Energy          =    -375.2448667744105251 [Eh]
	 Singles Energy            =      -0.0000000000000000 [Eh]
	 Same-Spin Energy          =      -0.3653510357247247 [Eh]
	 Opposite-Spin Energy      =      -1.0180040792065574 [Eh]
	 Correlation Energy        =      -1.3833551149312822 [Eh]
	 Total Energy              =    -376.6282218893418303 [Eh]

	 ================> DF-SCS-MP2 Energies <==================
	-----------------------------------------------------------
	 SCS Same-Spin Scale       =       0.3333333333333333 [-]
	 SCS Opposite-Spin Scale   =       1.2000000000000000 [-]
	 SCS Same-Spin Energy      =      -0.1217836785749082 [Eh]
	 SCS Opposite-Spin Energy  =      -1.2216048950478688 [Eh]
	 SCS Correlation Energy    =      -1.3433885736227771 [Eh]
	 SCS Total Energy          =    -376.5882553480333286 [Eh]
	-----------------------------------------------------------

  Dipole Moment: [D]
     X:     0.6608      Y:    -0.0000      Z:     0.0001     Total:     0.6608

*** Psi4 exiting successfully. Buy a developer a beer!
