                               Psi4 1.3.2 release

  ==> Input File <==

--------------------------------------------------------------------------
#psi4
#
memory 32 gb

molecule  {
-2 1
  O       -1.4636487     1.0918488    -0.0007653
  O        1.3858810    -1.1351480    -0.0008800
  O       -1.3858790    -1.1351540     0.0008180
  O        1.3858810     1.1351480     0.0008280
  C       -0.8047150     0.0000000     0.0000430
  C        0.8047110     0.0000000    -0.0000080
units angstrom
no_reorient  #important for SAPT in psi4, default
symmetry c1  #important for SAPT in psi4, default
}

set PROPERTIES_ORIGIN ["COM"]
properties('MP2/aug-cc-pvtz', properties = ['dipole'])
--------------------------------------------------------------------------

    Molecular point group: c1
  Charge       = -2
  Multiplicity = 1
  Basis Set: AUG-CC-PVTZ
    Blend: AUG-CC-PVTZ
  Basis Set: (AUG-CC-PVTZ AUX)
    Blend: AUG-CC-PVTZ-JKFIT

    Orbital Energies [Eh]
    ---------------------

    Doubly Occupied:

       1A    -20.147433     2A    -20.146734     3A    -20.141310
       4A    -20.138287     5A    -10.989011     6A    -10.982178
       7A     -1.018484     8A     -0.987784     9A     -0.910271
      10A     -0.888745    11A     -0.469129    12A     -0.318649
      13A     -0.284389    14A     -0.253162    15A     -0.219231
      16A     -0.217999    17A     -0.162806    18A     -0.125069
      19A     -0.074794    20A     -0.046448    21A     -0.032023
      22A     -0.030748    23A     -0.020225

  @DF-RHF Final Energy:  -375.24555270496990

   => Energetics <=

    Nuclear Repulsion Energy =            205.5182272928369400
    One-Electron Energy =                -944.3177448647754773
    Two-Electron Energy =                 363.5539648669686130
    Total Energy =                       -375.2455527049698958
  Basis Set: (AUG-CC-PVTZ AUX)
    Blend: AUG-CC-PVTZ-RI
    Molecular point group: c1

    Geometry (in Angstrom), charge = -2, multiplicity = 1:

       Center              X                  Y                   Z               Mass
    ------------   -----------------  -----------------  -----------------  -----------------
         O           -1.449510162145     1.099721790059    -0.000770201092    15.994914619570
         O            1.400019537855    -1.127275009941    -0.000884901092    15.994914619570
         O           -1.371740462145    -1.127281009941     0.000813098908    15.994914619570
         O            1.400019537855     1.143020990059     0.000823098908    15.994914619570
         C           -0.790576462145     0.007872990059     0.000038098908    12.000000000000
         C            0.818849537855     0.007872990059    -0.000012901092    12.000000000000

  Basis Set: AUG-CC-PVTZ
    Blend: AUG-CC-PVTZ
  Basis Set: (AUG-CC-PVTZ AUX)
    Blend: AUG-CC-PVTZ-JKFIT
	 Reference Energy          =    -375.2455527049698958 [Eh]
	 Singles Energy            =      -0.0000000000000000 [Eh]
	 Same-Spin Energy          =      -0.3659969252248733 [Eh]
	 Opposite-Spin Energy      =      -1.0206843572501958 [Eh]
	 Correlation Energy        =      -1.3866812824750692 [Eh]
	 Total Energy              =    -376.6322339874449767 [Eh]

	 ================> DF-SCS-MP2 Energies <==================
	-----------------------------------------------------------
	 SCS Same-Spin Scale       =       0.3333333333333333 [-]
	 SCS Opposite-Spin Scale   =       1.2000000000000000 [-]
	 SCS Same-Spin Energy      =      -0.1219989750749578 [Eh]
	 SCS Opposite-Spin Energy  =      -1.2248212287002349 [Eh]
	 SCS Correlation Energy    =      -1.3468202037751926 [Eh]
	 SCS Total Energy          =    -376.5923729087450624 [Eh]
	-----------------------------------------------------------

  Dipole Moment: [D]
     X:     0.1692      Y:    -0.0005      Z:     0.0000     Total:     0.1692

*** Psi4 exiting successfully. Buy a developer a beer!
