                               Psi4 1.3.2 release

  ==> Input File <==

--------------------------------------------------------------------------
#psi4
#
memory 32 gb

molecule  {
-2 1
  O       -1.2640404     1.1896838    -0.0008244
  O        1.3858810    -1.1351480    -0.0008800
  O       -1.3858790    -1.1351540     0.0008180
  O        1.3858810     1.1351480     0.0008280
  C       -0.8047150     0.0000000     0.0000430
  C        0.8047110     0.0000000    -0.0000080
units angstrom
no_reorient  #important for SAPT in psi4, default
symmetry c1  #important for SAPT in psi4, default
}

set PROPERTIES_ORIGIN ["COM"]
properties('MP2/aug-cc-pvtz', properties = ['dipole'])
--------------------------------------------------------------------------

    Molecular point group: c1
  Charge       = -2
  Multiplicity = 1
  Basis Set: AUG-CC-PVTZ
    Blend: AUG-CC-PVTZ
  Basis Set: (AUG-CC-PVTZ AUX)
    Blend: AUG-CC-PVTZ-JKFIT

    Orbital Energies [Eh]
    ---------------------

    Doubly Occupied:

       1A    -20.150660     2A    -20.145900     3A    -20.138148
       4A    -20.136874     5A    -10.985485     6A    -10.974992
       7A     -1.015454     8A     -0.980249     9A     -0.916437
      10A     -0.889890    11A     -0.461365    12A     -0.315724
      13A     -0.281958    14A     -0.253986    15A     -0.219356
      16A     -0.216592    17A     -0.158741    18A     -0.117581
      19A     -0.083010    20A     -0.049227    21A     -0.031093
      22A     -0.029764    23A     -0.008175

  @DF-RHF Final Energy:  -375.24293936930712

   => Energetics <=

    Nuclear Repulsion Energy =            206.5581101535023834
    One-Electron Energy =                -946.4807751817243116
    Two-Electron Energy =                 364.6797256589147764
    Total Energy =                       -375.2429393693071233
  Basis Set: (AUG-CC-PVTZ AUX)
    Blend: AUG-CC-PVTZ-RI
    Molecular point group: c1

    Geometry (in Angstrom), charge = -2, multiplicity = 1:

       Center              X                  Y                   Z               Mass
    ------------   -----------------  -----------------  -----------------  -----------------
         O           -1.286191133678     1.179770150523    -0.000818556570    15.994914619570
         O            1.363730266322    -1.145061649477    -0.000874156570    15.994914619570
         O           -1.408029733678    -1.145067649477     0.000823843430    15.994914619570
         O            1.363730266322     1.125234350523     0.000833843430    15.994914619570
         C           -0.826865733678    -0.009913649477     0.000048843430    12.000000000000
         C            0.782560266322    -0.009913649477    -0.000002156570    12.000000000000

  Basis Set: AUG-CC-PVTZ
    Blend: AUG-CC-PVTZ
  Basis Set: (AUG-CC-PVTZ AUX)
    Blend: AUG-CC-PVTZ-JKFIT
	 Reference Energy          =    -375.2429393693071233 [Eh]
	 Singles Energy            =      -0.0000000000000000 [Eh]
	 Same-Spin Energy          =      -0.3665399049633670 [Eh]
	 Opposite-Spin Energy      =      -1.0213210679232927 [Eh]
	 Correlation Energy        =      -1.3878609728866595 [Eh]
	 Total Energy              =    -376.6308003421937656 [Eh]

	 ================> DF-SCS-MP2 Energies <==================
	-----------------------------------------------------------
	 SCS Same-Spin Scale       =       0.3333333333333333 [-]
	 SCS Opposite-Spin Scale   =       1.2000000000000000 [-]
	 SCS Same-Spin Energy      =      -0.1221799683211223 [Eh]
	 SCS Opposite-Spin Energy  =      -1.2255852815079511 [Eh]
	 SCS Correlation Energy    =      -1.3477652498290733 [Eh]
	 SCS Total Energy          =    -376.5907046191362042 [Eh]
	-----------------------------------------------------------

  Dipole Moment: [D]
     X:    -0.2551      Y:     0.0090      Z:     0.0002     Total:     0.2553

*** Psi4 exiting successfully. Buy a developer a beer!
