                               Psi4 1.4a3.dev225

  ==> Input File <==

--------------------------------------------------------------------------
#psi4
#
memory 32 gb

molecule  {
-2 1
  O       -0.7545120     0.8512310     1.3408040
  O       -0.7545120    -0.8512310    -1.3408040
  O        0.7545120    -0.8512310     1.3408040
  O        0.7545120     0.8512310    -1.3408040
  C        0.0118460    -0.0133645     0.7583476
  C        0.0000000     0.0000000    -0.7673510
units angstrom
no_reorient  #important for SAPT in psi4, default
symmetry c1  #important for SAPT in psi4, default
}

set PROPERTIES_ORIGIN ["COM"]
properties('MP2/aug-cc-pvtz', properties = ['dipole'])
--------------------------------------------------------------------------

    Molecular point group: c1
  Charge       = -2
  Multiplicity = 1
  Basis Set: AUG-CC-PVTZ
    Blend: AUG-CC-PVTZ
  Basis Set: (AUG-CC-PVTZ AUX)
    Blend: AUG-CC-PVTZ-JKFIT

    Orbital Energies [Eh]
    ---------------------

    Doubly Occupied:

       1A    -20.150379     2A    -20.147503     3A    -20.147432
       4A    -20.142797     5A    -10.982947     6A    -10.982272
       7A     -1.025255     8A     -0.988850     9A     -0.909284
      10A     -0.903563    11A     -0.494692    12A     -0.323115
      13A     -0.284827    14A     -0.252748    15A     -0.249226
      16A     -0.187971    17A     -0.182573    18A     -0.133515
      19A     -0.061835    20A     -0.057463    21A     -0.055649
      22A     -0.038471    23A     -0.012205

  @DF-RHF Final Energy:  -375.25848525539453

   => Energetics <=

    Nuclear Repulsion Energy =            207.7178940901963244
    One-Electron Energy =                -948.5236106922196768
    Two-Electron Energy =                 365.5472313466288483
    Total Energy =                       -375.2584852553945325
  Basis Set: (AUG-CC-PVTZ AUX)
    Blend: AUG-CC-PVTZ-RI
    Molecular point group: c1

    Geometry (in Angstrom), charge = -2, multiplicity = 1:

       Center              X                  Y                   Z               Mass
    ------------   -----------------  -----------------  -----------------  -----------------
         O           -0.756127737120     0.853053853177     1.342032020225    15.994914619570
         O           -0.756127737120    -0.849408146823    -1.339575979775    15.994914619570
         O            0.752896262880    -0.849408146823     1.342032020225    15.994914619570
         O            0.752896262880     0.853053853177    -1.339575979775    15.994914619570
         C            0.010230262880    -0.011541646823     0.759575620225    12.000000000000
         C           -0.001615737120     0.001822853177    -0.766122979775    12.000000000000

  Basis Set: AUG-CC-PVTZ
    Blend: AUG-CC-PVTZ
  Basis Set: (AUG-CC-PVTZ AUX)
    Blend: AUG-CC-PVTZ-JKFIT
	 Reference Energy          =    -375.2584852553945325 [Eh]
	 Singles Energy            =      -0.0000000000000000 [Eh]
	 Same-Spin Energy          =      -0.3650116862441497 [Eh]
	 Opposite-Spin Energy      =      -1.0183460981832402 [Eh]
	 Correlation Energy        =      -1.3833577844273899 [Eh]
	 Total Energy              =    -376.6418430398219357 [Eh]

	 ================> DF-SCS-MP2 Energies <==================
	-----------------------------------------------------------
	 SCS Same-Spin Scale       =       0.3333333333333333 [-]
	 SCS Opposite-Spin Scale   =       1.2000000000000000 [-]
	 SCS Same-Spin Energy      =      -0.1216705620813832 [Eh]
	 SCS Opposite-Spin Energy  =      -1.2220153178198883 [Eh]
	 SCS Correlation Energy    =      -1.3436858799012714 [Eh]
	 SCS Total Energy          =    -376.6021711352958050 [Eh]
	-----------------------------------------------------------

  Dipole Moment: [D]
     X:     0.1579      Y:    -0.1719      Z:    -0.0523     Total:     0.2392

*** Psi4 exiting successfully. Buy a developer a beer!
