                               Psi4 1.4a3.dev225

  ==> Input File <==

--------------------------------------------------------------------------
#psi4
#
memory 32 gb

molecule  {
-2 1
  O       -0.7545120     0.8512310     1.3408040
  O       -0.7545120    -0.8512310    -1.3408040
  O        0.7545120    -0.8512310     1.3408040
  O        0.7545120     0.8512310    -1.3408040
  C       -0.0118460     0.0133645     0.7763544
  C        0.0000000     0.0000000    -0.7673510
units angstrom
no_reorient  #important for SAPT in psi4, default
symmetry c1  #important for SAPT in psi4, default
}

set PROPERTIES_ORIGIN ["COM"]
properties('MP2/aug-cc-pvtz', properties = ['dipole'])
--------------------------------------------------------------------------

    Molecular point group: c1
  Charge       = -2
  Multiplicity = 1
  Basis Set: AUG-CC-PVTZ
    Blend: AUG-CC-PVTZ
  Basis Set: (AUG-CC-PVTZ AUX)
    Blend: AUG-CC-PVTZ-JKFIT

    Orbital Energies [Eh]
    ---------------------

    Doubly Occupied:

       1A    -20.150750     2A    -20.146043     3A    -20.145972
       4A    -20.143137     5A    -10.981539     6A    -10.980932
       7A     -1.026112     8A     -0.990526     9A     -0.910120
      10A     -0.906593    11A     -0.486618    12A     -0.323439
      13A     -0.284980    14A     -0.252734    15A     -0.249425
      16A     -0.189781    17A     -0.184147    18A     -0.134654
      19A     -0.062332    20A     -0.058354    21A     -0.055891
      22A     -0.039009    23A     -0.007408

  @DF-RHF Final Energy:  -375.25993726309605

   => Energetics <=

    Nuclear Repulsion Energy =            207.6859676032839843
    One-Electron Energy =                -948.4708208575586923
    Two-Electron Energy =                 365.5249159911786592
    Total Energy =                       -375.2599372630960488
  Basis Set: (AUG-CC-PVTZ AUX)
    Blend: AUG-CC-PVTZ-RI
    Molecular point group: c1

    Geometry (in Angstrom), charge = -2, multiplicity = 1:

       Center              X                  Y                   Z               Mass
    ------------   -----------------  -----------------  -----------------  -----------------
         O           -0.752896262880     0.849408146823     1.339575979775    15.994914619570
         O           -0.752896262880    -0.853053853177    -1.342032020225    15.994914619570
         O            0.756127737120    -0.853053853177     1.339575979775    15.994914619570
         O            0.756127737120     0.849408146823    -1.342032020225    15.994914619570
         C           -0.010230262880     0.011541646823     0.775126379775    12.000000000000
         C            0.001615737120    -0.001822853177    -0.768579020225    12.000000000000

  Basis Set: AUG-CC-PVTZ
    Blend: AUG-CC-PVTZ
  Basis Set: (AUG-CC-PVTZ AUX)
    Blend: AUG-CC-PVTZ-JKFIT
	 Reference Energy          =    -375.2599372630960488 [Eh]
	 Singles Energy            =      -0.0000000000000000 [Eh]
	 Same-Spin Energy          =      -0.3646745815578029 [Eh]
	 Opposite-Spin Energy      =      -1.0175737122897617 [Eh]
	 Correlation Energy        =      -1.3822482938475646 [Eh]
	 Total Energy              =    -376.6421855569436161 [Eh]

	 ================> DF-SCS-MP2 Energies <==================
	-----------------------------------------------------------
	 SCS Same-Spin Scale       =       0.3333333333333333 [-]
	 SCS Opposite-Spin Scale   =       1.2000000000000000 [-]
	 SCS Same-Spin Energy      =      -0.1215581938526010 [Eh]
	 SCS Opposite-Spin Energy  =      -1.2210884547477139 [Eh]
	 SCS Correlation Energy    =      -1.3426466486003148 [Eh]
	 SCS Total Energy          =    -376.6025839116963425 [Eh]
	-----------------------------------------------------------

  Dipole Moment: [D]
     X:    -0.1592      Y:     0.1734      Z:     0.0505     Total:     0.2407

*** Psi4 exiting successfully. Buy a developer a beer!
