                               Psi4 1.3.2 release

  ==> Input File <==

--------------------------------------------------------------------------
#psi4
#
memory 32 gb

molecule  {
-2 1
  O       -1.3052799     1.1729288    -0.0008230
  O        1.3858810    -1.1351480    -0.0008800
  O       -1.3858790    -1.1351540     0.0008180
  O        1.3858810     1.1351480     0.0008280
  C       -0.8047150     0.0000000     0.0000430
  C        0.8047110     0.0000000    -0.0000080
units angstrom
no_reorient  #important for SAPT in psi4, default
symmetry c1  #important for SAPT in psi4, default
}

set PROPERTIES_ORIGIN ["COM"]
properties('MP2/aug-cc-pvtz', properties = ['dipole'])
--------------------------------------------------------------------------

    Molecular point group: c1
  Charge       = -2
  Multiplicity = 1
  Basis Set: AUG-CC-PVTZ
    Blend: AUG-CC-PVTZ
  Basis Set: (AUG-CC-PVTZ AUX)
    Blend: AUG-CC-PVTZ-JKFIT

    Orbital Energies [Eh]
    ---------------------

    Doubly Occupied:

       1A    -20.148303     2A    -20.145159     3A    -20.139938
       4A    -20.139123     5A    -10.984848     6A    -10.977872
       7A     -1.015874     8A     -0.981856     9A     -0.914272
      10A     -0.890944    11A     -0.462954    12A     -0.316287
      13A     -0.282519    14A     -0.253592    15A     -0.219876
      16A     -0.216738    17A     -0.159744    18A     -0.119172
      19A     -0.081059    20A     -0.048040    21A     -0.032202
      22A     -0.030873    23A     -0.010792

  @DF-RHF Final Energy:  -375.24504678178261

   => Energetics <=

    Nuclear Repulsion Energy =            206.3039197574322259
    One-Electron Energy =                -945.9538601139752245
    Two-Electron Energy =                 364.4048935747603650
    Total Energy =                       -375.2450467817826052
  Basis Set: (AUG-CC-PVTZ AUX)
    Blend: AUG-CC-PVTZ-RI
    Molecular point group: c1

    Geometry (in Angstrom), charge = -2, multiplicity = 1:

       Center              X                  Y                   Z               Mass
    ------------   -----------------  -----------------  -----------------  -----------------
         O           -1.319933192873     1.166061250032    -0.000817411093    15.994914619570
         O            1.371227707127    -1.142015549968    -0.000874411093    15.994914619570
         O           -1.400532292873    -1.142021549968     0.000823588907    15.994914619570
         O            1.371227707127     1.128280450032     0.000833588907    15.994914619570
         C           -0.819368292873    -0.006867549968     0.000048588907    12.000000000000
         C            0.790057707127    -0.006867549968    -0.000002411093    12.000000000000

  Basis Set: AUG-CC-PVTZ
    Blend: AUG-CC-PVTZ
  Basis Set: (AUG-CC-PVTZ AUX)
    Blend: AUG-CC-PVTZ-JKFIT
	 Reference Energy          =    -375.2450467817826052 [Eh]
	 Singles Energy            =      -0.0000000000000000 [Eh]
	 Same-Spin Energy          =      -0.3663543044622450 [Eh]
	 Opposite-Spin Energy      =      -1.0210689789140763 [Eh]
	 Correlation Energy        =      -1.3874232833763214 [Eh]
	 Total Energy              =    -376.6324700651589410 [Eh]

	 ================> DF-SCS-MP2 Energies <==================
	-----------------------------------------------------------
	 SCS Same-Spin Scale       =       0.3333333333333333 [-]
	 SCS Opposite-Spin Scale   =       1.2000000000000000 [-]
	 SCS Same-Spin Energy      =      -0.1221181014874150 [Eh]
	 SCS Opposite-Spin Energy  =      -1.2252827746968915 [Eh]
	 SCS Correlation Energy    =      -1.3474008761843066 [Eh]
	 SCS Total Energy          =    -376.5924476579668863 [Eh]
	-----------------------------------------------------------

  Dipole Moment: [D]
     X:    -0.1703      Y:     0.0049      Z:     0.0001     Total:     0.1703

*** Psi4 exiting successfully. Buy a developer a beer!
