                               Psi4 1.3.2 release

  ==> Input File <==

--------------------------------------------------------------------------
#psi4
#
memory 32 gb

molecule  {
-2 1
  O       -1.3858800     1.1351540    -0.0007920
  O        1.3858810    -1.1351480    -0.0008800
  O       -1.3858790    -1.1351540     0.0008180
  O        1.3858810     1.1351480     0.0008280
  C       -0.8047150     0.0000000     0.0000430
  C        0.7047110     0.0000000    -0.0000048
units angstrom
no_reorient  #important for SAPT in psi4, default
symmetry c1  #important for SAPT in psi4, default
}

set PROPERTIES_ORIGIN ["COM"]
properties('MP2/aug-cc-pvtz', properties = ['dipole'])
--------------------------------------------------------------------------

    Molecular point group: c1
  Charge       = -2
  Multiplicity = 1
  Basis Set: AUG-CC-PVTZ
    Blend: AUG-CC-PVTZ
  Basis Set: (AUG-CC-PVTZ AUX)
    Blend: AUG-CC-PVTZ-JKFIT

    Orbital Energies [Eh]
    ---------------------

    Doubly Occupied:

       1A    -20.150296     2A    -20.150262     3A    -20.142299
       4A    -20.142264     5A    -10.990736     6A    -10.990110
       7A     -1.019094     8A     -0.966583     9A     -0.912431
      10A     -0.867445    11A     -0.510191    12A     -0.317690
      13A     -0.280092    14A     -0.257183    15A     -0.220375
      16A     -0.204378    17A     -0.147088    18A     -0.114773
      19A     -0.074966    20A     -0.047314    21A     -0.040531
      22A     -0.028541    23A     -0.023774

  @DF-RHF Final Energy:  -375.22773098524590

   => Energetics <=

    Nuclear Repulsion Energy =            205.9530002343420279
    One-Electron Energy =                -945.1646297341961827
    Two-Electron Energy =                 363.9838985146081995
    Total Energy =                       -375.2277309852458984
  Basis Set: (AUG-CC-PVTZ AUX)
    Blend: AUG-CC-PVTZ-RI
    Molecular point group: c1

    Geometry (in Angstrom), charge = -2, multiplicity = 1:

       Center              X                  Y                   Z               Mass
    ------------   -----------------  -----------------  -----------------  -----------------
         O           -1.372240483366     1.135154000000    -0.000792483432    15.994914619570
         O            1.399520516634    -1.135148000000    -0.000880483432    15.994914619570
         O           -1.372239483366    -1.135154000000     0.000817516568    15.994914619570
         O            1.399520516634     1.135148000000     0.000827516568    15.994914619570
         C           -0.791075483366     0.000000000000     0.000042516568    12.000000000000
         C            0.718350516634     0.000000000000    -0.000005283432    12.000000000000

  Basis Set: AUG-CC-PVTZ
    Blend: AUG-CC-PVTZ
  Basis Set: (AUG-CC-PVTZ AUX)
    Blend: AUG-CC-PVTZ-JKFIT
	 Reference Energy          =    -375.2277309852458984 [Eh]
	 Singles Energy            =      -0.0000000000000000 [Eh]
	 Same-Spin Energy          =      -0.3682816890550700 [Eh]
	 Opposite-Spin Energy      =      -1.0262769687498614 [Eh]
	 Correlation Energy        =      -1.3945586578049314 [Eh]
	 Total Energy              =    -376.6222896430508058 [Eh]

	 ================> DF-SCS-MP2 Energies <==================
	-----------------------------------------------------------
	 SCS Same-Spin Scale       =       0.3333333333333333 [-]
	 SCS Opposite-Spin Scale   =       1.2000000000000000 [-]
	 SCS Same-Spin Energy      =      -0.1227605630183567 [Eh]
	 SCS Opposite-Spin Energy  =      -1.2315323624998336 [Eh]
	 SCS Correlation Energy    =      -1.3542929255181901 [Eh]
	 SCS Total Energy          =    -376.5820239107640646 [Eh]
	-----------------------------------------------------------

  Dipole Moment: [D]
     X:    -0.5253      Y:    -0.0000      Z:     0.0001     Total:     0.5253

*** Psi4 exiting successfully. Buy a developer a beer!
