                               Psi4 1.3.2 release

  ==> Input File <==

--------------------------------------------------------------------------
#psi4
#
memory 32 gb

molecule  {
-2 1
  O       -1.3858800     1.1351540    -0.0007920
  O        1.3858810    -1.1351480    -0.0008800
  O       -1.3858790    -1.1351540     0.0008180
  O        1.3858810     1.1351480     0.0008280
  C       -0.7591433    -0.0890124     0.0001085
  C        0.8047110     0.0000000    -0.0000080
units angstrom
no_reorient  #important for SAPT in psi4, default
symmetry c1  #important for SAPT in psi4, default
}

set PROPERTIES_ORIGIN ["COM"]
properties('MP2/aug-cc-pvtz', properties = ['dipole'])
--------------------------------------------------------------------------

    Molecular point group: c1
  Charge       = -2
  Multiplicity = 1
  Basis Set: AUG-CC-PVTZ
    Blend: AUG-CC-PVTZ
  Basis Set: (AUG-CC-PVTZ AUX)
    Blend: AUG-CC-PVTZ-JKFIT

    Orbital Energies [Eh]
    ---------------------

    Doubly Occupied:

       1A    -20.162280     2A    -20.147080     3A    -20.146598
       4A    -20.122882     5A    -10.987766     6A    -10.985179
       7A     -1.028726     8A     -0.995967     9A     -0.907067
      10A     -0.861500    11A     -0.484791    12A     -0.322603
      13A     -0.289234    14A     -0.253347    15A     -0.221923
      16A     -0.214468    17A     -0.163202    18A     -0.121292
      19A     -0.072482    20A     -0.044728    21A     -0.028166
      22A     -0.023912    23A     -0.021929

  @DF-RHF Final Energy:  -375.23150950824595

   => Energetics <=

    Nuclear Repulsion Energy =            205.9910273205298950
    One-Electron Energy =                -945.2308286444797432
    Two-Electron Energy =                 364.0082918157039558
    Total Energy =                       -375.2315095082459493
  Basis Set: (AUG-CC-PVTZ AUX)
    Blend: AUG-CC-PVTZ-RI
    Molecular point group: c1

    Geometry (in Angstrom), charge = -2, multiplicity = 1:

       Center              X                  Y                   Z               Mass
    ------------   -----------------  -----------------  -----------------  -----------------
         O           -1.392095759349     1.147294860950    -0.000800980851    15.994914619570
         O            1.379665240651    -1.123007139050    -0.000888980851    15.994914619570
         O           -1.392094759349    -1.123013139050     0.000809019149    15.994914619570
         O            1.379665240651     1.147288860950     0.000819019149    15.994914619570
         C           -0.765359059349    -0.076871539050     0.000099519149    12.000000000000
         C            0.798495240651     0.012140860950    -0.000016980851    12.000000000000

  Basis Set: AUG-CC-PVTZ
    Blend: AUG-CC-PVTZ
  Basis Set: (AUG-CC-PVTZ AUX)
    Blend: AUG-CC-PVTZ-JKFIT
	 Reference Energy          =    -375.2315095082459493 [Eh]
	 Singles Energy            =      -0.0000000000000000 [Eh]
	 Same-Spin Energy          =      -0.3669444836233868 [Eh]
	 Opposite-Spin Energy      =      -1.0230356177651494 [Eh]
	 Correlation Energy        =      -1.3899801013885362 [Eh]
	 Total Energy              =    -376.6214896096344660 [Eh]

	 ================> DF-SCS-MP2 Energies <==================
	-----------------------------------------------------------
	 SCS Same-Spin Scale       =       0.3333333333333333 [-]
	 SCS Opposite-Spin Scale   =       1.2000000000000000 [-]
	 SCS Same-Spin Energy      =      -0.1223148278744623 [Eh]
	 SCS Opposite-Spin Energy  =      -1.2276427413181792 [Eh]
	 SCS Correlation Energy    =      -1.3499575691926415 [Eh]
	 SCS Total Energy          =    -376.5814670774386173 [Eh]
	-----------------------------------------------------------

  Dipole Moment: [D]
     X:     0.3051      Y:    -1.0169      Z:     0.0011     Total:     1.0617

*** Psi4 exiting successfully. Buy a developer a beer!
