                               Psi4 1.3.2 release

  ==> Input File <==

--------------------------------------------------------------------------
#psi4
#
memory 32 gb

molecule  {
-2 1
  O       -1.5013523     1.0681872    -0.0007505
  O        1.3858810    -1.1351480    -0.0008800
  O       -1.3858790    -1.1351540     0.0008180
  O        1.3858810     1.1351480     0.0008280
  C       -0.8047150     0.0000000     0.0000430
  C        0.8047110     0.0000000    -0.0000080
units angstrom
no_reorient  #important for SAPT in psi4, default
symmetry c1  #important for SAPT in psi4, default
}

set PROPERTIES_ORIGIN ["COM"]
properties('MP2/aug-cc-pvtz', properties = ['dipole'])
--------------------------------------------------------------------------

    Molecular point group: c1
  Charge       = -2
  Multiplicity = 1
  Basis Set: AUG-CC-PVTZ
    Blend: AUG-CC-PVTZ
  Basis Set: (AUG-CC-PVTZ AUX)
    Blend: AUG-CC-PVTZ-JKFIT

    Orbital Energies [Eh]
    ---------------------

    Doubly Occupied:

       1A    -20.149347     2A    -20.148335     3A    -20.140122
       4A    -20.135635     5A    -10.991674     6A    -10.981495
       7A     -1.019331     8A     -0.989181     9A     -0.910704
      10A     -0.886294    11A     -0.470619    12A     -0.319252
      13A     -0.284733    14A     -0.253413    15A     -0.218470
      16A     -0.218299    17A     -0.163348    18A     -0.126413
      19A     -0.073899    20A     -0.047036    21A     -0.030550
      22A     -0.029365    23A     -0.022358

  @DF-RHF Final Energy:  -375.24371272056976

   => Energetics <=

    Nuclear Repulsion Energy =            205.3778594104582282
    One-Electron Energy =                -944.0233975483151880
    Two-Electron Energy =                 363.4018254172872275
    Total Energy =                       -375.2437127205697607
  Basis Set: (AUG-CC-PVTZ AUX)
    Blend: AUG-CC-PVTZ-RI
    Molecular point group: c1

    Geometry (in Angstrom), charge = -2, multiplicity = 1:

       Center              X                  Y                   Z               Mass
    ------------   -----------------  -----------------  -----------------  -----------------
         O           -1.480359156509     1.080361926145    -0.000758091768    15.994914619570
         O            1.406874143491    -1.122973273855    -0.000887591768    15.994914619570
         O           -1.364885856509    -1.122979273855     0.000810408232    15.994914619570
         O            1.406874143491     1.147322726145     0.000820408232    15.994914619570
         C           -0.783721856509     0.012174726145     0.000035408232    12.000000000000
         C            0.825704143491     0.012174726145    -0.000015591768    12.000000000000

  Basis Set: AUG-CC-PVTZ
    Blend: AUG-CC-PVTZ
  Basis Set: (AUG-CC-PVTZ AUX)
    Blend: AUG-CC-PVTZ-JKFIT
	 Reference Energy          =    -375.2437127205697607 [Eh]
	 Singles Energy            =      -0.0000000000000000 [Eh]
	 Same-Spin Energy          =      -0.3659995090071415 [Eh]
	 Opposite-Spin Energy      =      -1.0207451639281893 [Eh]
	 Correlation Energy        =      -1.3867446729353308 [Eh]
	 Total Energy              =    -376.6304573935050826 [Eh]

	 ================> DF-SCS-MP2 Energies <==================
	-----------------------------------------------------------
	 SCS Same-Spin Scale       =       0.3333333333333333 [-]
	 SCS Opposite-Spin Scale   =       1.2000000000000000 [-]
	 SCS Same-Spin Energy      =      -0.1219998363357138 [Eh]
	 SCS Opposite-Spin Energy  =      -1.2248941967138272 [Eh]
	 SCS Correlation Energy    =      -1.3468940330495409 [Eh]
	 SCS Total Energy          =    -376.5906067536192836 [Eh]
	-----------------------------------------------------------

  Dipole Moment: [D]
     X:     0.2528      Y:     0.0008      Z:     0.0000     Total:     0.2528

*** Psi4 exiting successfully. Buy a developer a beer!
