                               Psi4 1.4a3.dev225

  ==> Input File <==

--------------------------------------------------------------------------
#psi4
#
memory 32 gb

molecule  {
-2 1
  O       -0.7545120     0.8512310     1.3408040
  O       -0.7545120    -0.8512310    -1.3408040
  O        0.7545120    -0.8512310     1.3408040
  O        0.7545120     0.8512310    -1.3408040
  C       -0.0296151     0.0334114     0.7898594
  C        0.0000000     0.0000000    -0.7673510
units angstrom
no_reorient  #important for SAPT in psi4, default
symmetry c1  #important for SAPT in psi4, default
}

set PROPERTIES_ORIGIN ["COM"]
properties('MP2/aug-cc-pvtz', properties = ['dipole'])
--------------------------------------------------------------------------

    Molecular point group: c1
  Charge       = -2
  Multiplicity = 1
  Basis Set: AUG-CC-PVTZ
    Blend: AUG-CC-PVTZ
  Basis Set: (AUG-CC-PVTZ AUX)
    Blend: AUG-CC-PVTZ-JKFIT

    Orbital Energies [Eh]
    ---------------------

    Doubly Occupied:

       1A    -20.156861     2A    -20.144958     3A    -20.144796
       4A    -20.137798     5A    -10.980397     6A    -10.979700
       7A     -1.032203     8A     -0.994785     9A     -0.907667
      10A     -0.904987    11A     -0.480685    12A     -0.325348
      13A     -0.286625    14A     -0.253346    15A     -0.248930
      16A     -0.193643    17A     -0.184801    18A     -0.135979
      19A     -0.062376    20A     -0.058453    21A     -0.054749
      22A     -0.038496    23A     -0.002984

  @DF-RHF Final Energy:  -375.25810563675623

   => Energetics <=

    Nuclear Repulsion Energy =            207.6860627577091805
    One-Electron Energy =                -948.4672003467102286
    Two-Electron Energy =                 365.5230319522447644
    Total Energy =                       -375.2581056367562269
  Basis Set: (AUG-CC-PVTZ AUX)
    Blend: AUG-CC-PVTZ-RI
    Molecular point group: c1

    Geometry (in Angstrom), charge = -2, multiplicity = 1:

       Center              X                  Y                   Z               Mass
    ------------   -----------------  -----------------  -----------------  -----------------
         O           -0.750472643561     0.846673846597     1.337733963077    15.994914619570
         O           -0.750472643561    -0.855788153403    -1.343874036923    15.994914619570
         O            0.758551356439    -0.855788153403     1.337733963077    15.994914619570
         O            0.758551356439     0.846673846597    -1.343874036923    15.994914619570
         C           -0.025575743561     0.028854246597     0.786789363077    12.000000000000
         C            0.004039356439    -0.004557153403    -0.770421036923    12.000000000000

  Basis Set: AUG-CC-PVTZ
    Blend: AUG-CC-PVTZ
  Basis Set: (AUG-CC-PVTZ AUX)
    Blend: AUG-CC-PVTZ-JKFIT
	 Reference Energy          =    -375.2581056367562269 [Eh]
	 Singles Energy            =      -0.0000000000000000 [Eh]
	 Same-Spin Energy          =      -0.3644446907632092 [Eh]
	 Opposite-Spin Energy      =      -1.0170541997375129 [Eh]
	 Correlation Energy        =      -1.3814988905007222 [Eh]
	 Total Energy              =    -376.6396045272569495 [Eh]

	 ================> DF-SCS-MP2 Energies <==================
	-----------------------------------------------------------
	 SCS Same-Spin Scale       =       0.3333333333333333 [-]
	 SCS Opposite-Spin Scale   =       1.2000000000000000 [-]
	 SCS Same-Spin Energy      =      -0.1214815635877364 [Eh]
	 SCS Opposite-Spin Energy  =      -1.2204650396850154 [Eh]
	 SCS Correlation Energy    =      -1.3419466032727518 [Eh]
	 SCS Total Energy          =    -376.6000522400289583 [Eh]
	-----------------------------------------------------------

  Dipole Moment: [D]
     X:    -0.4009      Y:     0.4368      Z:     0.1228     Total:     0.6055

*** Psi4 exiting successfully. Buy a developer a beer!
