                               Psi4 1.4a3.dev225

  ==> Input File <==

--------------------------------------------------------------------------
#psi4
#
memory 32 gb

molecule  {
-2 1
  O       -0.7545120     0.8512310     1.3408040
  O       -0.7545120    -0.8512310    -1.3408040
  O        0.7545120    -0.8512310     1.3408040
  O        0.7545120     0.8512310    -1.3408040
  C        0.0000000     0.0000000     0.7673510
  C        0.0000000     0.0000000    -0.7473510
units angstrom
no_reorient  #important for SAPT in psi4, default
symmetry c1  #important for SAPT in psi4, default
}

set PROPERTIES_ORIGIN ["COM"]
properties('MP2/aug-cc-pvtz', properties = ['dipole'])
--------------------------------------------------------------------------

    Molecular point group: c1
  Charge       = -2
  Multiplicity = 1
  Basis Set: AUG-CC-PVTZ
    Blend: AUG-CC-PVTZ
  Basis Set: (AUG-CC-PVTZ AUX)
    Blend: AUG-CC-PVTZ-JKFIT

    Orbital Energies [Eh]
    ---------------------

    Doubly Occupied:

       1A    -20.148375     2A    -20.148342     3A    -20.146428
       4A    -20.146396     5A    -10.983844     6A    -10.983090
       7A     -1.024558     8A     -0.986438     9A     -0.910222
      10A     -0.901604    11A     -0.499774    12A     -0.322764
      13A     -0.284299    14A     -0.253460    15A     -0.248640
      16A     -0.187138    17A     -0.180799    18A     -0.132744
      19A     -0.062152    20A     -0.056515    21A     -0.055839
      22A     -0.038190    23A     -0.015186

  @DF-RHF Final Energy:  -375.25757626465281

   => Energetics <=

    Nuclear Repulsion Energy =            207.7346582281683709
    One-Electron Energy =                -948.5508778659296922
    Two-Electron Energy =                 365.5586433731085663
    Total Energy =                       -375.2575762646528119
  Basis Set: (AUG-CC-PVTZ AUX)
    Blend: AUG-CC-PVTZ-RI
    Molecular point group: c1

    Geometry (in Angstrom), charge = -2, multiplicity = 1:

       Center              X                  Y                   Z               Mass
    ------------   -----------------  -----------------  -----------------  -----------------
         O           -0.754512000000     0.851231000000     1.338076096708    15.994914619570
         O           -0.754512000000    -0.851231000000    -1.343531903292    15.994914619570
         O            0.754512000000    -0.851231000000     1.338076096708    15.994914619570
         O            0.754512000000     0.851231000000    -1.343531903292    15.994914619570
         C           -0.000000000000     0.000000000000     0.764623096708    12.000000000000
         C           -0.000000000000     0.000000000000    -0.750078903292    12.000000000000

  Basis Set: AUG-CC-PVTZ
    Blend: AUG-CC-PVTZ
  Basis Set: (AUG-CC-PVTZ AUX)
    Blend: AUG-CC-PVTZ-JKFIT
	 Reference Energy          =    -375.2575762646528119 [Eh]
	 Singles Energy            =      -0.0000000000000000 [Eh]
	 Same-Spin Energy          =      -0.3652436376123794 [Eh]
	 Opposite-Spin Energy      =      -1.0188617523251997 [Eh]
	 Correlation Energy        =      -1.3841053899375790 [Eh]
	 Total Energy              =    -376.6416816545903998 [Eh]

	 ================> DF-SCS-MP2 Energies <==================
	-----------------------------------------------------------
	 SCS Same-Spin Scale       =       0.3333333333333333 [-]
	 SCS Opposite-Spin Scale   =       1.2000000000000000 [-]
	 SCS Same-Spin Energy      =      -0.1217478792041265 [Eh]
	 SCS Opposite-Spin Energy  =      -1.2226341027902397 [Eh]
	 SCS Correlation Energy    =      -1.3443819819943661 [Eh]
	 SCS Total Energy          =    -376.6019582466472002 [Eh]
	-----------------------------------------------------------

  Dipole Moment: [D]
     X:    -0.0000      Y:     0.0000      Z:     0.1127     Total:     0.1127

*** Psi4 exiting successfully. Buy a developer a beer!
