                               Psi4 1.3.2 release

  ==> Input File <==

--------------------------------------------------------------------------
#psi4
#
memory 32 gb

molecule  {
-2 1
  O       -1.3858800     1.1351540    -0.0007920
  O        1.3858810    -1.1351480    -0.0008800
  O       -1.3858790    -1.1351540     0.0008180
  O        1.3858810     1.1351480     0.0008280
  C       -0.8958584     0.1780249    -0.0000880
  C        0.8047110     0.0000000    -0.0000080
units angstrom
no_reorient  #important for SAPT in psi4, default
symmetry c1  #important for SAPT in psi4, default
}

set PROPERTIES_ORIGIN ["COM"]
properties('MP2/aug-cc-pvtz', properties = ['dipole'])
--------------------------------------------------------------------------

    Molecular point group: c1
  Charge       = -2
  Multiplicity = 1
  Basis Set: AUG-CC-PVTZ
    Blend: AUG-CC-PVTZ
  Basis Set: (AUG-CC-PVTZ AUX)
    Blend: AUG-CC-PVTZ-JKFIT

    Orbital Energies [Eh]
    ---------------------

    Doubly Occupied:

       1A    -20.189192     2A    -20.137868     3A    -20.135813
       4A    -20.109383     5A    -10.975437     6A    -10.972963
       7A     -1.134693     8A     -0.991744     9A     -0.894329
      10A     -0.851621    11A     -0.436088    12A     -0.357173
      13A     -0.297996    14A     -0.266616    15A     -0.259214
      16A     -0.224491    17A     -0.175954    18A     -0.135886
      19A     -0.064727    20A     -0.037658    21A     -0.023954
      22A     -0.022272    23A      0.024890

  @DF-RHF Final Energy:  -375.18238938134255

   => Energetics <=

    Nuclear Repulsion Energy =            206.4031123316883907
    One-Electron Energy =                -945.8306394538778932
    Two-Electron Energy =                 364.2451377408469853
    Total Energy =                       -375.1823893813425457
  Basis Set: (AUG-CC-PVTZ AUX)
    Blend: AUG-CC-PVTZ-RI
    Molecular point group: c1

    Geometry (in Angstrom), charge = -2, multiplicity = 1:

       Center              X                  Y                   Z               Mass
    ------------   -----------------  -----------------  -----------------  -----------------
         O           -1.373448480781     1.110872264461    -0.000774179201    15.994914619570
         O            1.398312519219    -1.159429735539    -0.000862179201    15.994914619570
         O           -1.373447480781    -1.159435735539     0.000835820799    15.994914619570
         O            1.398312519219     1.110866264461     0.000845820799    15.994914619570
         C           -0.883426880781     0.153743164461    -0.000070179201    12.000000000000
         C            0.817142519219    -0.024281735539     0.000009820799    12.000000000000

  Basis Set: AUG-CC-PVTZ
    Blend: AUG-CC-PVTZ
  Basis Set: (AUG-CC-PVTZ AUX)
    Blend: AUG-CC-PVTZ-JKFIT
	 Reference Energy          =    -375.1823893813425457 [Eh]
	 Singles Energy            =      -0.0000000000000000 [Eh]
	 Same-Spin Energy          =      -0.3654862117957691 [Eh]
	 Opposite-Spin Energy      =      -1.0186651213890787 [Eh]
	 Correlation Energy        =      -1.3841513331848478 [Eh]
	 Total Energy              =    -376.5665407145273775 [Eh]

	 ================> DF-SCS-MP2 Energies <==================
	-----------------------------------------------------------
	 SCS Same-Spin Scale       =       0.3333333333333333 [-]
	 SCS Opposite-Spin Scale   =       1.2000000000000000 [-]
	 SCS Same-Spin Energy      =      -0.1218287372652564 [Eh]
	 SCS Opposite-Spin Energy  =      -1.2223981456668944 [Eh]
	 SCS Correlation Energy    =      -1.3442268829321509 [Eh]
	 SCS Total Energy          =    -376.5266162642747076 [Eh]
	-----------------------------------------------------------

  Dipole Moment: [D]
     X:    -0.4137      Y:     2.2379      Z:    -0.0020     Total:     2.2758

*** Psi4 exiting successfully. Buy a developer a beer!
