                               Psi4 1.4a3.dev225

  ==> Input File <==

--------------------------------------------------------------------------
#psi4
#
memory 32 gb

molecule  {
-2 1
  O       -0.7545120     0.8512310     1.3408040
  O       -0.7545120    -0.8512310    -1.3408040
  O        0.7545120    -0.8512310     1.3408040
  O        0.7545120     0.8512310    -1.3408040
  C        0.0000000     0.0000000     0.7673510
  C        0.0000000     0.0000000    -0.7873510
units angstrom
no_reorient  #important for SAPT in psi4, default
symmetry c1  #important for SAPT in psi4, default
}

set PROPERTIES_ORIGIN ["COM"]
properties('MP2/aug-cc-pvtz', properties = ['dipole'])
--------------------------------------------------------------------------

    Molecular point group: c1
  Charge       = -2
  Multiplicity = 1
  Basis Set: AUG-CC-PVTZ
    Blend: AUG-CC-PVTZ
  Basis Set: (AUG-CC-PVTZ AUX)
    Blend: AUG-CC-PVTZ-JKFIT

    Orbital Energies [Eh]
    ---------------------

    Doubly Occupied:

       1A    -20.147222     2A    -20.147189     3A    -20.145130
       4A    -20.145098     5A    -10.980896     6A    -10.979947
       7A     -1.026079     8A     -0.990360     9A     -0.914640
      10A     -0.905944    11A     -0.481832    12A     -0.323413
      13A     -0.284676    14A     -0.253707    15A     -0.248808
      16A     -0.190927    17A     -0.184523    18A     -0.135238
      19A     -0.063735    20A     -0.057903    21A     -0.056618
      22A     -0.039314    23A     -0.004518

  @DF-RHF Final Energy:  -375.26087722439576

   => Energetics <=

    Nuclear Repulsion Energy =            207.6629881075468234
    One-Electron Energy =                -948.4322914326912723
    Two-Electron Energy =                 365.5084261007486361
    Total Energy =                       -375.2608772243957560
  Basis Set: (AUG-CC-PVTZ AUX)
    Blend: AUG-CC-PVTZ-RI
    Molecular point group: c1

    Geometry (in Angstrom), charge = -2, multiplicity = 1:

       Center              X                  Y                   Z               Mass
    ------------   -----------------  -----------------  -----------------  -----------------
         O           -0.754512000000     0.851231000000     1.343531903292    15.994914619570
         O           -0.754512000000    -0.851231000000    -1.338076096708    15.994914619570
         O            0.754512000000    -0.851231000000     1.343531903292    15.994914619570
         O            0.754512000000     0.851231000000    -1.338076096708    15.994914619570
         C           -0.000000000000     0.000000000000     0.770078903292    12.000000000000
         C           -0.000000000000     0.000000000000    -0.784623096708    12.000000000000

  Basis Set: AUG-CC-PVTZ
    Blend: AUG-CC-PVTZ
  Basis Set: (AUG-CC-PVTZ AUX)
    Blend: AUG-CC-PVTZ-JKFIT
	 Reference Energy          =    -375.2608772243957560 [Eh]
	 Singles Energy            =      -0.0000000000000000 [Eh]
	 Same-Spin Energy          =      -0.3644945834723600 [Eh]
	 Opposite-Spin Energy      =      -1.0171461107588198 [Eh]
	 Correlation Energy        =      -1.3816406942311796 [Eh]
	 Total Energy              =    -376.6425179186269361 [Eh]

	 ================> DF-SCS-MP2 Energies <==================
	-----------------------------------------------------------
	 SCS Same-Spin Scale       =       0.3333333333333333 [-]
	 SCS Opposite-Spin Scale   =       1.2000000000000000 [-]
	 SCS Same-Spin Energy      =      -0.1214981944907867 [Eh]
	 SCS Opposite-Spin Energy  =      -1.2205753329105837 [Eh]
	 SCS Correlation Energy    =      -1.3420735274013704 [Eh]
	 SCS Total Energy          =    -376.6029507517971524 [Eh]
	-----------------------------------------------------------

  Dipole Moment: [D]
     X:     0.0000      Y:     0.0000      Z:    -0.1157     Total:     0.1157

*** Psi4 exiting successfully. Buy a developer a beer!
