                               Psi4 1.3.2 release

  ==> Input File <==

--------------------------------------------------------------------------
#psi4
#
memory 32 gb

molecule  {
-2 1
  O       -1.4251423     1.1141801    -0.0007792
  O        1.3858810    -1.1351480    -0.0008800
  O       -1.3858790    -1.1351540     0.0008180
  O        1.3858810     1.1351480     0.0008280
  C       -0.8047150     0.0000000     0.0000430
  C        0.8047110     0.0000000    -0.0000080
units angstrom
no_reorient  #important for SAPT in psi4, default
symmetry c1  #important for SAPT in psi4, default
}

set PROPERTIES_ORIGIN ["COM"]
properties('MP2/aug-cc-pvtz', properties = ['dipole'])
--------------------------------------------------------------------------

    Molecular point group: c1
  Charge       = -2
  Multiplicity = 1
  Basis Set: AUG-CC-PVTZ
    Blend: AUG-CC-PVTZ
  Basis Set: (AUG-CC-PVTZ AUX)
    Blend: AUG-CC-PVTZ-JKFIT

    Orbital Energies [Eh]
    ---------------------

    Doubly Occupied:

       1A    -20.145456     2A    -20.145092     3A    -20.142408
       4A    -20.140880     5A    -10.986303     6A    -10.982849
       7A     -1.017707     8A     -0.986364     9A     -0.910354
      10A     -0.890487    11A     -0.467616    12A     -0.318049
      13A     -0.283989    14A     -0.253060    15A     -0.219844
      16A     -0.217590    17A     -0.162179    18A     -0.123675
      19A     -0.076001    20A     -0.046220    21A     -0.032879
      22A     -0.031622    23A     -0.018007

  @DF-RHF Final Energy:  -375.24660345941049

   => Energetics <=

    Nuclear Repulsion Energy =            205.6807317857116288
    One-Electron Energy =                -944.6574058500847286
    Two-Electron Energy =                 363.7300706049626342
    Total Energy =                       -375.2466034594104940
  Basis Set: (AUG-CC-PVTZ AUX)
    Blend: AUG-CC-PVTZ-RI
    Molecular point group: c1

    Geometry (in Angstrom), charge = -2, multiplicity = 1:

       Center              X                  Y                   Z               Mass
    ------------   -----------------  -----------------  -----------------  -----------------
         O           -1.418004318762     1.117993205729    -0.000781574039    15.994914619570
         O            1.393018981238    -1.131334894271    -0.000882374039    15.994914619570
         O           -1.378741018762    -1.131340894271     0.000815625961    15.994914619570
         O            1.393018981238     1.138961105729     0.000825625961    15.994914619570
         C           -0.797577018762     0.003813105729     0.000040625961    12.000000000000
         C            0.811848981238     0.003813105729    -0.000010374039    12.000000000000

  Basis Set: AUG-CC-PVTZ
    Blend: AUG-CC-PVTZ
  Basis Set: (AUG-CC-PVTZ AUX)
    Blend: AUG-CC-PVTZ-JKFIT
	 Reference Energy          =    -375.2466034594104940 [Eh]
	 Singles Energy            =      -0.0000000000000000 [Eh]
	 Same-Spin Energy          =      -0.3660305072341259 [Eh]
	 Opposite-Spin Energy      =      -1.0206872949139947 [Eh]
	 Correlation Energy        =      -1.3867178021481206 [Eh]
	 Total Energy              =    -376.6333212615585921 [Eh]

	 ================> DF-SCS-MP2 Energies <==================
	-----------------------------------------------------------
	 SCS Same-Spin Scale       =       0.3333333333333333 [-]
	 SCS Opposite-Spin Scale   =       1.2000000000000000 [-]
	 SCS Same-Spin Energy      =      -0.1220101690780420 [Eh]
	 SCS Opposite-Spin Energy  =      -1.2248247538967936 [Eh]
	 SCS Correlation Energy    =      -1.3468349229748355 [Eh]
	 SCS Total Energy          =    -376.5934383823853295 [Eh]
	-----------------------------------------------------------

  Dipole Moment: [D]
     X:     0.0848      Y:    -0.0008      Z:     0.0001     Total:     0.0848

*** Psi4 exiting successfully. Buy a developer a beer!
