                               Psi4 1.3.2 release

  ==> Input File <==

--------------------------------------------------------------------------
#psi4
#
memory 32 gb

molecule  {
-2 1
  O       -1.3858800     1.1351540    -0.0007920
  O        1.3858810    -1.1351480    -0.0008800
  O       -1.3858790    -1.1351540     0.0008180
  O        1.3858810     1.1351480     0.0008280
  C       -0.7135716    -0.1780249     0.0001740
  C        0.8047110     0.0000000    -0.0000080
units angstrom
no_reorient  #important for SAPT in psi4, default
symmetry c1  #important for SAPT in psi4, default
}

set PROPERTIES_ORIGIN ["COM"]
properties('MP2/aug-cc-pvtz', properties = ['dipole'])
--------------------------------------------------------------------------

    Molecular point group: c1
  Charge       = -2
  Multiplicity = 1
  Basis Set: AUG-CC-PVTZ
    Blend: AUG-CC-PVTZ
  Basis Set: (AUG-CC-PVTZ AUX)
    Blend: AUG-CC-PVTZ-JKFIT

    Orbital Energies [Eh]
    ---------------------

    Doubly Occupied:

       1A    -20.181176     2A    -20.151358     3A    -20.150350
       4A    -20.103642     5A    -10.992551     6A    -10.986639
       7A     -1.062013     8A     -1.008105     9A     -0.910524
      10A     -0.814684    11A     -0.503429    12A     -0.336781
      13A     -0.299820    14A     -0.257058    15A     -0.234339
      16A     -0.216833    17A     -0.173725    18A     -0.117839
      19A     -0.070236    20A     -0.046355    21A     -0.019428
      22A     -0.009990    23A     -0.006027

  @DF-RHF Final Energy:  -375.19677153308214

   => Energetics <=

    Nuclear Repulsion Energy =            206.2649587800604252
    One-Electron Energy =                -945.6176516252951387
    Two-Electron Energy =                 364.1559213121526000
    Total Energy =                       -375.1967715330821420
  Basis Set: (AUG-CC-PVTZ AUX)
    Blend: AUG-CC-PVTZ-RI
    Molecular point group: c1

    Geometry (in Angstrom), charge = -2, multiplicity = 1:

       Center              X                  Y                   Z               Mass
    ------------   -----------------  -----------------  -----------------  -----------------
         O           -1.398311518872     1.159435735539    -0.000809914734    15.994914619570
         O            1.373449481128    -1.110866264461    -0.000897914734    15.994914619570
         O           -1.398310518872    -1.110872264461     0.000800085266    15.994914619570
         O            1.373449481128     1.159429735539     0.000810085266    15.994914619570
         C           -0.726003118872    -0.153743164461     0.000156085266    12.000000000000
         C            0.792279481128     0.024281735539    -0.000025914734    12.000000000000

  Basis Set: AUG-CC-PVTZ
    Blend: AUG-CC-PVTZ
  Basis Set: (AUG-CC-PVTZ AUX)
    Blend: AUG-CC-PVTZ-JKFIT
	 Reference Energy          =    -375.1967715330821420 [Eh]
	 Singles Energy            =      -0.0000000000000000 [Eh]
	 Same-Spin Energy          =      -0.3682978185205664 [Eh]
	 Opposite-Spin Energy      =      -1.0264417612638645 [Eh]
	 Correlation Energy        =      -1.3947395797844311 [Eh]
	 Total Energy              =    -376.5915111128665558 [Eh]

	 ================> DF-SCS-MP2 Energies <==================
	-----------------------------------------------------------
	 SCS Same-Spin Scale       =       0.3333333333333333 [-]
	 SCS Opposite-Spin Scale   =       1.2000000000000000 [-]
	 SCS Same-Spin Energy      =      -0.1227659395068555 [Eh]
	 SCS Opposite-Spin Energy  =      -1.2317301135166374 [Eh]
	 SCS Correlation Energy    =      -1.3544960530234929 [Eh]
	 SCS Total Energy          =    -376.5512675861056096 [Eh]
	-----------------------------------------------------------

  Dipole Moment: [D]
     X:     0.7001      Y:    -2.0302      Z:     0.0021     Total:     2.1476

*** Psi4 exiting successfully. Buy a developer a beer!
