                               Psi4 1.4a3.dev225

  ==> Input File <==

--------------------------------------------------------------------------
#psi4
#
memory 32 gb

molecule  {
-2 1
  O       -0.7545120     0.8512310     1.3408040
  O       -0.7545120    -0.8512310    -1.3408040
  O        0.7545120    -0.8512310     1.3408040
  O        0.7545120     0.8512310    -1.3408040
  C        0.0000000     0.0000000     0.7673510
  C        0.0000000     0.0000000    -0.8173510
units angstrom
no_reorient  #important for SAPT in psi4, default
symmetry c1  #important for SAPT in psi4, default
}

set PROPERTIES_ORIGIN ["COM"]
properties('MP2/aug-cc-pvtz', properties = ['dipole'])
--------------------------------------------------------------------------

    Molecular point group: c1
  Charge       = -2
  Multiplicity = 1
  Basis Set: AUG-CC-PVTZ
    Blend: AUG-CC-PVTZ
  Basis Set: (AUG-CC-PVTZ AUX)
    Blend: AUG-CC-PVTZ-JKFIT

    Orbital Energies [Eh]
    ---------------------

    Doubly Occupied:

       1A    -20.148193     2A    -20.148161     3A    -20.142652
       4A    -20.142620     5A    -10.979510     6A    -10.976752
       7A     -1.029240     8A     -0.991293     9A     -0.924251
      10A     -0.903146    11A     -0.469286    12A     -0.324352
      13A     -0.284607    14A     -0.257262    15A     -0.246639
      16A     -0.195660    17A     -0.184576    18A     -0.137053
      19A     -0.067905    20A     -0.058473    21A     -0.056000
      22A     -0.039132    23A      0.004088

  @DF-RHF Final Energy:  -375.26080091136186

   => Energetics <=

    Nuclear Repulsion Energy =            207.6139894661655205
    One-Electron Energy =                -948.3442357613679405
    Two-Electron Energy =                 365.4694453838405366
    Total Energy =                       -375.2608009113618550
  Basis Set: (AUG-CC-PVTZ AUX)
    Blend: AUG-CC-PVTZ-RI
    Molecular point group: c1

    Geometry (in Angstrom), charge = -2, multiplicity = 1:

       Center              X                  Y                   Z               Mass
    ------------   -----------------  -----------------  -----------------  -----------------
         O           -0.754512000000     0.851231000000     1.347623758230    15.994914619570
         O           -0.754512000000    -0.851231000000    -1.333984241770    15.994914619570
         O            0.754512000000    -0.851231000000     1.347623758230    15.994914619570
         O            0.754512000000     0.851231000000    -1.333984241770    15.994914619570
         C           -0.000000000000     0.000000000000     0.774170758230    12.000000000000
         C           -0.000000000000     0.000000000000    -0.810531241770    12.000000000000

  Basis Set: AUG-CC-PVTZ
    Blend: AUG-CC-PVTZ
  Basis Set: (AUG-CC-PVTZ AUX)
    Blend: AUG-CC-PVTZ-JKFIT
	 Reference Energy          =    -375.2608009113618550 [Eh]
	 Singles Energy            =      -0.0000000000000000 [Eh]
	 Same-Spin Energy          =      -0.3640913098054536 [Eh]
	 Opposite-Spin Energy      =      -1.0161497817409784 [Eh]
	 Correlation Energy        =      -1.3802410915464320 [Eh]
	 Total Energy              =    -376.6410420029083070 [Eh]

	 ================> DF-SCS-MP2 Energies <==================
	-----------------------------------------------------------
	 SCS Same-Spin Scale       =       0.3333333333333333 [-]
	 SCS Opposite-Spin Scale   =       1.2000000000000000 [-]
	 SCS Same-Spin Energy      =      -0.1213637699351512 [Eh]
	 SCS Opposite-Spin Energy  =      -1.2193797380891740 [Eh]
	 SCS Correlation Energy    =      -1.3407435080243251 [Eh]
	 SCS Total Energy          =    -376.6015444193861867 [Eh]
	-----------------------------------------------------------

  Dipole Moment: [D]
     X:    -0.0000      Y:    -0.0000      Z:    -0.2955     Total:     0.2955

*** Psi4 exiting successfully. Buy a developer a beer!
