                               Psi4 1.4a3.dev225

  ==> Input File <==

--------------------------------------------------------------------------
#psi4
#
memory 32 gb

molecule  {
0 1
  F        2.2868760     0.0000000    -0.0001800
  C        0.9080430     0.0000000    -0.0000724
  C        0.2598710     1.2183910    -0.0001390
  C        0.2598710    -1.2183910     0.0000940
  C       -1.1363420     1.2092690    -0.0000240
  C       -1.1363420    -1.2092690     0.0002070
  C       -1.8359950     0.0000000     0.0001450
  H        0.8295710     2.1426150    -0.0002710
  H        0.8295700    -2.1426150     0.0001400
  H       -1.6765610     2.1524830    -0.0000740
  H       -1.6765620    -2.1524830     0.0003390
  H       -2.9225380     0.0000000     0.0002340
units angstrom
no_reorient  #important for SAPT in psi4, default
symmetry c1  #important for SAPT in psi4, default
}

set PROPERTIES_ORIGIN ["COM"]
properties('MP2/aug-cc-pvtz', properties = ['dipole'])
--------------------------------------------------------------------------

    Molecular point group: c1
  Charge       = 0
  Multiplicity = 1
  Basis Set: AUG-CC-PVTZ
    Blend: AUG-CC-PVTZ
  Basis Set: (AUG-CC-PVTZ AUX)
    Blend: AUG-CC-PVTZ-JKFIT

    Orbital Energies [Eh]
    ---------------------

    Doubly Occupied:

       1A    -26.301788     2A    -11.330336     3A    -11.254631
       4A    -11.254571     5A    -11.247976     6A    -11.247959
       7A    -11.244826     8A     -1.608742     9A     -1.167422
      10A     -1.035138    11A     -1.024183    12A     -0.856208
      13A     -0.838506    14A     -0.739407    15A     -0.693477
      16A     -0.685132    17A     -0.681629    18A     -0.624026
      19A     -0.609689    20A     -0.594893    21A     -0.531929
      22A     -0.512560    23A     -0.512135    24A     -0.353856
      25A     -0.344406

  @DF-RHF Final Energy:  -329.67016499379747

   => Energetics <=

    Nuclear Repulsion Energy =            268.7481016156457372
    One-Electron Energy =                -982.2456816194144267
    Two-Electron Energy =                 383.8274150099712188
    Total Energy =                       -329.6701649937974707
  Basis Set: (AUG-CC-PVTZ AUX)
    Blend: AUG-CC-PVTZ-RI
    Molecular point group: c1

    Geometry (in Angstrom), charge = 0, multiplicity = 1:

       Center              X                  Y                   Z               Mass
    ------------   -----------------  -----------------  -----------------  -----------------
         F            2.217906921672     0.000000000000    -0.000174568447    18.998403162730
         C            0.839073921672     0.000000000000    -0.000066968447    12.000000000000
         C            0.190901921672     1.218391000000    -0.000133568447    12.000000000000
         C            0.190901921672    -1.218391000000     0.000099431553    12.000000000000
         C           -1.205311078328     1.209269000000    -0.000018568447    12.000000000000
         C           -1.205311078328    -1.209269000000     0.000212431553    12.000000000000
         C           -1.904964078328     0.000000000000     0.000150431553    12.000000000000
         H            0.760601921672     2.142615000000    -0.000265568447     1.007825032230
         H            0.760600921672    -2.142615000000     0.000145431553     1.007825032230
         H           -1.745530078328     2.152483000000    -0.000068568447     1.007825032230
         H           -1.745531078328    -2.152483000000     0.000344431553     1.007825032230
         H           -2.991507078328     0.000000000000     0.000239431553     1.007825032230

  Basis Set: AUG-CC-PVTZ
    Blend: AUG-CC-PVTZ
  Basis Set: (AUG-CC-PVTZ AUX)
    Blend: AUG-CC-PVTZ-JKFIT
	 Reference Energy          =    -329.6701649937974707 [Eh]
	 Singles Energy            =      -0.0000000000000000 [Eh]
	 Same-Spin Energy          =      -0.3285334480203735 [Eh]
	 Opposite-Spin Energy      =      -1.0080679841413156 [Eh]
	 Correlation Energy        =      -1.3366014321616890 [Eh]
	 Total Energy              =    -331.0067664259591425 [Eh]

	 ================> DF-SCS-MP2 Energies <==================
	-----------------------------------------------------------
	 SCS Same-Spin Scale       =       0.3333333333333333 [-]
	 SCS Opposite-Spin Scale   =       1.2000000000000000 [-]
	 SCS Same-Spin Energy      =      -0.1095111493401245 [Eh]
	 SCS Opposite-Spin Energy  =      -1.2096815809695787 [Eh]
	 SCS Correlation Energy    =      -1.3191927303097031 [Eh]
	 SCS Total Energy          =    -330.9893577241071512 [Eh]
	-----------------------------------------------------------

  Dipole Moment: [D]
     X:    -1.7118      Y:     0.0000      Z:     0.0001     Total:     1.7118

*** Psi4 exiting successfully. Buy a developer a beer!
