                               Psi4 1.3.2 release

  ==> Input File <==

--------------------------------------------------------------------------
#psi4
#
memory 32 gb

molecule  {
0 1
  F        2.2834855     0.0947471    -0.0001854
  C        0.9285390     0.0000020    -0.0000730
  C        0.2598100     1.2182400    -0.0001460
  C        0.2598100    -1.2182380     0.0000900
  C       -1.1363580     1.2092180    -0.0000200
  C       -1.1363570    -1.2092200     0.0002110
  C       -1.8361040    -0.0000020     0.0001410
  H        0.8291340     2.1428170    -0.0002660
  H        0.8291450    -2.1428090     0.0001370
  H       -1.6763770     2.1526090    -0.0000810
  H       -1.6763720    -2.1526140     0.0003380
  H       -2.9227180     0.0000020     0.0002420
units angstrom
no_reorient  #important for SAPT in psi4, default
symmetry c1  #important for SAPT in psi4, default
}

set PROPERTIES_ORIGIN ["COM"]
properties('MP2/aug-cc-pvtz', properties = ['dipole'])
--------------------------------------------------------------------------

    Molecular point group: c1
  Charge       = 0
  Multiplicity = 1
  Basis Set: AUG-CC-PVTZ
    Blend: AUG-CC-PVTZ
  Basis Set: (AUG-CC-PVTZ AUX)
    Blend: AUG-CC-PVTZ-JKFIT

    Orbital Energies [Eh]
    ---------------------

    Doubly Occupied:

       1A    -26.307874     2A    -11.331875     3A    -11.254557
       4A    -11.252838     5A    -11.249851     6A    -11.245577
       7A    -11.243882     8A     -1.621118     9A     -1.164087
      10A     -1.032849    11A     -1.022655    12A     -0.855260
      13A     -0.840771    14A     -0.742861    15A     -0.698469
      16A     -0.689971    17A     -0.686934    18A     -0.623969
      19A     -0.606295    20A     -0.595467    21A     -0.531963
      22A     -0.510073    23A     -0.508427    24A     -0.352733
      25A     -0.341564

  @DF-RHF Final Energy:  -329.66986106582709

   => Energetics <=

    Nuclear Repulsion Energy =            268.7348466116255281
    One-Electron Energy =                -982.1855726649184817
    Two-Electron Energy =                 383.7808649874659181
    Total Energy =                       -329.6698610658270923
  Basis Set: (AUG-CC-PVTZ AUX)
    Blend: AUG-CC-PVTZ-RI
    Molecular point group: c1

    Geometry (in Angstrom), charge = 0, multiplicity = 1:

       Center              X                  Y                   Z               Mass
    ------------   -----------------  -----------------  -----------------  -----------------
         F            2.212665887927     0.076003920382    -0.000177971563    18.998403162730
         C            0.857719387927    -0.018741179618    -0.000065571563    12.000000000000
         C            0.188990387927     1.199496820382    -0.000138571563    12.000000000000
         C            0.188990387927    -1.236981179618     0.000097428437    12.000000000000
         C           -1.207177612073     1.190474820382    -0.000012571563    12.000000000000
         C           -1.207176612073    -1.227963179618     0.000218428437    12.000000000000
         C           -1.906923612073    -0.018745179618     0.000148428437    12.000000000000
         H            0.758314387927     2.124073820382    -0.000258571563     1.007825032230
         H            0.758325387927    -2.161552179618     0.000144428437     1.007825032230
         H           -1.747196612073     2.133865820382    -0.000073571563     1.007825032230
         H           -1.747191612073    -2.171357179618     0.000345428437     1.007825032230
         H           -2.993537612073    -0.018741179618     0.000249428437     1.007825032230

  Basis Set: AUG-CC-PVTZ
    Blend: AUG-CC-PVTZ
  Basis Set: (AUG-CC-PVTZ AUX)
    Blend: AUG-CC-PVTZ-JKFIT
	 Reference Energy          =    -329.6698610658270923 [Eh]
	 Singles Energy            =      -0.0000000000000000 [Eh]
	 Same-Spin Energy          =      -0.3284864852829175 [Eh]
	 Opposite-Spin Energy      =      -1.0078180373680241 [Eh]
	 Correlation Energy        =      -1.3363045226509416 [Eh]
	 Total Energy              =    -331.0061655884780407 [Eh]

	 ================> DF-SCS-MP2 Energies <==================
	-----------------------------------------------------------
	 SCS Same-Spin Scale       =       0.3333333333333333 [-]
	 SCS Opposite-Spin Scale   =       1.2000000000000000 [-]
	 SCS Same-Spin Energy      =      -0.1094954950943058 [Eh]
	 SCS Opposite-Spin Energy  =      -1.2093816448416288 [Eh]
	 SCS Correlation Energy    =      -1.3188771399359347 [Eh]
	 SCS Total Energy          =    -330.9887382057630134 [Eh]
	-----------------------------------------------------------

  Dipole Moment: [D]
     X:    -1.5695      Y:    -0.0880      Z:     0.0001     Total:     1.5720

*** Psi4 exiting successfully. Buy a developer a beer!
