                               Psi4 1.3.2 release

  ==> Input File <==

--------------------------------------------------------------------------
#psi4
#
memory 32 gb

molecule  {
0 1
  F        2.2867940     0.0000000    -0.0001760
  C        0.9285390     0.0000020    -0.0000730
  C        0.2598100     1.2182400    -0.0001460
  C        0.2598100    -1.2182380     0.0000900
  C       -1.1363580     1.2092180    -0.0000200
  C       -1.1363570    -1.2092200     0.0002110
  C       -1.8361040    -0.0000020     0.0001410
  H        0.8291340     2.1428170    -0.0002660
  H        0.8291450    -2.1428090     0.0001370
  H       -1.6763770     2.1526090    -0.0000810
  H       -1.6763720    -2.1526140     0.0003380
  H       -2.9227180     0.0000020     0.0002420
units angstrom
no_reorient  #important for SAPT in psi4, default
symmetry c1  #important for SAPT in psi4, default
}

set PROPERTIES_ORIGIN ["COM"]
properties('MP2/aug-cc-pvtz', properties = ['dipole'])
--------------------------------------------------------------------------

    Molecular point group: c1
  Charge       = 0
  Multiplicity = 1
  Basis Set: AUG-CC-PVTZ
    Blend: AUG-CC-PVTZ
  Basis Set: (AUG-CC-PVTZ AUX)
    Blend: AUG-CC-PVTZ-JKFIT

    Orbital Energies [Eh]
    ---------------------

    Doubly Occupied:

       1A    -26.307977     2A    -11.331888     3A    -11.253816
       4A    -11.253758     5A    -11.247752     6A    -11.247736
       7A    -11.243920     8A     -1.620998     9A     -1.164147
      10A     -1.032892    11A     -1.022696    12A     -0.855054
      13A     -0.840896    14A     -0.743001    15A     -0.698287
      16A     -0.689896    17A     -0.687037    18A     -0.624036
      19A     -0.606375    20A     -0.595827    21A     -0.532074
      22A     -0.510137    23A     -0.508674    24A     -0.352740
      25A     -0.341677

  @DF-RHF Final Energy:  -329.67103353994383

   => Energetics <=

    Nuclear Repulsion Energy =            268.6892286906371510
    One-Electron Energy =                -982.0939400959562136
    Two-Electron Energy =                 383.7336778653752276
    Total Energy =                       -329.6710335399438350
  Basis Set: (AUG-CC-PVTZ AUX)
    Blend: AUG-CC-PVTZ-RI
    Molecular point group: c1

    Geometry (in Angstrom), charge = 0, multiplicity = 1:

       Center              X                  Y                   Z               Mass
    ------------   -----------------  -----------------  -----------------  -----------------
         F            2.215319891524    -0.000000052470    -0.000170431097    18.998403162730
         C            0.857064891524     0.000001947530    -0.000067431097    12.000000000000
         C            0.188335891524     1.218239947530    -0.000140431097    12.000000000000
         C            0.188335891524    -1.218238052470     0.000095568903    12.000000000000
         C           -1.207832108476     1.209217947530    -0.000014431097    12.000000000000
         C           -1.207831108476    -1.209220052470     0.000216568903    12.000000000000
         C           -1.907578108476    -0.000002052470     0.000146568903    12.000000000000
         H            0.757659891524     2.142816947530    -0.000260431097     1.007825032230
         H            0.757670891524    -2.142809052470     0.000142568903     1.007825032230
         H           -1.747851108476     2.152608947530    -0.000075431097     1.007825032230
         H           -1.747846108476    -2.152614052470     0.000343568903     1.007825032230
         H           -2.994192108476     0.000001947530     0.000247568903     1.007825032230

  Basis Set: AUG-CC-PVTZ
    Blend: AUG-CC-PVTZ
  Basis Set: (AUG-CC-PVTZ AUX)
    Blend: AUG-CC-PVTZ-JKFIT
	 Reference Energy          =    -329.6710335399438350 [Eh]
	 Singles Energy            =      -0.0000000000000000 [Eh]
	 Same-Spin Energy          =      -0.3284483002089821 [Eh]
	 Opposite-Spin Energy      =      -1.0077239451029323 [Eh]
	 Correlation Energy        =      -1.3361722453119143 [Eh]
	 Total Energy              =    -331.0072057852557350 [Eh]

	 ================> DF-SCS-MP2 Energies <==================
	-----------------------------------------------------------
	 SCS Same-Spin Scale       =       0.3333333333333333 [-]
	 SCS Opposite-Spin Scale   =       1.2000000000000000 [-]
	 SCS Same-Spin Energy      =      -0.1094827667363274 [Eh]
	 SCS Opposite-Spin Energy  =      -1.2092687341235187 [Eh]
	 SCS Correlation Energy    =      -1.3187515008598460 [Eh]
	 SCS Total Energy          =    -330.9897850408036675 [Eh]
	-----------------------------------------------------------

  Dipole Moment: [D]
     X:    -1.5762      Y:     0.0000      Z:     0.0001     Total:     1.5762

*** Psi4 exiting successfully. Buy a developer a beer!
