                               Psi4 1.3.2 release

  ==> Input File <==

--------------------------------------------------------------------------
#psi4
#
memory 32 gb

molecule  {
0 1
  F        2.2859667     0.0474024    -0.0001808
  C        0.9285390     0.0000020    -0.0000730
  C        0.2598100     1.2182400    -0.0001460
  C        0.2598100    -1.2182380     0.0000900
  C       -1.1363580     1.2092180    -0.0000200
  C       -1.1363570    -1.2092200     0.0002110
  C       -1.8361040    -0.0000020     0.0001410
  H        0.8291340     2.1428170    -0.0002660
  H        0.8291450    -2.1428090     0.0001370
  H       -1.6763770     2.1526090    -0.0000810
  H       -1.6763720    -2.1526140     0.0003380
  H       -2.9227180     0.0000020     0.0002420
units angstrom
no_reorient  #important for SAPT in psi4, default
symmetry c1  #important for SAPT in psi4, default
}

set PROPERTIES_ORIGIN ["COM"]
properties('MP2/aug-cc-pvtz', properties = ['dipole'])
--------------------------------------------------------------------------

    Molecular point group: c1
  Charge       = 0
  Multiplicity = 1
  Basis Set: AUG-CC-PVTZ
    Blend: AUG-CC-PVTZ
  Basis Set: (AUG-CC-PVTZ AUX)
    Blend: AUG-CC-PVTZ-JKFIT

    Orbital Energies [Eh]
    ---------------------

    Doubly Occupied:

       1A    -26.307952     2A    -11.331885     3A    -11.254194
       4A    -11.253335     5A    -11.248806     6A    -11.246667
       7A    -11.243910     8A     -1.621028     9A     -1.164132
      10A     -1.032881    11A     -1.022686    12A     -0.855106
      13A     -0.840864    14A     -0.742966    15A     -0.698332
      16A     -0.689915    17A     -0.687011    18A     -0.624020
      19A     -0.606355    20A     -0.595737    21A     -0.532046
      22A     -0.510121    23A     -0.508613    24A     -0.352738
      25A     -0.341649

  @DF-RHF Final Energy:  -329.67074102303047

   => Energetics <=

    Nuclear Repulsion Energy =            268.7006235651692236
    One-Electron Energy =                -982.1168308419697723
    Two-Electron Energy =                 383.7454662537701324
    Total Energy =                       -329.6707410230304731
  Basis Set: (AUG-CC-PVTZ AUX)
    Blend: AUG-CC-PVTZ-RI
    Molecular point group: c1

    Geometry (in Angstrom), charge = 0, multiplicity = 1:

       Center              X                  Y                   Z               Mass
    ------------   -----------------  -----------------  -----------------  -----------------
         F            2.214656250244     0.038025076771    -0.000174281548    18.998403162730
         C            0.857228550244    -0.009375323229    -0.000066481548    12.000000000000
         C            0.188499550244     1.208862676771    -0.000139481548    12.000000000000
         C            0.188499550244    -1.227615323229     0.000096518452    12.000000000000
         C           -1.207668449756     1.199840676771    -0.000013481548    12.000000000000
         C           -1.207667449756    -1.218597323229     0.000217518452    12.000000000000
         C           -1.907414449756    -0.009379323229     0.000147518452    12.000000000000
         H            0.757823550244     2.133439676771    -0.000259481548     1.007825032230
         H            0.757834550244    -2.152186323229     0.000143518452     1.007825032230
         H           -1.747687449756     2.143231676771    -0.000074481548     1.007825032230
         H           -1.747682449756    -2.161991323229     0.000344518452     1.007825032230
         H           -2.994028449756    -0.009375323229     0.000248518452     1.007825032230

  Basis Set: AUG-CC-PVTZ
    Blend: AUG-CC-PVTZ
  Basis Set: (AUG-CC-PVTZ AUX)
    Blend: AUG-CC-PVTZ-JKFIT
	 Reference Energy          =    -329.6707410230304731 [Eh]
	 Singles Energy            =      -0.0000000000000000 [Eh]
	 Same-Spin Energy          =      -0.3284578270525806 [Eh]
	 Opposite-Spin Energy      =      -1.0077475924417305 [Eh]
	 Correlation Energy        =      -1.3362054194943112 [Eh]
	 Total Energy              =    -331.0069464425247929 [Eh]

	 ================> DF-SCS-MP2 Energies <==================
	-----------------------------------------------------------
	 SCS Same-Spin Scale       =       0.3333333333333333 [-]
	 SCS Opposite-Spin Scale   =       1.2000000000000000 [-]
	 SCS Same-Spin Energy      =      -0.1094859423508602 [Eh]
	 SCS Opposite-Spin Energy  =      -1.2092971109300765 [Eh]
	 SCS Correlation Energy    =      -1.3187830532809368 [Eh]
	 SCS Total Energy          =    -330.9895240763113975 [Eh]
	-----------------------------------------------------------

  Dipole Moment: [D]
     X:    -1.5745      Y:    -0.0441      Z:     0.0001     Total:     1.5751

*** Psi4 exiting successfully. Buy a developer a beer!
