                               Psi4 1.3.2 release

  ==> Input File <==

--------------------------------------------------------------------------
#psi4
#
memory 32 gb

molecule  {
0 1
  F        2.2867940     0.0000000    -0.0001760
  C        1.0285390     0.0000019    -0.0000806
  C        0.2598100     1.2182400    -0.0001460
  C        0.2598100    -1.2182380     0.0000900
  C       -1.1363580     1.2092180    -0.0000200
  C       -1.1363570    -1.2092200     0.0002110
  C       -1.8361040    -0.0000020     0.0001410
  H        0.8291340     2.1428170    -0.0002660
  H        0.8291450    -2.1428090     0.0001370
  H       -1.6763770     2.1526090    -0.0000810
  H       -1.6763720    -2.1526140     0.0003380
  H       -2.9227180     0.0000020     0.0002420
units angstrom
no_reorient  #important for SAPT in psi4, default
symmetry c1  #important for SAPT in psi4, default
}

set PROPERTIES_ORIGIN ["COM"]
properties('MP2/aug-cc-pvtz', properties = ['dipole'])
--------------------------------------------------------------------------

    Molecular point group: c1
  Charge       = 0
  Multiplicity = 1
  Basis Set: AUG-CC-PVTZ
    Blend: AUG-CC-PVTZ
  Basis Set: (AUG-CC-PVTZ AUX)
    Blend: AUG-CC-PVTZ-JKFIT

    Orbital Energies [Eh]
    ---------------------

    Doubly Occupied:

       1A    -26.339357     2A    -11.342531     3A    -11.250173
       4A    -11.250128     5A    -11.246561     6A    -11.246553
       7A    -11.238671     8A     -1.689278     9A     -1.149079
      10A     -1.023033    11A     -1.015294    12A     -0.862149
      13A     -0.852728    14A     -0.761998    15A     -0.734997
      16A     -0.726707    17A     -0.689478    18A     -0.621707
      19A     -0.597325    20A     -0.590717    21A     -0.531126
      22A     -0.498687    23A     -0.488423    24A     -0.347581
      25A     -0.326947

  @DF-RHF Final Energy:  -329.65926837813799

   => Energetics <=

    Nuclear Repulsion Energy =            268.5240227568818909
    One-Electron Energy =                -981.5241281649185794
    Two-Electron Energy =                 383.3408370298986938
    Total Energy =                       -329.6592683781379947
  Basis Set: (AUG-CC-PVTZ AUX)
    Blend: AUG-CC-PVTZ-RI
    Molecular point group: c1

    Geometry (in Angstrom), charge = 0, multiplicity = 1:

       Center              X                  Y                   Z               Mass
    ------------   -----------------  -----------------  -----------------  -----------------
         F            2.202824776115    -0.000000039975    -0.000169481468    18.998403162730
         C            0.944569776115     0.000001860025    -0.000074081468    12.000000000000
         C            0.175840776115     1.218239960025    -0.000139481468    12.000000000000
         C            0.175840776115    -1.218238039975     0.000096518532    12.000000000000
         C           -1.220327223885     1.209217960025    -0.000013481468    12.000000000000
         C           -1.220326223885    -1.209220039975     0.000217518532    12.000000000000
         C           -1.920073223885    -0.000002039975     0.000147518532    12.000000000000
         H            0.745164776115     2.142816960025    -0.000259481468     1.007825032230
         H            0.745175776115    -2.142809039975     0.000143518532     1.007825032230
         H           -1.760346223885     2.152608960025    -0.000074481468     1.007825032230
         H           -1.760341223885    -2.152614039975     0.000344518532     1.007825032230
         H           -3.006687223885     0.000001960025     0.000248518532     1.007825032230

  Basis Set: AUG-CC-PVTZ
    Blend: AUG-CC-PVTZ
  Basis Set: (AUG-CC-PVTZ AUX)
    Blend: AUG-CC-PVTZ-JKFIT
	 Reference Energy          =    -329.6592683781379947 [Eh]
	 Singles Energy            =      -0.0000000000000000 [Eh]
	 Same-Spin Energy          =      -0.3284314475685605 [Eh]
	 Opposite-Spin Energy      =      -1.0068010658205948 [Eh]
	 Correlation Energy        =      -1.3352325133891552 [Eh]
	 Total Energy              =    -330.9945008915271387 [Eh]

	 ================> DF-SCS-MP2 Energies <==================
	-----------------------------------------------------------
	 SCS Same-Spin Scale       =       0.3333333333333333 [-]
	 SCS Opposite-Spin Scale   =       1.2000000000000000 [-]
	 SCS Same-Spin Energy      =      -0.1094771491895201 [Eh]
	 SCS Opposite-Spin Energy  =      -1.2081612789847138 [Eh]
	 SCS Correlation Energy    =      -1.3176384281742339 [Eh]
	 SCS Total Energy          =    -330.9769068063122290 [Eh]
	-----------------------------------------------------------

  Dipole Moment: [D]
     X:    -0.8684      Y:     0.0000      Z:     0.0001     Total:     0.8684

*** Psi4 exiting successfully. Buy a developer a beer!
