                               Psi4 1.3.2 release

  ==> Input File <==

--------------------------------------------------------------------------
#psi4
#
memory 32 gb

molecule  {
0 1
  F        2.2867940     0.0000000    -0.0001760
  C        0.8285390     0.0000021    -0.0000654
  C        0.2598100     1.2182400    -0.0001460
  C        0.2598100    -1.2182380     0.0000900
  C       -1.1363580     1.2092180    -0.0000200
  C       -1.1363570    -1.2092200     0.0002110
  C       -1.8361040    -0.0000020     0.0001410
  H        0.8291340     2.1428170    -0.0002660
  H        0.8291450    -2.1428090     0.0001370
  H       -1.6763770     2.1526090    -0.0000810
  H       -1.6763720    -2.1526140     0.0003380
  H       -2.9227180     0.0000020     0.0002420
units angstrom
no_reorient  #important for SAPT in psi4, default
symmetry c1  #important for SAPT in psi4, default
}

set PROPERTIES_ORIGIN ["COM"]
properties('MP2/aug-cc-pvtz', properties = ['dipole'])
--------------------------------------------------------------------------

    Molecular point group: c1
  Charge       = 0
  Multiplicity = 1
  Basis Set: AUG-CC-PVTZ
    Blend: AUG-CC-PVTZ
  Basis Set: (AUG-CC-PVTZ AUX)
    Blend: AUG-CC-PVTZ-JKFIT

    Orbital Energies [Eh]
    ---------------------

    Doubly Occupied:

       1A    -26.277752     2A    -11.326096     3A    -11.258047
       4A    -11.257987     5A    -11.248930     6A    -11.248908
       7A    -11.248100     8A     -1.565652     9A     -1.181004
      10A     -1.044806    11A     -1.029635    12A     -0.861575
      13A     -0.833347    14A     -0.731302    15A     -0.680047
      16A     -0.673188    17A     -0.652065    18A     -0.621694
      19A     -0.621183    20A     -0.588165    21A     -0.529697
      22A     -0.523619    23A     -0.522180    24A     -0.358500
      25A     -0.354222

  @DF-RHF Final Energy:  -329.65826096799009

   => Energetics <=

    Nuclear Repulsion Energy =            269.0884155771693145
    One-Electron Energy =                -983.0179534736845426
    Two-Electron Energy =                 384.2712769285251966
    Total Energy =                       -329.6582609679900884
  Basis Set: (AUG-CC-PVTZ AUX)
    Blend: AUG-CC-PVTZ-RI
    Molecular point group: c1

    Geometry (in Angstrom), charge = 0, multiplicity = 1:

       Center              X                  Y                   Z               Mass
    ------------   -----------------  -----------------  -----------------  -----------------
         F            2.227815006933    -0.000000064965    -0.000171380726    18.998403162730
         C            0.769560006933     0.000002035035    -0.000060780726    12.000000000000
         C            0.200831006933     1.218239935035    -0.000141380726    12.000000000000
         C            0.200831006933    -1.218238064965     0.000094619274    12.000000000000
         C           -1.195336993067     1.209217935035    -0.000015380726    12.000000000000
         C           -1.195335993067    -1.209220064965     0.000215619274    12.000000000000
         C           -1.895082993067    -0.000002064965     0.000145619274    12.000000000000
         H            0.770155006933     2.142816935035    -0.000261380726     1.007825032230
         H            0.770166006933    -2.142809064965     0.000141619274     1.007825032230
         H           -1.735355993067     2.152608935035    -0.000076380726     1.007825032230
         H           -1.735350993067    -2.152614064965     0.000342619274     1.007825032230
         H           -2.981696993067     0.000001935035     0.000246619274     1.007825032230

  Basis Set: AUG-CC-PVTZ
    Blend: AUG-CC-PVTZ
  Basis Set: (AUG-CC-PVTZ AUX)
    Blend: AUG-CC-PVTZ-JKFIT
	 Reference Energy          =    -329.6582609679900884 [Eh]
	 Singles Energy            =      -0.0000000000000000 [Eh]
	 Same-Spin Energy          =      -0.3291278989654742 [Eh]
	 Opposite-Spin Energy      =      -1.0098395381231615 [Eh]
	 Correlation Energy        =      -1.3389674370886357 [Eh]
	 Total Energy              =    -330.9972284050787152 [Eh]

	 ================> DF-SCS-MP2 Energies <==================
	-----------------------------------------------------------
	 SCS Same-Spin Scale       =       0.3333333333333333 [-]
	 SCS Opposite-Spin Scale   =       1.2000000000000000 [-]
	 SCS Same-Spin Energy      =      -0.1097092996551581 [Eh]
	 SCS Opposite-Spin Energy  =      -1.2118074457477939 [Eh]
	 SCS Correlation Energy    =      -1.3215167454029519 [Eh]
	 SCS Total Energy          =    -330.9797777133930481 [Eh]
	-----------------------------------------------------------

  Dipole Moment: [D]
     X:    -2.2200      Y:     0.0000      Z:     0.0002     Total:     2.2200

*** Psi4 exiting successfully. Buy a developer a beer!
