                               Psi4 1.4a3.dev225

  ==> Input File <==

--------------------------------------------------------------------------
#psi4
#
memory 32 gb

molecule  {
0 1
  F        2.2868760     0.0000000    -0.0001800
  C        0.9780430     0.0000000    -0.0000779
  C        0.2598710     1.2183910    -0.0001390
  C        0.2598710    -1.2183910     0.0000940
  C       -1.1363420     1.2092690    -0.0000240
  C       -1.1363420    -1.2092690     0.0002070
  C       -1.8359950     0.0000000     0.0001450
  H        0.8295710     2.1426150    -0.0002710
  H        0.8295700    -2.1426150     0.0001400
  H       -1.6765610     2.1524830    -0.0000740
  H       -1.6765620    -2.1524830     0.0003390
  H       -2.9225380     0.0000000     0.0002340
units angstrom
no_reorient  #important for SAPT in psi4, default
symmetry c1  #important for SAPT in psi4, default
}

set PROPERTIES_ORIGIN ["COM"]
properties('MP2/aug-cc-pvtz', properties = ['dipole'])
--------------------------------------------------------------------------

    Molecular point group: c1
  Charge       = 0
  Multiplicity = 1
  Basis Set: AUG-CC-PVTZ
    Blend: AUG-CC-PVTZ
  Basis Set: (AUG-CC-PVTZ AUX)
    Blend: AUG-CC-PVTZ-JKFIT

    Orbital Energies [Eh]
    ---------------------

    Doubly Occupied:

       1A    -26.323125     2A    -11.336541     3A    -11.251980
       4A    -11.251927     5A    -11.247250     6A    -11.247238
       7A    -11.241501     8A     -1.652785     9A     -1.156456
      10A     -1.027804    11A     -1.018973    12A     -0.853089
      13A     -0.849127    14A     -0.752737    15A     -0.711478
      16A     -0.711052    17A     -0.689500    18A     -0.623310
      19A     -0.598470    20A     -0.597166    21A     -0.531973
      22A     -0.504355    23A     -0.499376    24A     -0.350139
      25A     -0.334659

  @DF-RHF Final Energy:  -329.66876842559111

   => Energetics <=

    Nuclear Repulsion Energy =            268.5673326957186760
    One-Electron Energy =                -981.7481814738755475
    Two-Electron Energy =                 383.5120803525657038
    Total Energy =                       -329.6687684255911108
  Basis Set: (AUG-CC-PVTZ AUX)
    Blend: AUG-CC-PVTZ-RI
    Molecular point group: c1

    Geometry (in Angstrom), charge = 0, multiplicity = 1:

       Center              X                  Y                   Z               Mass
    ------------   -----------------  -----------------  -----------------  -----------------
         F            2.209160340886     0.000000000000    -0.000173881215    18.998403162730
         C            0.900327340886     0.000000000000    -0.000071781215    12.000000000000
         C            0.182155340886     1.218391000000    -0.000132881215    12.000000000000
         C            0.182155340886    -1.218391000000     0.000100118785    12.000000000000
         C           -1.214057659114     1.209269000000    -0.000017881215    12.000000000000
         C           -1.214057659114    -1.209269000000     0.000213118785    12.000000000000
         C           -1.913710659114     0.000000000000     0.000151118785    12.000000000000
         H            0.751855340886     2.142615000000    -0.000264881215     1.007825032230
         H            0.751854340886    -2.142615000000     0.000146118785     1.007825032230
         H           -1.754276659114     2.152483000000    -0.000067881215     1.007825032230
         H           -1.754277659114    -2.152483000000     0.000345118785     1.007825032230
         H           -3.000253659114     0.000000000000     0.000240118785     1.007825032230

  Basis Set: AUG-CC-PVTZ
    Blend: AUG-CC-PVTZ
  Basis Set: (AUG-CC-PVTZ AUX)
    Blend: AUG-CC-PVTZ-JKFIT
	 Reference Energy          =    -329.6687684255911108 [Eh]
	 Singles Energy            =      -0.0000000000000000 [Eh]
	 Same-Spin Energy          =      -0.3283598569383220 [Eh]
	 Opposite-Spin Energy      =      -1.0071205795930920 [Eh]
	 Correlation Energy        =      -1.3354804365314141 [Eh]
	 Total Energy              =    -331.0042488621225516 [Eh]

	 ================> DF-SCS-MP2 Energies <==================
	-----------------------------------------------------------
	 SCS Same-Spin Scale       =       0.3333333333333333 [-]
	 SCS Opposite-Spin Scale   =       1.2000000000000000 [-]
	 SCS Same-Spin Energy      =      -0.1094532856461073 [Eh]
	 SCS Opposite-Spin Energy  =      -1.2085446955117103 [Eh]
	 SCS Correlation Energy    =      -1.3179979811578175 [Eh]
	 SCS Total Energy          =    -330.9867664067489272 [Eh]
	-----------------------------------------------------------

  Dipole Moment: [D]
     X:    -1.2374      Y:     0.0000      Z:     0.0001     Total:     1.2374

*** Psi4 exiting successfully. Buy a developer a beer!
