                               Psi4 1.3.2 release

  ==> Input File <==

--------------------------------------------------------------------------
#psi4
#
memory 32 gb

molecule  {
0 1
  F        2.2834852    -0.0947471    -0.0001661
  C        0.9285390     0.0000020    -0.0000730
  C        0.2598100     1.2182400    -0.0001460
  C        0.2598100    -1.2182380     0.0000900
  C       -1.1363580     1.2092180    -0.0000200
  C       -1.1363570    -1.2092200     0.0002110
  C       -1.8361040    -0.0000020     0.0001410
  H        0.8291340     2.1428170    -0.0002660
  H        0.8291450    -2.1428090     0.0001370
  H       -1.6763770     2.1526090    -0.0000810
  H       -1.6763720    -2.1526140     0.0003380
  H       -2.9227180     0.0000020     0.0002420
units angstrom
no_reorient  #important for SAPT in psi4, default
symmetry c1  #important for SAPT in psi4, default
}

set PROPERTIES_ORIGIN ["COM"]
properties('MP2/aug-cc-pvtz', properties = ['dipole'])
--------------------------------------------------------------------------

    Molecular point group: c1
  Charge       = 0
  Multiplicity = 1
  Basis Set: AUG-CC-PVTZ
    Blend: AUG-CC-PVTZ
  Basis Set: (AUG-CC-PVTZ AUX)
    Blend: AUG-CC-PVTZ-JKFIT

    Orbital Energies [Eh]
    ---------------------

    Doubly Occupied:

       1A    -26.307874     2A    -11.331875     3A    -11.254557
       4A    -11.252838     5A    -11.249851     6A    -11.245577
       7A    -11.243882     8A     -1.621118     9A     -1.164087
      10A     -1.032849    11A     -1.022655    12A     -0.855260
      13A     -0.840771    14A     -0.742861    15A     -0.698469
      16A     -0.689971    17A     -0.686934    18A     -0.623970
      19A     -0.606295    20A     -0.595467    21A     -0.531963
      22A     -0.510073    23A     -0.508427    24A     -0.352733
      25A     -0.341564

  @DF-RHF Final Energy:  -329.66986099233350

   => Energetics <=

    Nuclear Repulsion Energy =            268.7348532874441389
    One-Electron Energy =                -982.1855860034821717
    Two-Electron Energy =                 383.7808717237045357
    Total Energy =                       -329.6698609923334971
  Basis Set: (AUG-CC-PVTZ AUX)
    Blend: AUG-CC-PVTZ-RI
    Molecular point group: c1

    Geometry (in Angstrom), charge = 0, multiplicity = 1:

       Center              X                  Y                   Z               Mass
    ------------   -----------------  -----------------  -----------------  -----------------
         F            2.212665647274    -0.076004025323    -0.000162489542    18.998403162730
         C            0.857719447274     0.018745074677    -0.000069389542    12.000000000000
         C            0.188990447274     1.236983074677    -0.000142389542    12.000000000000
         C            0.188990447274    -1.199494925323     0.000093610458    12.000000000000
         C           -1.207177552726     1.227961074677    -0.000016389542    12.000000000000
         C           -1.207176552726    -1.190476925323     0.000214610458    12.000000000000
         C           -1.906923552726     0.018741074677     0.000144610458    12.000000000000
         H            0.758314447274     2.161560074677    -0.000262389542     1.007825032230
         H            0.758325447274    -2.124065925323     0.000140610458     1.007825032230
         H           -1.747196552726     2.171352074677    -0.000077389542     1.007825032230
         H           -1.747191552726    -2.133870925323     0.000341610458     1.007825032230
         H           -2.993537552726     0.018745074677     0.000245610458     1.007825032230

  Basis Set: AUG-CC-PVTZ
    Blend: AUG-CC-PVTZ
  Basis Set: (AUG-CC-PVTZ AUX)
    Blend: AUG-CC-PVTZ-JKFIT
	 Reference Energy          =    -329.6698609923334971 [Eh]
	 Singles Energy            =      -0.0000000000000000 [Eh]
	 Same-Spin Energy          =      -0.3284864884942275 [Eh]
	 Opposite-Spin Energy      =      -1.0078180425778456 [Eh]
	 Correlation Energy        =      -1.3363045310720731 [Eh]
	 Total Energy              =    -331.0061655234055706 [Eh]

	 ================> DF-SCS-MP2 Energies <==================
	-----------------------------------------------------------
	 SCS Same-Spin Scale       =       0.3333333333333333 [-]
	 SCS Opposite-Spin Scale   =       1.2000000000000000 [-]
	 SCS Same-Spin Energy      =      -0.1094954961647425 [Eh]
	 SCS Opposite-Spin Energy  =      -1.2093816510934146 [Eh]
	 SCS Correlation Energy    =      -1.3188771472581571 [Eh]
	 SCS Total Energy          =    -330.9887381395916464 [Eh]
	-----------------------------------------------------------

  Dipole Moment: [D]
     X:    -1.5695      Y:     0.0880      Z:     0.0001     Total:     1.5720

*** Psi4 exiting successfully. Buy a developer a beer!
