                               Psi4 1.3.2 release

  ==> Input File <==

--------------------------------------------------------------------------
#psi4
#
memory 32 gb

molecule  {
0 1
  F        2.2865872     0.0237048    -0.0001784
  C        0.9285390     0.0000020    -0.0000730
  C        0.2598100     1.2182400    -0.0001460
  C        0.2598100    -1.2182380     0.0000900
  C       -1.1363580     1.2092180    -0.0000200
  C       -1.1363570    -1.2092200     0.0002110
  C       -1.8361040    -0.0000020     0.0001410
  H        0.8291340     2.1428170    -0.0002660
  H        0.8291450    -2.1428090     0.0001370
  H       -1.6763770     2.1526090    -0.0000810
  H       -1.6763720    -2.1526140     0.0003380
  H       -2.9227180     0.0000020     0.0002420
units angstrom
no_reorient  #important for SAPT in psi4, default
symmetry c1  #important for SAPT in psi4, default
}

set PROPERTIES_ORIGIN ["COM"]
properties('MP2/aug-cc-pvtz', properties = ['dipole'])
--------------------------------------------------------------------------

    Molecular point group: c1
  Charge       = 0
  Multiplicity = 1
  Basis Set: AUG-CC-PVTZ
    Blend: AUG-CC-PVTZ
  Basis Set: (AUG-CC-PVTZ AUX)
    Blend: AUG-CC-PVTZ-JKFIT

    Orbital Energies [Eh]
    ---------------------

    Doubly Occupied:

       1A    -26.307971     2A    -11.331887     3A    -11.253998
       4A    -11.253565     5A    -11.248277     6A    -11.247207
       7A    -11.243917     8A     -1.621006     9A     -1.164143
      10A     -1.032889    11A     -1.022693    12A     -0.855067
      13A     -0.840888    14A     -0.742992    15A     -0.698299
      16A     -0.689901    17A     -0.687030    18A     -0.624032
      19A     -0.606370    20A     -0.595805    21A     -0.532067
      22A     -0.510133    23A     -0.508659    24A     -0.352740
      25A     -0.341670

  @DF-RHF Final Energy:  -329.67096045112419

   => Energetics <=

    Nuclear Repulsion Energy =            268.6920758333941421
    One-Electron Energy =                -982.0996596961423393
    Two-Electron Energy =                 383.7366234116240093
    Total Energy =                       -329.6709604511241878
  Basis Set: (AUG-CC-PVTZ AUX)
    Blend: AUG-CC-PVTZ-RI
    Molecular point group: c1

    Geometry (in Angstrom), charge = 0, multiplicity = 1:

       Center              X                  Y                   Z               Mass
    ------------   -----------------  -----------------  -----------------  -----------------
         F            2.215154001258     0.019015399989    -0.000172356322    18.998403162730
         C            0.857105801258    -0.004687400011    -0.000066956322    12.000000000000
         C            0.188376801258     1.213550599989    -0.000139956322    12.000000000000
         C            0.188376801258    -1.222927400011     0.000096043678    12.000000000000
         C           -1.207791198742     1.204528599989    -0.000013956322    12.000000000000
         C           -1.207790198742    -1.213909400011     0.000217043678    12.000000000000
         C           -1.907537198742    -0.004691400011     0.000147043678    12.000000000000
         H            0.757700801258     2.138127599989    -0.000259956322     1.007825032230
         H            0.757711801258    -2.147498400011     0.000143043678     1.007825032230
         H           -1.747810198742     2.147919599989    -0.000074956322     1.007825032230
         H           -1.747805198742    -2.157303400011     0.000344043678     1.007825032230
         H           -2.994151198742    -0.004687400011     0.000248043678     1.007825032230

  Basis Set: AUG-CC-PVTZ
    Blend: AUG-CC-PVTZ
  Basis Set: (AUG-CC-PVTZ AUX)
    Blend: AUG-CC-PVTZ-JKFIT
	 Reference Energy          =    -329.6709604511241878 [Eh]
	 Singles Energy            =      -0.0000000000000000 [Eh]
	 Same-Spin Energy          =      -0.3284506807303320 [Eh]
	 Opposite-Spin Energy      =      -1.0077298655411819 [Eh]
	 Correlation Energy        =      -1.3361805462715139 [Eh]
	 Total Energy              =    -331.0071409973957088 [Eh]

	 ================> DF-SCS-MP2 Energies <==================
	-----------------------------------------------------------
	 SCS Same-Spin Scale       =       0.3333333333333333 [-]
	 SCS Opposite-Spin Scale   =       1.2000000000000000 [-]
	 SCS Same-Spin Energy      =      -0.1094835602434440 [Eh]
	 SCS Opposite-Spin Energy  =      -1.2092758386494182 [Eh]
	 SCS Correlation Energy    =      -1.3187593988928623 [Eh]
	 SCS Total Energy          =    -330.9897198500170248 [Eh]
	-----------------------------------------------------------

  Dipole Moment: [D]
     X:    -1.5758      Y:    -0.0220      Z:     0.0001     Total:     1.5759

*** Psi4 exiting successfully. Buy a developer a beer!
