                               Psi4 1.3.2 release

  ==> Input File <==

--------------------------------------------------------------------------
#psi4
#
memory 32 gb

molecule  {
0 1
  F        2.2867940     0.0000000    -0.0001760
  C        0.7285390     0.0000023    -0.0000578
  C        0.2598100     1.2182400    -0.0001460
  C        0.2598100    -1.2182380     0.0000900
  C       -1.1363580     1.2092180    -0.0000200
  C       -1.1363570    -1.2092200     0.0002110
  C       -1.8361040    -0.0000020     0.0001410
  H        0.8291340     2.1428170    -0.0002660
  H        0.8291450    -2.1428090     0.0001370
  H       -1.6763770     2.1526090    -0.0000810
  H       -1.6763720    -2.1526140     0.0003380
  H       -2.9227180     0.0000020     0.0002420
units angstrom
no_reorient  #important for SAPT in psi4, default
symmetry c1  #important for SAPT in psi4, default
}

set PROPERTIES_ORIGIN ["COM"]
properties('MP2/aug-cc-pvtz', properties = ['dipole'])
--------------------------------------------------------------------------

    Molecular point group: c1
  Charge       = 0
  Multiplicity = 1
  Basis Set: AUG-CC-PVTZ
    Blend: AUG-CC-PVTZ
  Basis Set: (AUG-CC-PVTZ AUX)
    Blend: AUG-CC-PVTZ-JKFIT

    Orbital Energies [Eh]
    ---------------------

    Doubly Occupied:

       1A    -26.245699     2A    -11.324814     3A    -11.263324
       4A    -11.263272     5A    -11.252034     6A    -11.251126
       7A    -11.251083     8A     -1.518146     9A     -1.199761
      10A     -1.059532    11A     -1.035549    12A     -0.869453
      13A     -0.832071    14A     -0.731406    15A     -0.678286
      16A     -0.660426    17A     -0.630993    18A     -0.619624
      19A     -0.608901    20A     -0.571792    21A     -0.534556
      22A     -0.533172    23A     -0.521556    24A     -0.365268
      25A     -0.364918

  @DF-RHF Final Energy:  -329.62759506247534

   => Energetics <=

    Nuclear Repulsion Energy =            269.6525702295936071
    One-Electron Energy =                -984.1868024111519162
    Two-Electron Energy =                 384.9066371190829727
    Total Energy =                       -329.6275950624753364
  Basis Set: (AUG-CC-PVTZ AUX)
    Blend: AUG-CC-PVTZ-RI
    Molecular point group: c1

    Geometry (in Angstrom), charge = 0, multiplicity = 1:

       Center              X                  Y                   Z               Mass
    ------------   -----------------  -----------------  -----------------  -----------------
         F            2.240310122342    -0.000000089956    -0.000172330354    18.998403162730
         C            0.682055122342     0.000002210044    -0.000054130354    12.000000000000
         C            0.213326122342     1.218239910044    -0.000142330354    12.000000000000
         C            0.213326122342    -1.218238089956     0.000093669646    12.000000000000
         C           -1.182841877658     1.209217910044    -0.000016330354    12.000000000000
         C           -1.182840877658    -1.209220089956     0.000214669646    12.000000000000
         C           -1.882587877658    -0.000002089956     0.000144669646    12.000000000000
         H            0.782650122342     2.142816910044    -0.000262330354     1.007825032230
         H            0.782661122342    -2.142809089956     0.000140669646     1.007825032230
         H           -1.722860877658     2.152608910044    -0.000077330354     1.007825032230
         H           -1.722855877658    -2.152614089956     0.000341669646     1.007825032230
         H           -2.969201877658     0.000001910044     0.000245669646     1.007825032230

  Basis Set: AUG-CC-PVTZ
    Blend: AUG-CC-PVTZ
  Basis Set: (AUG-CC-PVTZ AUX)
    Blend: AUG-CC-PVTZ-JKFIT
	 Reference Energy          =    -329.6275950624753364 [Eh]
	 Singles Energy            =      -0.0000000000000000 [Eh]
	 Same-Spin Energy          =      -0.3303982997250816 [Eh]
	 Opposite-Spin Energy      =      -1.0127710117112008 [Eh]
	 Correlation Energy        =      -1.3431693114362824 [Eh]
	 Total Energy              =    -330.9707643739116065 [Eh]

	 ================> DF-SCS-MP2 Energies <==================
	-----------------------------------------------------------
	 SCS Same-Spin Scale       =       0.3333333333333333 [-]
	 SCS Opposite-Spin Scale   =       1.2000000000000000 [-]
	 SCS Same-Spin Energy      =      -0.1101327665750272 [Eh]
	 SCS Opposite-Spin Energy  =      -1.2153252140534410 [Eh]
	 SCS Correlation Energy    =      -1.3254579806284681 [Eh]
	 SCS Total Energy          =    -330.9530530431038073 [Eh]
	-----------------------------------------------------------

  Dipole Moment: [D]
     X:    -2.8536      Y:     0.0000      Z:     0.0002     Total:     2.8536

*** Psi4 exiting successfully. Buy a developer a beer!
