                               Psi4 1.4a3.dev225

  ==> Input File <==

--------------------------------------------------------------------------
#psi4
#
memory 32 gb

molecule  {
0 1
  F        2.2868760     0.0000000    -0.0001800
  C        0.9480430     0.0000000    -0.0000756
  C        0.2598710     1.2183910    -0.0001390
  C        0.2598710    -1.2183910     0.0000940
  C       -1.1363420     1.2092690    -0.0000240
  C       -1.1363420    -1.2092690     0.0002070
  C       -1.8359950     0.0000000     0.0001450
  H        0.8295710     2.1426150    -0.0002710
  H        0.8295700    -2.1426150     0.0001400
  H       -1.6765610     2.1524830    -0.0000740
  H       -1.6765620    -2.1524830     0.0003390
  H       -2.9225380     0.0000000     0.0002340
units angstrom
no_reorient  #important for SAPT in psi4, default
symmetry c1  #important for SAPT in psi4, default
}

set PROPERTIES_ORIGIN ["COM"]
properties('MP2/aug-cc-pvtz', properties = ['dipole'])
--------------------------------------------------------------------------

    Molecular point group: c1
  Charge       = 0
  Multiplicity = 1
  Basis Set: AUG-CC-PVTZ
    Blend: AUG-CC-PVTZ
  Basis Set: (AUG-CC-PVTZ AUX)
    Blend: AUG-CC-PVTZ-JKFIT

    Orbital Energies [Eh]
    ---------------------

    Doubly Occupied:

       1A    -26.313880     2A    -11.333588     3A    -11.253086
       4A    -11.253029     5A    -11.247573     6A    -11.247558
       7A    -11.242998     8A     -1.633081     9A     -1.161050
      10A     -1.030832    11A     -1.021230    12A     -0.854152
      13A     -0.843650    14A     -0.746718    15A     -0.703215
      16A     -0.697980    17A     -0.688385    18A     -0.623872
      19A     -0.603230    20A     -0.596540    21A     -0.532135
      22A     -0.507827    23A     -0.505178    24A     -0.351700
      25A     -0.338971

  @DF-RHF Final Energy:  -329.67090133092506

   => Energetics <=

    Nuclear Repulsion Energy =            268.6300960724571496
    One-Electron Energy =                -981.9390824557931410
    Two-Electron Energy =                 383.6380850524109292
    Total Energy =                       -329.6709013309250622
  Basis Set: (AUG-CC-PVTZ AUX)
    Blend: AUG-CC-PVTZ-RI
    Molecular point group: c1

    Geometry (in Angstrom), charge = 0, multiplicity = 1:

       Center              X                  Y                   Z               Mass
    ------------   -----------------  -----------------  -----------------  -----------------
         F            2.212908875509     0.000000000000    -0.000174168603    18.998403162730
         C            0.874075875509     0.000000000000    -0.000069768603    12.000000000000
         C            0.185903875509     1.218391000000    -0.000133168603    12.000000000000
         C            0.185903875509    -1.218391000000     0.000099831397    12.000000000000
         C           -1.210309124491     1.209269000000    -0.000018168603    12.000000000000
         C           -1.210309124491    -1.209269000000     0.000212831397    12.000000000000
         C           -1.909962124491     0.000000000000     0.000150831397    12.000000000000
         H            0.755603875509     2.142615000000    -0.000265168603     1.007825032230
         H            0.755602875509    -2.142615000000     0.000145831397     1.007825032230
         H           -1.750528124491     2.152483000000    -0.000068168603     1.007825032230
         H           -1.750529124491    -2.152483000000     0.000344831397     1.007825032230
         H           -2.996505124491     0.000000000000     0.000239831397     1.007825032230

  Basis Set: AUG-CC-PVTZ
    Blend: AUG-CC-PVTZ
  Basis Set: (AUG-CC-PVTZ AUX)
    Blend: AUG-CC-PVTZ-JKFIT
	 Reference Energy          =    -329.6709013309250622 [Eh]
	 Singles Energy            =      -0.0000000000000000 [Eh]
	 Same-Spin Energy          =      -0.3283939128826817 [Eh]
	 Opposite-Spin Energy      =      -1.0074525002016133 [Eh]
	 Correlation Energy        =      -1.3358464130842949 [Eh]
	 Total Energy              =    -331.0067477440093739 [Eh]

	 ================> DF-SCS-MP2 Energies <==================
	-----------------------------------------------------------
	 SCS Same-Spin Scale       =       0.3333333333333333 [-]
	 SCS Opposite-Spin Scale   =       1.2000000000000000 [-]
	 SCS Same-Spin Energy      =      -0.1094646376275606 [Eh]
	 SCS Opposite-Spin Energy  =      -1.2089430002419359 [Eh]
	 SCS Correlation Energy    =      -1.3184076378694964 [Eh]
	 SCS Total Energy          =    -330.9893089687945462 [Eh]
	-----------------------------------------------------------

  Dipole Moment: [D]
     X:    -1.4451      Y:     0.0000      Z:     0.0001     Total:     1.4451

*** Psi4 exiting successfully. Buy a developer a beer!
