                               Psi4 1.4a3.dev225

  ==> Input File <==

--------------------------------------------------------------------------
#psi4
#
memory 32 gb

molecule  {
0 1
  F        2.2868760     0.0000000    -0.0001800
  C        0.8780430     0.0000000    -0.0000701
  C        0.2598710     1.2183910    -0.0001390
  C        0.2598710    -1.2183910     0.0000940
  C       -1.1363420     1.2092690    -0.0000240
  C       -1.1363420    -1.2092690     0.0002070
  C       -1.8359950     0.0000000     0.0001450
  H        0.8295710     2.1426150    -0.0002710
  H        0.8295700    -2.1426150     0.0001400
  H       -1.6765610     2.1524830    -0.0000740
  H       -1.6765620    -2.1524830     0.0003390
  H       -2.9225380     0.0000000     0.0002340
units angstrom
no_reorient  #important for SAPT in psi4, default
symmetry c1  #important for SAPT in psi4, default
}

set PROPERTIES_ORIGIN ["COM"]
properties('MP2/aug-cc-pvtz', properties = ['dipole'])
--------------------------------------------------------------------------

    Molecular point group: c1
  Charge       = 0
  Multiplicity = 1
  Basis Set: AUG-CC-PVTZ
    Blend: AUG-CC-PVTZ
  Basis Set: (AUG-CC-PVTZ AUX)
    Blend: AUG-CC-PVTZ-JKFIT

    Orbital Energies [Eh]
    ---------------------

    Doubly Occupied:

       1A    -26.292770     2A    -11.328399     3A    -11.255861
       4A    -11.255800     5A    -11.248298     6A    -11.248278
       7A    -11.246101     8A     -1.591741     9A     -1.172395
      10A     -1.038598    11A     -1.026312    12A     -0.858086
      13A     -0.835912    14A     -0.735217    15A     -0.687356
      16A     -0.681274    17A     -0.670054    18A     -0.623547
      19A     -0.614456    20A     -0.592956    21A     -0.531413
      22A     -0.516811    23A     -0.516171    24A     -0.355545
      25A     -0.348256

  @DF-RHF Final Energy:  -329.66719075374550

   => Energetics <=

    Nuclear Repulsion Energy =            268.8597759743061033
    One-Electron Energy =                -982.5107223526755433
    Two-Electron Energy =                 383.9837556246239387
    Total Energy =                       -329.6671907537455013
  Basis Set: (AUG-CC-PVTZ AUX)
    Blend: AUG-CC-PVTZ-RI
    Molecular point group: c1

    Geometry (in Angstrom), charge = 0, multiplicity = 1:

       Center              X                  Y                   Z               Mass
    ------------   -----------------  -----------------  -----------------  -----------------
         F            2.221655456295     0.000000000000    -0.000174855834    18.998403162730
         C            0.812822456295     0.000000000000    -0.000064955834    12.000000000000
         C            0.194650456295     1.218391000000    -0.000133855834    12.000000000000
         C            0.194650456295    -1.218391000000     0.000099144166    12.000000000000
         C           -1.201562543705     1.209269000000    -0.000018855834    12.000000000000
         C           -1.201562543705    -1.209269000000     0.000212144166    12.000000000000
         C           -1.901215543705     0.000000000000     0.000150144166    12.000000000000
         H            0.764350456295     2.142615000000    -0.000265855834     1.007825032230
         H            0.764349456295    -2.142615000000     0.000145144166     1.007825032230
         H           -1.741781543705     2.152483000000    -0.000068855834     1.007825032230
         H           -1.741782543705    -2.152483000000     0.000344144166     1.007825032230
         H           -2.987758543705     0.000000000000     0.000239144166     1.007825032230

  Basis Set: AUG-CC-PVTZ
    Blend: AUG-CC-PVTZ
  Basis Set: (AUG-CC-PVTZ AUX)
    Blend: AUG-CC-PVTZ-JKFIT
	 Reference Energy          =    -329.6671907537455013 [Eh]
	 Singles Energy            =      -0.0000000000000000 [Eh]
	 Same-Spin Energy          =      -0.3287090930968278 [Eh]
	 Opposite-Spin Energy      =      -1.0086567108420559 [Eh]
	 Correlation Energy        =      -1.3373658039388836 [Eh]
	 Total Energy              =    -331.0045565576843956 [Eh]

	 ================> DF-SCS-MP2 Energies <==================
	-----------------------------------------------------------
	 SCS Same-Spin Scale       =       0.3333333333333333 [-]
	 SCS Opposite-Spin Scale   =       1.2000000000000000 [-]
	 SCS Same-Spin Energy      =      -0.1095696976989426 [Eh]
	 SCS Opposite-Spin Energy  =      -1.2103880530104669 [Eh]
	 SCS Correlation Energy    =      -1.3199577507094096 [Eh]
	 SCS Total Energy          =    -330.9871485044549217 [Eh]
	-----------------------------------------------------------

  Dipole Moment: [D]
     X:    -1.9061      Y:     0.0000      Z:     0.0002     Total:     1.9061

*** Psi4 exiting successfully. Buy a developer a beer!
