                               Psi4 1.3.2 release

  ==> Input File <==

--------------------------------------------------------------------------
#psi4
#
memory 32 gb

molecule  {
0 1
  F        2.2859665    -0.0474024    -0.0001711
  C        0.9285390     0.0000020    -0.0000730
  C        0.2598100     1.2182400    -0.0001460
  C        0.2598100    -1.2182380     0.0000900
  C       -1.1363580     1.2092180    -0.0000200
  C       -1.1363570    -1.2092200     0.0002110
  C       -1.8361040    -0.0000020     0.0001410
  H        0.8291340     2.1428170    -0.0002660
  H        0.8291450    -2.1428090     0.0001370
  H       -1.6763770     2.1526090    -0.0000810
  H       -1.6763720    -2.1526140     0.0003380
  H       -2.9227180     0.0000020     0.0002420
units angstrom
no_reorient  #important for SAPT in psi4, default
symmetry c1  #important for SAPT in psi4, default
}

set PROPERTIES_ORIGIN ["COM"]
properties('MP2/aug-cc-pvtz', properties = ['dipole'])
--------------------------------------------------------------------------

    Molecular point group: c1
  Charge       = 0
  Multiplicity = 1
  Basis Set: AUG-CC-PVTZ
    Blend: AUG-CC-PVTZ
  Basis Set: (AUG-CC-PVTZ AUX)
    Blend: AUG-CC-PVTZ-JKFIT

    Orbital Energies [Eh]
    ---------------------

    Doubly Occupied:

       1A    -26.307952     2A    -11.331885     3A    -11.254194
       4A    -11.253335     5A    -11.248806     6A    -11.246667
       7A    -11.243910     8A     -1.621028     9A     -1.164132
      10A     -1.032881    11A     -1.022686    12A     -0.855106
      13A     -0.840864    14A     -0.742966    15A     -0.698332
      16A     -0.689915    17A     -0.687011    18A     -0.624020
      19A     -0.606355    20A     -0.595737    21A     -0.532046
      22A     -0.510121    23A     -0.508612    24A     -0.352738
      25A     -0.341649

  @DF-RHF Final Energy:  -329.67074099407711

   => Energetics <=

    Nuclear Repulsion Energy =            268.7006284710386126
    One-Electron Energy =                -982.1168405899557001
    Two-Electron Energy =                 383.7454711248399803
    Total Energy =                       -329.6707409940771072
  Basis Set: (AUG-CC-PVTZ AUX)
    Blend: AUG-CC-PVTZ-RI
    Molecular point group: c1

    Geometry (in Angstrom), charge = 0, multiplicity = 1:

       Center              X                  Y                   Z               Mass
    ------------   -----------------  -----------------  -----------------  -----------------
         F            2.214656089808    -0.038025181712    -0.000166500428    18.998403162730
         C            0.857228589808     0.009379218288    -0.000068400428    12.000000000000
         C            0.188499589808     1.227617218288    -0.000141400428    12.000000000000
         C            0.188499589808    -1.208860781712     0.000094599572    12.000000000000
         C           -1.207668410192     1.218595218288    -0.000015400428    12.000000000000
         C           -1.207667410192    -1.199842781712     0.000215599572    12.000000000000
         C           -1.907414410192     0.009375218288     0.000145599572    12.000000000000
         H            0.757823589808     2.152194218288    -0.000261400428     1.007825032230
         H            0.757834589808    -2.133431781712     0.000141599572     1.007825032230
         H           -1.747687410192     2.161986218288    -0.000076400428     1.007825032230
         H           -1.747682410192    -2.143236781712     0.000342599572     1.007825032230
         H           -2.994028410192     0.009379218288     0.000246599572     1.007825032230

  Basis Set: AUG-CC-PVTZ
    Blend: AUG-CC-PVTZ
  Basis Set: (AUG-CC-PVTZ AUX)
    Blend: AUG-CC-PVTZ-JKFIT
	 Reference Energy          =    -329.6707409940771072 [Eh]
	 Singles Energy            =      -0.0000000000000000 [Eh]
	 Same-Spin Energy          =      -0.3284578283680663 [Eh]
	 Opposite-Spin Energy      =      -1.0077475932328372 [Eh]
	 Correlation Energy        =      -1.3362054216009036 [Eh]
	 Total Energy              =    -331.0069464156779873 [Eh]

	 ================> DF-SCS-MP2 Energies <==================
	-----------------------------------------------------------
	 SCS Same-Spin Scale       =       0.3333333333333333 [-]
	 SCS Opposite-Spin Scale   =       1.2000000000000000 [-]
	 SCS Same-Spin Energy      =      -0.1094859427893554 [Eh]
	 SCS Opposite-Spin Energy  =      -1.2092971118794047 [Eh]
	 SCS Correlation Energy    =      -1.3187830546687600 [Eh]
	 SCS Total Energy          =    -330.9895240487458636 [Eh]
	-----------------------------------------------------------

  Dipole Moment: [D]
     X:    -1.5745      Y:     0.0441      Z:     0.0001     Total:     1.5751

*** Psi4 exiting successfully. Buy a developer a beer!
