                               Psi4 1.3.2 release

  ==> Input File <==

--------------------------------------------------------------------------
#psi4
#
memory 32 gb

molecule  {
0 1
  F        2.2793531    -0.1419763    -0.0001610
  C        0.9285390     0.0000020    -0.0000730
  C        0.2598100     1.2182400    -0.0001460
  C        0.2598100    -1.2182380     0.0000900
  C       -1.1363580     1.2092180    -0.0000200
  C       -1.1363570    -1.2092200     0.0002110
  C       -1.8361040    -0.0000020     0.0001410
  H        0.8291340     2.1428170    -0.0002660
  H        0.8291450    -2.1428090     0.0001370
  H       -1.6763770     2.1526090    -0.0000810
  H       -1.6763720    -2.1526140     0.0003380
  H       -2.9227180     0.0000020     0.0002420
units angstrom
no_reorient  #important for SAPT in psi4, default
symmetry c1  #important for SAPT in psi4, default
}

set PROPERTIES_ORIGIN ["COM"]
properties('MP2/aug-cc-pvtz', properties = ['dipole'])
--------------------------------------------------------------------------

    Molecular point group: c1
  Charge       = 0
  Multiplicity = 1
  Basis Set: AUG-CC-PVTZ
    Blend: AUG-CC-PVTZ
  Basis Set: (AUG-CC-PVTZ AUX)
    Blend: AUG-CC-PVTZ-JKFIT

    Orbital Energies [Eh]
    ---------------------

    Doubly Occupied:

       1A    -26.307746     2A    -11.331857     3A    -11.254879
       4A    -11.252293     5A    -11.250877     6A    -11.244477
       7A    -11.243833     8A     -1.621272     9A     -1.164013
      10A     -1.032796    11A     -1.022603    12A     -0.855512
      13A     -0.840623    14A     -0.742687    15A     -0.698704
      16A     -0.690068    17A     -0.686803    18A     -0.623884
      19A     -0.606195    20A     -0.595016    21A     -0.531822
      22A     -0.509992    23A     -0.508114    24A     -0.352724
      25A     -0.341422

  @DF-RHF Final Energy:  -329.66838626610081

   => Energetics <=

    Nuclear Repulsion Energy =            268.7919947707766255
    One-Electron Energy =                -982.3003398896175895
    Two-Electron Energy =                 383.8399588527400965
    Total Energy =                       -329.6683862661008106
  Basis Set: (AUG-CC-PVTZ AUX)
    Blend: AUG-CC-PVTZ-RI
    Molecular point group: c1

    Geometry (in Angstrom), charge = 0, multiplicity = 1:

       Center              X                  Y                   Z               Mass
    ------------   -----------------  -----------------  -----------------  -----------------
         F            2.209350970453    -0.113890217456    -0.000158398437    18.998403162730
         C            0.858536870453     0.028088082544    -0.000070398437    12.000000000000
         C            0.189807870453     1.246326082544    -0.000143398437    12.000000000000
         C            0.189807870453    -1.190151917456     0.000092601563    12.000000000000
         C           -1.206360129547     1.237304082544    -0.000017398437    12.000000000000
         C           -1.206359129547    -1.181133917456     0.000213601563    12.000000000000
         C           -1.906106129547     0.028084082544     0.000143601563    12.000000000000
         H            0.759131870453     2.170903082544    -0.000263398437     1.007825032230
         H            0.759142870453    -2.114722917456     0.000139601563     1.007825032230
         H           -1.746379129547     2.180695082544    -0.000078398437     1.007825032230
         H           -1.746374129547    -2.124527917456     0.000340601563     1.007825032230
         H           -2.992720129547     0.028088082544     0.000244601563     1.007825032230

  Basis Set: AUG-CC-PVTZ
    Blend: AUG-CC-PVTZ
  Basis Set: (AUG-CC-PVTZ AUX)
    Blend: AUG-CC-PVTZ-JKFIT
	 Reference Energy          =    -329.6683862661008106 [Eh]
	 Singles Energy            =      -0.0000000000000000 [Eh]
	 Same-Spin Energy          =      -0.3285345112975143 [Eh]
	 Opposite-Spin Energy      =      -1.0079339223628374 [Eh]
	 Correlation Energy        =      -1.3364684336603516 [Eh]
	 Total Energy              =    -331.0048546997611538 [Eh]

	 ================> DF-SCS-MP2 Energies <==================
	-----------------------------------------------------------
	 SCS Same-Spin Scale       =       0.3333333333333333 [-]
	 SCS Opposite-Spin Scale   =       1.2000000000000000 [-]
	 SCS Same-Spin Energy      =      -0.1095115037658381 [Eh]
	 SCS Opposite-Spin Energy  =      -1.2095207068354048 [Eh]
	 SCS Correlation Energy    =      -1.3190322106012429 [Eh]
	 SCS Total Energy          =    -330.9874184767020324 [Eh]
	-----------------------------------------------------------

  Dipole Moment: [D]
     X:    -1.5612      Y:     0.1317      Z:     0.0001     Total:     1.5667

*** Psi4 exiting successfully. Buy a developer a beer!
