                               Psi4 1.3.2 release

  ==> Input File <==

--------------------------------------------------------------------------
#psi4
#
memory 32 gb

molecule  {
0 1
  F        2.2867940     0.0000000    -0.0001760
  C        1.1285390     0.0000017    -0.0000882
  C        0.2598100     1.2182400    -0.0001460
  C        0.2598100    -1.2182380     0.0000900
  C       -1.1363580     1.2092180    -0.0000200
  C       -1.1363570    -1.2092200     0.0002110
  C       -1.8361040    -0.0000020     0.0001410
  H        0.8291340     2.1428170    -0.0002660
  H        0.8291450    -2.1428090     0.0001370
  H       -1.6763770     2.1526090    -0.0000810
  H       -1.6763720    -2.1526140     0.0003380
  H       -2.9227180     0.0000020     0.0002420
units angstrom
no_reorient  #important for SAPT in psi4, default
symmetry c1  #important for SAPT in psi4, default
}

set PROPERTIES_ORIGIN ["COM"]
properties('MP2/aug-cc-pvtz', properties = ['dipole'])
--------------------------------------------------------------------------

    Molecular point group: c1
  Charge       = 0
  Multiplicity = 1
  Basis Set: AUG-CC-PVTZ
    Blend: AUG-CC-PVTZ
  Basis Set: (AUG-CC-PVTZ AUX)
    Blend: AUG-CC-PVTZ-JKFIT

    Orbital Energies [Eh]
    ---------------------

    Doubly Occupied:

       1A    -26.375756     2A    -11.358494     3A    -11.246641
       4A    -11.246617     5A    -11.244276     6A    -11.244275
       7A    -11.231489     8A     -1.776050     9A     -1.135450
      10A     -1.014529    11A     -1.011055    12A     -0.900073
      13A     -0.863126    14A     -0.791581    15A     -0.771808
      16A     -0.756650    17A     -0.685573    18A     -0.616814
      19A     -0.595016    20A     -0.576958    21A     -0.527609
      22A     -0.487946    23A     -0.462406    24A     -0.342575
      25A     -0.310017

  @DF-RHF Final Energy:  -329.61324611518251

   => Energetics <=

    Nuclear Repulsion Energy =            268.6730543374910098
    One-Electron Energy =                -981.4270378607966450
    Two-Electron Energy =                 383.1407374081230728
    Total Energy =                       -329.6132461151825055
  Basis Set: (AUG-CC-PVTZ AUX)
    Blend: AUG-CC-PVTZ-RI
    Molecular point group: c1

    Geometry (in Angstrom), charge = 0, multiplicity = 1:

       Center              X                  Y                   Z               Mass
    ------------   -----------------  -----------------  -----------------  -----------------
         F            2.190329660706    -0.000000014985    -0.000168531839    18.998403162730
         C            1.032074660706     0.000001685015    -0.000080731839    12.000000000000
         C            0.163345660706     1.218239985015    -0.000138531839    12.000000000000
         C            0.163345660706    -1.218238014985     0.000097468161    12.000000000000
         C           -1.232822339294     1.209217985015    -0.000012531839    12.000000000000
         C           -1.232821339294    -1.209220014985     0.000218468161    12.000000000000
         C           -1.932568339294    -0.000002014985     0.000148468161    12.000000000000
         H            0.732669660706     2.142816985015    -0.000258531839     1.007825032230
         H            0.732680660706    -2.142809014985     0.000144468161     1.007825032230
         H           -1.772841339294     2.152608985015    -0.000073531839     1.007825032230
         H           -1.772836339294    -2.152614014985     0.000345468161     1.007825032230
         H           -3.019182339294     0.000001985015     0.000249468161     1.007825032230

  Basis Set: AUG-CC-PVTZ
    Blend: AUG-CC-PVTZ
  Basis Set: (AUG-CC-PVTZ AUX)
    Blend: AUG-CC-PVTZ-JKFIT
	 Reference Energy          =    -329.6132461151825055 [Eh]
	 Singles Energy            =      -0.0000000000000000 [Eh]
	 Same-Spin Energy          =      -0.3289490753046552 [Eh]
	 Opposite-Spin Energy      =      -1.0069809845431628 [Eh]
	 Correlation Energy        =      -1.3359300598478179 [Eh]
	 Total Energy              =    -330.9491761750303453 [Eh]

	 ================> DF-SCS-MP2 Energies <==================
	-----------------------------------------------------------
	 SCS Same-Spin Scale       =       0.3333333333333333 [-]
	 SCS Opposite-Spin Scale   =       1.2000000000000000 [-]
	 SCS Same-Spin Energy      =      -0.1096496917682184 [Eh]
	 SCS Opposite-Spin Energy  =      -1.2083771814517952 [Eh]
	 SCS Correlation Energy    =      -1.3180268732200136 [Eh]
	 SCS Total Energy          =    -330.9312729884024975 [Eh]
	-----------------------------------------------------------

  Dipole Moment: [D]
     X:    -0.0464      Y:     0.0000      Z:     0.0000     Total:     0.0464

*** Psi4 exiting successfully. Buy a developer a beer!
