                               Psi4 1.3.2 release

  ==> Input File <==

--------------------------------------------------------------------------
#psi4
#
memory 32 gb

molecule  {
0 1
  O       -0.0768340     1.0301030     0.6945190
  O        0.0027630    -2.4368280    -0.0631460
  O       -1.8013270     1.3609940    -0.8558510
  O        2.7706710     0.8423760     0.1830720
  C       -0.3684457    -0.9914414    -0.3177237
  C        0.6336520    -0.1707830     0.3242940
  C       -1.6840130    -0.6458300     0.3680790
  C       -1.4616990     0.8497080     0.4211840
  C        1.7909010     0.1493410    -0.5832570
  H       -0.4628000    -0.8966240    -1.3943000
  H        1.0128680    -0.6537370     1.2378340
  H       -2.6003960    -0.9046920    -0.1672120
  H       -1.7107100    -1.0642920     1.3790340
  H       -2.0056690     1.3805330     1.2112860
  H        1.4142140     0.7608160    -1.4169540
  H        2.1823060    -0.7975400    -0.9866360
  H       -0.6472830    -3.0203740    -0.5025550
  H       -1.5565300     2.3068120    -0.8531920
  H        3.4888480     1.0945290    -0.4213450
units angstrom
no_reorient  #important for SAPT in psi4, default
symmetry c1  #important for SAPT in psi4, default
}

set PROPERTIES_ORIGIN ["COM"]
properties('MP2/aug-cc-pvtz', properties = ['dipole'])
--------------------------------------------------------------------------

    Molecular point group: c1
  Charge       = 0
  Multiplicity = 1
  Basis Set: AUG-CC-PVTZ
    Blend: AUG-CC-PVTZ
  Basis Set: (AUG-CC-PVTZ AUX)
    Blend: AUG-CC-PVTZ-JKFIT

    Orbital Energies [Eh]
    ---------------------

    Doubly Occupied:

       1A    -20.571054     2A    -20.560427     3A    -20.559985
       4A    -20.559817     5A    -11.338208     6A    -11.289977
       7A    -11.277820     8A    -11.276872     9A    -11.233308
      10A     -1.419498    11A     -1.359880    12A     -1.343029
      13A     -1.330319    14A     -1.075013    15A     -1.032679
      16A     -0.901371    17A     -0.824040    18A     -0.798053
      19A     -0.743251    20A     -0.703989    21A     -0.679560
      22A     -0.670373    23A     -0.642647    24A     -0.631249
      25A     -0.607995    26A     -0.574567    27A     -0.566390
      28A     -0.542367    29A     -0.536726    30A     -0.515304
      31A     -0.512233    32A     -0.486821    33A     -0.474629
      34A     -0.449499    35A     -0.443203    36A     -0.431630

  @DF-RHF Final Energy:  -494.76909226680959

   => Energetics <=

    Nuclear Repulsion Energy =            510.3161931359020969
    One-Electron Energy =               -1692.2430006831839364
    Two-Electron Energy =                 687.1577152804723028
    Total Energy =                       -494.7690922668095936
  Basis Set: (AUG-CC-PVTZ AUX)
    Blend: AUG-CC-PVTZ-RI
    Molecular point group: c1

    Geometry (in Angstrom), charge = 0, multiplicity = 1:

       Center              X                  Y                   Z               Mass
    ------------   -----------------  -----------------  -----------------  -----------------
         O           -0.079463314872     1.020960738959     0.694820267264    15.994914619570
         O            0.000133685128    -2.445970261041    -0.062844732736    15.994914619570
         O           -1.803956314872     1.351851738959    -0.855549732736    15.994914619570
         O            2.768041685128     0.833233738959     0.183373267264    15.994914619570
         C           -0.371075014872    -1.000583661041    -0.317422432736    12.000000000000
         C            0.631022685128    -0.179925261041     0.324595267264    12.000000000000
         C           -1.686642314872    -0.654972261041     0.368380267264    12.000000000000
         C           -1.464328314872     0.840565738959     0.421485267264    12.000000000000
         C            1.788271685128     0.140198738959    -0.582955732736    12.000000000000
         H           -0.465429314872    -0.905766261041    -1.393998732736     1.007825032230
         H            1.010238685128    -0.662879261041     1.238135267264     1.007825032230
         H           -2.603025314872    -0.913834261041    -0.166910732736     1.007825032230
         H           -1.713339314872    -1.073434261041     1.379335267264     1.007825032230
         H           -2.008298314872     1.371390738959     1.211587267264     1.007825032230
         H            1.411584685128     0.751673738959    -1.416652732736     1.007825032230
         H            2.179676685128    -0.806682261041    -0.986334732736     1.007825032230
         H           -0.649912314872    -3.029516261041    -0.502253732736     1.007825032230
         H           -1.559159314872     2.297669738959    -0.852890732736     1.007825032230
         H            3.486218685128     1.085386738959    -0.421043732736     1.007825032230

  Basis Set: AUG-CC-PVTZ
    Blend: AUG-CC-PVTZ
  Basis Set: (AUG-CC-PVTZ AUX)
    Blend: AUG-CC-PVTZ-JKFIT
	 Reference Energy          =    -494.7690922668095936 [Eh]
	 Singles Energy            =      -0.0000000000000000 [Eh]
	 Same-Spin Energy          =      -0.4837166263963326 [Eh]
	 Opposite-Spin Energy      =      -1.5150306464679328 [Eh]
	 Correlation Energy        =      -1.9987472728642655 [Eh]
	 Total Energy              =    -496.7678395396738438 [Eh]

	 ================> DF-SCS-MP2 Energies <==================
	-----------------------------------------------------------
	 SCS Same-Spin Scale       =       0.3333333333333333 [-]
	 SCS Opposite-Spin Scale   =       1.2000000000000000 [-]
	 SCS Same-Spin Energy      =      -0.1612388754654442 [Eh]
	 SCS Opposite-Spin Energy  =      -1.8180367757615192 [Eh]
	 SCS Correlation Energy    =      -1.9792756512269634 [Eh]
	 SCS Total Energy          =    -496.7483679180365357 [Eh]
	-----------------------------------------------------------

  Dipole Moment: [D]
     X:    -1.1772      Y:    -0.1349      Z:    -1.8692     Total:     2.2131

*** Psi4 exiting successfully. Buy a developer a beer!
