                               Psi4 1.3.2 release

  ==> Input File <==

--------------------------------------------------------------------------
#psi4
#
memory 32 gb

molecule  {
0 1
  O       -0.0768340     1.0301030     0.6945190
  O        0.0027630    -2.4368280    -0.0631460
  O       -1.8013270     1.3609940    -0.8558510
  O        2.7706710     0.8423760     0.1830720
  C       -0.3978190    -1.0935740    -0.3143580
  C        0.6336520    -0.1707830     0.3242940
  C       -1.7351526    -0.6012126     0.2237953
  C       -1.4616990     0.8497080     0.4211840
  C        1.7909010     0.1493410    -0.5832570
  H       -0.4628000    -0.8966240    -1.3943000
  H        1.0128680    -0.6537370     1.2378340
  H       -2.6003960    -0.9046920    -0.1672120
  H       -1.7107100    -1.0642920     1.3790340
  H       -2.0056690     1.3805330     1.2112860
  H        1.4142140     0.7608160    -1.4169540
  H        2.1823060    -0.7975400    -0.9866360
  H       -0.6472830    -3.0203740    -0.5025550
  H       -1.5565300     2.3068120    -0.8531920
  H        3.4888480     1.0945290    -0.4213450
units angstrom
no_reorient  #important for SAPT in psi4, default
symmetry c1  #important for SAPT in psi4, default
}

set PROPERTIES_ORIGIN ["COM"]
properties('MP2/aug-cc-pvtz', properties = ['dipole'])
--------------------------------------------------------------------------

    Molecular point group: c1
  Charge       = 0
  Multiplicity = 1
  Basis Set: AUG-CC-PVTZ
    Blend: AUG-CC-PVTZ
  Basis Set: (AUG-CC-PVTZ AUX)
    Blend: AUG-CC-PVTZ-JKFIT

    Orbital Energies [Eh]
    ---------------------

    Doubly Occupied:

       1A    -20.574873     2A    -20.566867     3A    -20.561869
       4A    -20.558876     5A    -11.338504     6A    -11.291481
       7A    -11.279581     8A    -11.276444     9A    -11.235610
      10A     -1.417384    11A     -1.371007    12A     -1.357946
      13A     -1.336196    14A     -1.066611    15A     -1.027629
      16A     -0.899722    17A     -0.825332    18A     -0.799346
      19A     -0.741534    20A     -0.703899    21A     -0.688371
      22A     -0.678930    23A     -0.644296    24A     -0.635095
      25A     -0.614145    26A     -0.573815    27A     -0.568902
      28A     -0.556167    29A     -0.531750    30A     -0.517325
      31A     -0.501484    32A     -0.480091    33A     -0.462698
      34A     -0.447697    35A     -0.440738    36A     -0.428507

  @DF-RHF Final Energy:  -494.75335959279414

   => Energetics <=

    Nuclear Repulsion Energy =            509.5592608026656194
    One-Electron Energy =               -1690.6237994080613589
    Two-Electron Energy =                 686.3111790126015421
    Total Energy =                       -494.7533595927941406
  Basis Set: (AUG-CC-PVTZ AUX)
    Blend: AUG-CC-PVTZ-RI
    Molecular point group: c1

    Geometry (in Angstrom), charge = 0, multiplicity = 1:

       Center              X                  Y                   Z               Mass
    ------------   -----------------  -----------------  -----------------  -----------------
         O           -0.072256318965     1.026109128981     0.707434338415    15.994914619570
         O            0.007340681035    -2.440821871019    -0.050230661585    15.994914619570
         O           -1.796749318965     1.357000128981    -0.842935661585    15.994914619570
         O            2.775248681035     0.838382128981     0.195987338415    15.994914619570
         C           -0.393241318965    -1.097567871019    -0.301442661585    12.000000000000
         C            0.638229681035    -0.174776871019     0.337209338415    12.000000000000
         C           -1.730574918965    -0.605206471019     0.236710638415    12.000000000000
         C           -1.457121318965     0.845714128981     0.434099338415    12.000000000000
         C            1.795478681035     0.145347128981    -0.570341661585    12.000000000000
         H           -0.458222318965    -0.900617871019    -1.381384661585     1.007825032230
         H            1.017445681035    -0.657730871019     1.250749338415     1.007825032230
         H           -2.595818318965    -0.908685871019    -0.154296661585     1.007825032230
         H           -1.706132318965    -1.068285871019     1.391949338415     1.007825032230
         H           -2.001091318965     1.376539128981     1.224201338415     1.007825032230
         H            1.418791681035     0.756822128981    -1.404038661585     1.007825032230
         H            2.186883681035    -0.801533871019    -0.973720661585     1.007825032230
         H           -0.642705318965    -3.024367871019    -0.489639661585     1.007825032230
         H           -1.551952318965     2.302818128981    -0.840276661585     1.007825032230
         H            3.493425681035     1.090535128981    -0.408429661585     1.007825032230

  Basis Set: AUG-CC-PVTZ
    Blend: AUG-CC-PVTZ
  Basis Set: (AUG-CC-PVTZ AUX)
    Blend: AUG-CC-PVTZ-JKFIT
	 Reference Energy          =    -494.7533595927941406 [Eh]
	 Singles Energy            =      -0.0000000000000000 [Eh]
	 Same-Spin Energy          =      -0.4837030702211840 [Eh]
	 Opposite-Spin Energy      =      -1.5149017175358446 [Eh]
	 Correlation Energy        =      -1.9986047877570285 [Eh]
	 Total Energy              =    -496.7519643805511578 [Eh]

	 ================> DF-SCS-MP2 Energies <==================
	-----------------------------------------------------------
	 SCS Same-Spin Scale       =       0.3333333333333333 [-]
	 SCS Opposite-Spin Scale   =       1.2000000000000000 [-]
	 SCS Same-Spin Energy      =      -0.1612343567403947 [Eh]
	 SCS Opposite-Spin Energy  =      -1.8178820610430133 [Eh]
	 SCS Correlation Energy    =      -1.9791164177834080 [Eh]
	 SCS Total Energy          =    -496.7324760105775567 [Eh]
	-----------------------------------------------------------

  Dipole Moment: [D]
     X:    -1.1388      Y:    -0.4762      Z:    -1.9584     Total:     2.3149

*** Psi4 exiting successfully. Buy a developer a beer!
