                               Psi4 1.3.2 release

  ==> Input File <==

--------------------------------------------------------------------------
#psi4
#
memory 32 gb

molecule  {
0 1
  O       -0.0768340     1.0301030     0.6945190
  O        0.0027630    -2.4368280    -0.0631460
  O       -1.8013270     1.3609940    -0.8558510
  O        2.7706710     0.8423760     0.1830720
  C       -0.3978190    -1.0935740    -0.3143580
  C        0.6336520    -0.1707830     0.3242940
  C       -1.6840130    -0.6458300     0.3680790
  C       -1.5064722     0.8563968     0.3939945
  C        1.7909010     0.1493410    -0.5832570
  H       -0.4628000    -0.8966240    -1.3943000
  H        1.0128680    -0.6537370     1.2378340
  H       -2.6003960    -0.9046920    -0.1672120
  H       -1.7107100    -1.0642920     1.3790340
  H       -2.0056690     1.3805330     1.2112860
  H        1.4142140     0.7608160    -1.4169540
  H        2.1823060    -0.7975400    -0.9866360
  H       -0.6472830    -3.0203740    -0.5025550
  H       -1.5565300     2.3068120    -0.8531920
  H        3.4888480     1.0945290    -0.4213450
units angstrom
no_reorient  #important for SAPT in psi4, default
symmetry c1  #important for SAPT in psi4, default
}

set PROPERTIES_ORIGIN ["COM"]
properties('MP2/aug-cc-pvtz', properties = ['dipole'])
--------------------------------------------------------------------------

    Molecular point group: c1
  Charge       = 0
  Multiplicity = 1
  Basis Set: AUG-CC-PVTZ
    Blend: AUG-CC-PVTZ
  Basis Set: (AUG-CC-PVTZ AUX)
    Blend: AUG-CC-PVTZ-JKFIT

    Orbital Energies [Eh]
    ---------------------

    Doubly Occupied:

       1A    -20.577229     2A    -20.571699     3A    -20.555974
       4A    -20.550299     5A    -11.338555     6A    -11.287832
       7A    -11.273231     8A    -11.272536     9A    -11.230979
      10A     -1.416680    11A     -1.370614    12A     -1.355673
      13A     -1.331450    14A     -1.060815    15A     -1.021912
      16A     -0.897559    17A     -0.820139    18A     -0.792593
      19A     -0.749292    20A     -0.698598    21A     -0.685971
      22A     -0.671617    23A     -0.640155    24A     -0.627358
      25A     -0.621337    26A     -0.573162    27A     -0.563339
      28A     -0.555229    29A     -0.537854    30A     -0.518875
      31A     -0.501947    32A     -0.485006    33A     -0.457238
      34A     -0.445762    35A     -0.442289    36A     -0.425551

  @DF-RHF Final Energy:  -494.77893677079828

   => Energetics <=

    Nuclear Repulsion Energy =            508.8931291383399866
    One-Electron Energy =               -1689.4914294878585679
    Two-Electron Energy =                 685.8193635787201856
    Total Energy =                       -494.7789367707982819
  Basis Set: (AUG-CC-PVTZ AUX)
    Blend: AUG-CC-PVTZ-RI
    Molecular point group: c1

    Geometry (in Angstrom), charge = 0, multiplicity = 1:

       Center              X                  Y                   Z               Mass
    ------------   -----------------  -----------------  -----------------  -----------------
         O           -0.072826198062     1.029504252805     0.696952820297    15.994914619570
         O            0.006770801938    -2.437426747195    -0.060712179703    15.994914619570
         O           -1.797319198062     1.360395252805    -0.853417179703    15.994914619570
         O            2.774678801938     0.841777252805     0.185505820297    15.994914619570
         C           -0.393811198062    -1.094172747195    -0.311924179703    12.000000000000
         C            0.637659801938    -0.171381747195     0.326727820297    12.000000000000
         C           -1.680005198062    -0.646428747195     0.370512820297    12.000000000000
         C           -1.502464398062     0.855798052805     0.396428320297    12.000000000000
         C            1.794908801938     0.148742252805    -0.580823179703    12.000000000000
         H           -0.458792198062    -0.897222747195    -1.391866179703     1.007825032230
         H            1.016875801938    -0.654335747195     1.240267820297     1.007825032230
         H           -2.596388198062    -0.905290747195    -0.164778179703     1.007825032230
         H           -1.706702198062    -1.064890747195     1.381467820297     1.007825032230
         H           -2.001661198062     1.379934252805     1.213719820297     1.007825032230
         H            1.418221801938     0.760217252805    -1.414520179703     1.007825032230
         H            2.186313801938    -0.798138747195    -0.984202179703     1.007825032230
         H           -0.643275198062    -3.020972747195    -0.500121179703     1.007825032230
         H           -1.552522198062     2.306213252805    -0.850758179703     1.007825032230
         H            3.492855801938     1.093930252805    -0.418911179703     1.007825032230

  Basis Set: AUG-CC-PVTZ
    Blend: AUG-CC-PVTZ
  Basis Set: (AUG-CC-PVTZ AUX)
    Blend: AUG-CC-PVTZ-JKFIT
	 Reference Energy          =    -494.7789367707982819 [Eh]
	 Singles Energy            =      -0.0000000000000000 [Eh]
	 Same-Spin Energy          =      -0.4830646851141546 [Eh]
	 Opposite-Spin Energy      =      -1.5133367359269436 [Eh]
	 Correlation Energy        =      -1.9964014210410983 [Eh]
	 Total Energy              =    -496.7753381918393529 [Eh]

	 ================> DF-SCS-MP2 Energies <==================
	-----------------------------------------------------------
	 SCS Same-Spin Scale       =       0.3333333333333333 [-]
	 SCS Opposite-Spin Scale   =       1.2000000000000000 [-]
	 SCS Same-Spin Energy      =      -0.1610215617047182 [Eh]
	 SCS Opposite-Spin Energy  =      -1.8160040831123323 [Eh]
	 SCS Correlation Energy    =      -1.9770256448170505 [Eh]
	 SCS Total Energy          =    -496.7559624156153291 [Eh]
	-----------------------------------------------------------

  Dipole Moment: [D]
     X:    -1.4328      Y:    -0.3707      Z:    -2.0164     Total:     2.5012

*** Psi4 exiting successfully. Buy a developer a beer!
