                               Psi4 1.4a3.dev225

  ==> Input File <==

--------------------------------------------------------------------------
#psi4
#
memory 32 gb

molecule  {
0 1
  O        0.0779330    -0.9269250    -0.8850860
  O       -0.5497830     2.4054250     0.0105510
  O       -1.2273040    -1.7124440     0.8968780
  O        2.8355650    -0.3742720    -0.2242840
  C       -0.6080970     1.0161320     0.3256370
  C        0.5731950     0.3283540    -0.3705440
  C       -1.8147930     0.2671960    -0.2390730
  C       -1.2359040    -1.1221150    -0.3954320
  C        1.7465980     0.1105970     0.5541480
  H       -0.5498730     0.8655980     1.4125560
  H        0.8905780     0.9380060    -1.2243810
  H       -2.6827511     0.2870970     0.3909337
  H       -2.0570860     0.6846600    -1.2212740
  H       -1.7431510    -1.7703690    -1.1193200
  H        1.4450650    -0.6065030     1.3308310
  H        1.9882130     1.0713000     1.0354480
  H       -1.2210140     2.8543510     0.5524830
  H       -0.6896120    -2.5214440     0.8182530
  H        3.5785240    -0.5383230     0.3798300
units angstrom
no_reorient  #important for SAPT in psi4, default
symmetry c1  #important for SAPT in psi4, default
}

set PROPERTIES_ORIGIN ["COM"]
properties('MP2/aug-cc-pvtz', properties = ['dipole'])
--------------------------------------------------------------------------

    Molecular point group: c1
  Charge       = 0
  Multiplicity = 1
  Basis Set: AUG-CC-PVTZ
    Blend: AUG-CC-PVTZ
  Basis Set: (AUG-CC-PVTZ AUX)
    Blend: AUG-CC-PVTZ-JKFIT

    Orbital Energies [Eh]
    ---------------------

    Doubly Occupied:

       1A    -20.570852     2A    -20.569516     3A    -20.559425
       4A    -20.558888     5A    -11.336477     6A    -11.290062
       7A    -11.277545     8A    -11.276474     9A    -11.226937
      10A     -1.417686    11A     -1.369567    12A     -1.357812
      13A     -1.335833    14A     -1.061287    15A     -1.025637
      16A     -0.898060    17A     -0.821906    18A     -0.795426
      19A     -0.742309    20A     -0.703198    21A     -0.682847
      22A     -0.676283    23A     -0.645484    24A     -0.629871
      25A     -0.613139    26A     -0.574637    27A     -0.564868
      28A     -0.558284    29A     -0.533890    30A     -0.522376
      31A     -0.507718    32A     -0.483415    33A     -0.465139
      34A     -0.449078    35A     -0.442936    36A     -0.427872

  @DF-RHF Final Energy:  -494.78213759663146

   => Energetics <=

    Nuclear Repulsion Energy =            511.1557771978107212
    One-Electron Energy =               -1693.9303570341769500
    Two-Electron Energy =                 687.9924422397348280
    Total Energy =                       -494.7821375966314008
  Basis Set: (AUG-CC-PVTZ AUX)
    Blend: AUG-CC-PVTZ-RI
    Molecular point group: c1

    Geometry (in Angstrom), charge = 0, multiplicity = 1:

       Center              X                  Y                   Z               Mass
    ------------   -----------------  -----------------  -----------------  -----------------
         O            0.070029466888    -0.917584795890    -0.867486094043    15.994914619570
         O           -0.557686533112     2.414765204110     0.028150905957    15.994914619570
         O           -1.235207533112    -1.703103795890     0.914477905957    15.994914619570
         O            2.827661466888    -0.364931795890    -0.206684094043    15.994914619570
         C           -0.616000533112     1.025472204110     0.343236905957    12.000000000000
         C            0.565291466888     0.337694204110    -0.352944094043    12.000000000000
         C           -1.822696533112     0.276536204110    -0.221473094043    12.000000000000
         C           -1.243807533112    -1.112774795890    -0.377832094043    12.000000000000
         C            1.738694466888     0.119937204110     0.571747905957    12.000000000000
         H           -0.557776533112     0.874938204110     1.430155905957     1.007825032230
         H            0.882674466888     0.947346204110    -1.206781094043     1.007825032230
         H           -2.690654633112     0.296437204110     0.408533605957     1.007825032230
         H           -2.064989533112     0.694000204110    -1.203674094043     1.007825032230
         H           -1.751054533112    -1.761028795890    -1.101720094043     1.007825032230
         H            1.437161466888    -0.597162795890     1.348430905957     1.007825032230
         H            1.980309466888     1.080640204110     1.053047905957     1.007825032230
         H           -1.228917533112     2.863691204110     0.570082905957     1.007825032230
         H           -0.697515533112    -2.512103795890     0.835852905957     1.007825032230
         H            3.570620466888    -0.528982795890     0.397429905957     1.007825032230

  Basis Set: AUG-CC-PVTZ
    Blend: AUG-CC-PVTZ
  Basis Set: (AUG-CC-PVTZ AUX)
    Blend: AUG-CC-PVTZ-JKFIT
	 Reference Energy          =    -494.7821375966314577 [Eh]
	 Singles Energy            =      -0.0000000000000000 [Eh]
	 Same-Spin Energy          =      -0.4828332465889333 [Eh]
	 Opposite-Spin Energy      =      -1.5130866666589378 [Eh]
	 Correlation Energy        =      -1.9959199132478711 [Eh]
	 Total Energy              =    -496.7780575098793179 [Eh]

	 ================> DF-SCS-MP2 Energies <==================
	-----------------------------------------------------------
	 SCS Same-Spin Scale       =       0.3333333333333333 [-]
	 SCS Opposite-Spin Scale   =       1.2000000000000000 [-]
	 SCS Same-Spin Energy      =      -0.1609444155296444 [Eh]
	 SCS Opposite-Spin Energy  =      -1.8157039999907252 [Eh]
	 SCS Correlation Energy    =      -1.9766484155203696 [Eh]
	 SCS Total Energy          =    -496.7587860121518020 [Eh]
	-----------------------------------------------------------

  Dipole Moment: [D]
     X:    -1.0211      Y:     0.1519      Z:     2.2596     Total:     2.4843

*** Psi4 exiting successfully. Buy a developer a beer!
