                               Psi4 1.3.2 release

  ==> Input File <==

--------------------------------------------------------------------------
#psi4
#
memory 32 gb

molecule  {
0 1
  O       -0.0768340     1.0301030     0.6945190
  O        0.0027630    -2.4368280    -0.0631460
  O       -1.8013270     1.3609940    -0.8558510
  O        2.7706710     0.8423760     0.1830720
  C       -0.3978190    -1.0935740    -0.3143580
  C        0.6336520    -0.1707830     0.3242940
  C       -1.6840130    -0.6458300     0.3680790
  C       -1.4616990     0.8497080     0.4211840
  C        1.7909010     0.1493410    -0.5832570
  H       -0.4628000    -0.8966240    -1.3943000
  H        1.0128680    -0.6537370     1.2378340
  H       -2.5576010    -0.8469886    -0.2561670
  H       -1.7107100    -1.0642920     1.3790340
  H       -2.0056690     1.3805330     1.2112860
  H        1.4142140     0.7608160    -1.4169540
  H        2.1823060    -0.7975400    -0.9866360
  H       -0.6472830    -3.0203740    -0.5025550
  H       -1.5565300     2.3068120    -0.8531920
  H        3.4888480     1.0945290    -0.4213450
units angstrom
no_reorient  #important for SAPT in psi4, default
symmetry c1  #important for SAPT in psi4, default
}

set PROPERTIES_ORIGIN ["COM"]
properties('MP2/aug-cc-pvtz', properties = ['dipole'])
--------------------------------------------------------------------------

    Molecular point group: c1
  Charge       = 0
  Multiplicity = 1
  Basis Set: AUG-CC-PVTZ
    Blend: AUG-CC-PVTZ
  Basis Set: (AUG-CC-PVTZ AUX)
    Blend: AUG-CC-PVTZ-JKFIT

    Orbital Energies [Eh]
    ---------------------

    Doubly Occupied:

       1A    -20.572276     2A    -20.569588     3A    -20.557730
       4A    -20.557691     5A    -11.336541     6A    -11.288037
       7A    -11.276396     8A    -11.274950     9A    -11.230216
      10A     -1.415180    11A     -1.369853    12A     -1.356749
      13A     -1.335108    14A     -1.063942    15A     -1.025222
      16A     -0.897285    17A     -0.819557    18A     -0.794349
      19A     -0.744237    20A     -0.701340    21A     -0.682676
      22A     -0.673829    23A     -0.642618    24A     -0.626608
      25A     -0.616942    26A     -0.574500    27A     -0.568046
      28A     -0.556562    29A     -0.539517    30A     -0.519286
      31A     -0.503371    32A     -0.482970    33A     -0.462768
      34A     -0.447141    35A     -0.441212    36A     -0.429361

  @DF-RHF Final Energy:  -494.78029288711576

   => Energetics <=

    Nuclear Repulsion Energy =            509.5235012697129946
    One-Electron Energy =               -1690.7002798676712700
    Two-Electron Energy =                 686.3964857108423985
    Total Energy =                       -494.7802928871158201
  Basis Set: (AUG-CC-PVTZ AUX)
    Blend: AUG-CC-PVTZ-RI
    Molecular point group: c1

    Geometry (in Angstrom), charge = 0, multiplicity = 1:

       Center              X                  Y                   Z               Mass
    ------------   -----------------  -----------------  -----------------  -----------------
         O           -0.077155732048     1.029669186521     0.695187740367    15.994914619570
         O            0.002441267952    -2.437261813479    -0.062477259633    15.994914619570
         O           -1.801648732048     1.360560186521    -0.855182259633    15.994914619570
         O            2.770349267952     0.841942186521     0.183740740367    15.994914619570
         C           -0.398140732048    -1.094007813479    -0.313689259633    12.000000000000
         C            0.633330267952    -0.171216813479     0.324962740367    12.000000000000
         C           -1.684334732048    -0.646263813479     0.368747740367    12.000000000000
         C           -1.462020732048     0.849274186521     0.421852740367    12.000000000000
         C            1.790579267952     0.148907186521    -0.582588259633    12.000000000000
         H           -0.463121732048    -0.897057813479    -1.393631259633     1.007825032230
         H            1.012546267952    -0.654170813479     1.238502740367     1.007825032230
         H           -2.557922732048    -0.847422413479    -0.255498259633     1.007825032230
         H           -1.711031732048    -1.064725813479     1.379702740367     1.007825032230
         H           -2.005990732048     1.380099186521     1.211954740367     1.007825032230
         H            1.413892267952     0.760382186521    -1.416285259633     1.007825032230
         H            2.181984267952    -0.797973813479    -0.985967259633     1.007825032230
         H           -0.647604732048    -3.020807813479    -0.501886259633     1.007825032230
         H           -1.556851732048     2.306378186521    -0.852523259633     1.007825032230
         H            3.488526267952     1.094095186521    -0.420676259633     1.007825032230

  Basis Set: AUG-CC-PVTZ
    Blend: AUG-CC-PVTZ
  Basis Set: (AUG-CC-PVTZ AUX)
    Blend: AUG-CC-PVTZ-JKFIT
	 Reference Energy          =    -494.7802928871157633 [Eh]
	 Singles Energy            =      -0.0000000000000000 [Eh]
	 Same-Spin Energy          =      -0.4830314059368755 [Eh]
	 Opposite-Spin Energy      =      -1.5132684282254478 [Eh]
	 Correlation Energy        =      -1.9962998341623233 [Eh]
	 Total Energy              =    -496.7765927212780639 [Eh]

	 ================> DF-SCS-MP2 Energies <==================
	-----------------------------------------------------------
	 SCS Same-Spin Scale       =       0.3333333333333333 [-]
	 SCS Opposite-Spin Scale   =       1.2000000000000000 [-]
	 SCS Same-Spin Energy      =      -0.1610104686456252 [Eh]
	 SCS Opposite-Spin Energy  =      -1.8159221138705373 [Eh]
	 SCS Correlation Energy    =      -1.9769325825161626 [Eh]
	 SCS Total Energy          =    -496.7572254696319192 [Eh]
	-----------------------------------------------------------

  Dipole Moment: [D]
     X:    -1.1505      Y:    -0.4600      Z:    -1.8838     Total:     2.2548

*** Psi4 exiting successfully. Buy a developer a beer!
