                               Psi4 1.3.2 release

  ==> Input File <==

--------------------------------------------------------------------------
#psi4
#
memory 32 gb

molecule  {
0 1
  O       -0.0768340     1.0301030     0.6945190
  O        0.0027630    -2.4368280    -0.0631460
  O       -1.8013270     1.3609940    -0.8558510
  O        2.7706710     0.8423760     0.1830720
  C       -0.3978190    -1.0935740    -0.3143580
  C        0.6336520    -0.1707830     0.3242940
  C       -1.6840130    -0.6458300     0.3680790
  C       -1.4616990     0.8497080     0.4211840
  C        1.7909010     0.1493410    -0.5832570
  H       -0.4628000    -0.8966240    -1.3943000
  H        1.0128680    -0.6537370     1.2378340
  H       -2.7681726    -0.9520859    -0.2652161
  H       -1.7107100    -1.0642920     1.3790340
  H       -2.0056690     1.3805330     1.2112860
  H        1.4142140     0.7608160    -1.4169540
  H        2.1823060    -0.7975400    -0.9866360
  H       -0.6472830    -3.0203740    -0.5025550
  H       -1.5565300     2.3068120    -0.8531920
  H        3.4888480     1.0945290    -0.4213450
units angstrom
no_reorient  #important for SAPT in psi4, default
symmetry c1  #important for SAPT in psi4, default
}

set PROPERTIES_ORIGIN ["COM"]
properties('MP2/aug-cc-pvtz', properties = ['dipole'])
--------------------------------------------------------------------------

    Molecular point group: c1
  Charge       = 0
  Multiplicity = 1
  Basis Set: AUG-CC-PVTZ
    Blend: AUG-CC-PVTZ
  Basis Set: (AUG-CC-PVTZ AUX)
    Blend: AUG-CC-PVTZ-JKFIT

    Orbital Energies [Eh]
    ---------------------

    Doubly Occupied:

       1A    -20.572972     2A    -20.569169     3A    -20.560652
       4A    -20.559002     5A    -11.339421     6A    -11.290954
       7A    -11.279044     8A    -11.276512     9A    -11.252384
      10A     -1.416601    11A     -1.370556    12A     -1.357903
      13A     -1.336152    14A     -1.061151    15A     -1.024006
      16A     -0.898407    17A     -0.813604    18A     -0.794336
      19A     -0.745129    20A     -0.700454    21A     -0.682559
      22A     -0.671659    23A     -0.643046    24A     -0.624661
      25A     -0.615621    26A     -0.573812    27A     -0.558751
      28A     -0.556901    29A     -0.534662    30A     -0.518405
      31A     -0.495724    32A     -0.483840    33A     -0.461066
      34A     -0.448407    35A     -0.442909    36A     -0.430700

  @DF-RHF Final Energy:  -494.76103105258926

   => Energetics <=

    Nuclear Repulsion Energy =            508.3703065416508480
    One-Electron Energy =               -1688.3404099733431849
    Two-Electron Energy =                 685.2090723791029632
    Total Energy =                       -494.7610310525892601
  Basis Set: (AUG-CC-PVTZ AUX)
    Blend: AUG-CC-PVTZ-RI
    Molecular point group: c1

    Geometry (in Angstrom), charge = 0, multiplicity = 1:

       Center              X                  Y                   Z               Mass
    ------------   -----------------  -----------------  -----------------  -----------------
         O           -0.075572689828     1.030459290519     0.695255769994    15.994914619570
         O            0.004024310172    -2.436471709481    -0.062409230006    15.994914619570
         O           -1.800065689828     1.361350290519    -0.855114230006    15.994914619570
         O            2.771932310172     0.842732290519     0.183808769994    15.994914619570
         C           -0.396557689828    -1.093217709481    -0.313621230006    12.000000000000
         C            0.634913310172    -0.170426709481     0.325030769994    12.000000000000
         C           -1.682751689828    -0.645473709481     0.368815769994    12.000000000000
         C           -1.460437689828     0.850064290519     0.421920769994    12.000000000000
         C            1.792162310172     0.149697290519    -0.582520230006    12.000000000000
         H           -0.461538689828    -0.896267709481    -1.393563230006     1.007825032230
         H            1.014129310172    -0.653380709481     1.238570769994     1.007825032230
         H           -2.766911289828    -0.951729609481    -0.264479330006     1.007825032230
         H           -1.709448689828    -1.063935709481     1.379770769994     1.007825032230
         H           -2.004407689828     1.380889290519     1.212022769994     1.007825032230
         H            1.415475310172     0.761172290519    -1.416217230006     1.007825032230
         H            2.183567310172    -0.797183709481    -0.985899230006     1.007825032230
         H           -0.646021689828    -3.020017709481    -0.501818230006     1.007825032230
         H           -1.555268689828     2.307168290519    -0.852455230006     1.007825032230
         H            3.490109310172     1.094885290519    -0.420608230006     1.007825032230

  Basis Set: AUG-CC-PVTZ
    Blend: AUG-CC-PVTZ
  Basis Set: (AUG-CC-PVTZ AUX)
    Blend: AUG-CC-PVTZ-JKFIT
	 Reference Energy          =    -494.7610310525892601 [Eh]
	 Singles Energy            =      -0.0000000000000000 [Eh]
	 Same-Spin Energy          =      -0.4829873556390631 [Eh]
	 Opposite-Spin Energy      =      -1.5147406538546442 [Eh]
	 Correlation Energy        =      -1.9977280094937073 [Eh]
	 Total Energy              =    -496.7587590620829587 [Eh]

	 ================> DF-SCS-MP2 Energies <==================
	-----------------------------------------------------------
	 SCS Same-Spin Scale       =       0.3333333333333333 [-]
	 SCS Opposite-Spin Scale   =       1.2000000000000000 [-]
	 SCS Same-Spin Energy      =      -0.1609957852130210 [Eh]
	 SCS Opposite-Spin Energy  =      -1.8176887846255729 [Eh]
	 SCS Correlation Energy    =      -1.9786845698385940 [Eh]
	 SCS Total Energy          =    -496.7397156224278660 [Eh]
	-----------------------------------------------------------

  Dipole Moment: [D]
     X:    -1.0419      Y:    -0.4329      Z:    -1.8474     Total:     2.1647

*** Psi4 exiting successfully. Buy a developer a beer!
