                               Psi4 1.3.2 release

  ==> Input File <==

--------------------------------------------------------------------------
#psi4
#
memory 32 gb

molecule  {
0 1
  O       -0.0768340     1.0301030     0.6945190
  O        0.0027630    -2.4368280    -0.0631460
  O       -1.8013270     1.3609940    -0.8558510
  O        2.7706710     0.8423760     0.1830720
  C       -0.3978190    -1.0935740    -0.3143580
  C        0.5946940    -0.1485978     0.3529426
  C       -1.6840130    -0.6458300     0.3680790
  C       -1.4616990     0.8497080     0.4211840
  C        1.7909010     0.1493410    -0.5832570
  H       -0.4628000    -0.8966240    -1.3943000
  H        1.0128680    -0.6537370     1.2378340
  H       -2.6003960    -0.9046920    -0.1672120
  H       -1.7107100    -1.0642920     1.3790340
  H       -2.0056690     1.3805330     1.2112860
  H        1.4142140     0.7608160    -1.4169540
  H        2.1823060    -0.7975400    -0.9866360
  H       -0.6472830    -3.0203740    -0.5025550
  H       -1.5565300     2.3068120    -0.8531920
  H        3.4888480     1.0945290    -0.4213450
units angstrom
no_reorient  #important for SAPT in psi4, default
symmetry c1  #important for SAPT in psi4, default
}

set PROPERTIES_ORIGIN ["COM"]
properties('MP2/aug-cc-pvtz', properties = ['dipole'])
--------------------------------------------------------------------------

    Molecular point group: c1
  Charge       = 0
  Multiplicity = 1
  Basis Set: AUG-CC-PVTZ
    Blend: AUG-CC-PVTZ
  Basis Set: (AUG-CC-PVTZ AUX)
    Blend: AUG-CC-PVTZ-JKFIT

    Orbital Energies [Eh]
    ---------------------

    Doubly Occupied:

       1A    -20.572097     2A    -20.571315     3A    -20.563246
       4A    -20.555997     5A    -11.339862     6A    -11.287674
       7A    -11.276287     8A    -11.274039     9A    -11.230540
      10A     -1.425410    11A     -1.369298    12A     -1.355680
      13A     -1.342705    14A     -1.064359    15A     -1.019130
      16A     -0.894621    17A     -0.824502    18A     -0.794410
      19A     -0.746836    20A     -0.702856    21A     -0.682696
      22A     -0.675740    23A     -0.641191    24A     -0.630382
      25A     -0.616770    26A     -0.579715    27A     -0.564995
      28A     -0.557693    29A     -0.536133    30A     -0.521656
      31A     -0.507770    32A     -0.488341    33A     -0.458163
      34A     -0.445634    35A     -0.441539    36A     -0.423605

  @DF-RHF Final Energy:  -494.78001251582475

   => Energetics <=

    Nuclear Repulsion Energy =            509.6995598747050167
    One-Electron Energy =               -1690.9933661194095293
    Two-Electron Energy =                 686.5137937288797048
    Total Energy =                       -494.7800125158247511
  Basis Set: (AUG-CC-PVTZ AUX)
    Blend: AUG-CC-PVTZ-RI
    Molecular point group: c1

    Geometry (in Angstrom), charge = 0, multiplicity = 1:

       Center              X                  Y                   Z               Mass
    ------------   -----------------  -----------------  -----------------  -----------------
         O           -0.073346737287     1.028117114951     0.691954553459    15.994914619570
         O            0.006250262713    -2.438813885049    -0.065710446541    15.994914619570
         O           -1.797839737287     1.359008114951    -0.858415446541    15.994914619570
         O            2.774158262713     0.840390114951     0.180507553459    15.994914619570
         C           -0.394331737287    -1.095559885049    -0.316922446541    12.000000000000
         C            0.598181262713    -0.150583685049     0.350378153459    12.000000000000
         C           -1.680525737287    -0.647815885049     0.365514553459    12.000000000000
         C           -1.458211737287     0.847722114951     0.418619553459    12.000000000000
         C            1.794388262713     0.147355114951    -0.585821446541    12.000000000000
         H           -0.459312737287    -0.898609885049    -1.396864446541     1.007825032230
         H            1.016355262713    -0.655722885049     1.235269553459     1.007825032230
         H           -2.596908737287    -0.906677885049    -0.169776446541     1.007825032230
         H           -1.707222737287    -1.066277885049     1.376469553459     1.007825032230
         H           -2.002181737287     1.378547114951     1.208721553459     1.007825032230
         H            1.417701262713     0.758830114951    -1.419518446541     1.007825032230
         H            2.185793262713    -0.799525885049    -0.989200446541     1.007825032230
         H           -0.643795737287    -3.022359885049    -0.505119446541     1.007825032230
         H           -1.553042737287     2.304826114951    -0.855756446541     1.007825032230
         H            3.492335262713     1.092543114951    -0.423909446541     1.007825032230

  Basis Set: AUG-CC-PVTZ
    Blend: AUG-CC-PVTZ
  Basis Set: (AUG-CC-PVTZ AUX)
    Blend: AUG-CC-PVTZ-JKFIT
	 Reference Energy          =    -494.7800125158247511 [Eh]
	 Singles Energy            =      -0.0000000000000000 [Eh]
	 Same-Spin Energy          =      -0.4827486972405421 [Eh]
	 Opposite-Spin Energy      =      -1.5124806110795008 [Eh]
	 Correlation Energy        =      -1.9952293083200430 [Eh]
	 Total Energy              =    -496.7752418241448140 [Eh]

	 ================> DF-SCS-MP2 Energies <==================
	-----------------------------------------------------------
	 SCS Same-Spin Scale       =       0.3333333333333333 [-]
	 SCS Opposite-Spin Scale   =       1.2000000000000000 [-]
	 SCS Same-Spin Energy      =      -0.1609162324135140 [Eh]
	 SCS Opposite-Spin Energy  =      -1.8149767332954010 [Eh]
	 SCS Correlation Energy    =      -1.9758929657089150 [Eh]
	 SCS Total Energy          =    -496.7559054815336594 [Eh]
	-----------------------------------------------------------

  Dipole Moment: [D]
     X:    -1.2941      Y:    -0.3866      Z:    -1.8072     Total:     2.2561

*** Psi4 exiting successfully. Buy a developer a beer!
