                               Psi4 1.3.2 release

  ==> Input File <==

--------------------------------------------------------------------------
#psi4
#
memory 32 gb

molecule  {
0 1
  O       -0.0768340     1.0301030     0.6945190
  O        0.0027630    -2.4368280    -0.0631460
  O       -1.8013270     1.3609940    -0.8558510
  O        2.7706710     0.8423760     0.1830720
  C       -0.3978190    -1.0935740    -0.3143580
  C        0.6336520    -0.1707830     0.3242940
  C       -1.6511387    -0.6483197     0.3268270
  C       -1.4616990     0.8497080     0.4211840
  C        1.7909010     0.1493410    -0.5832570
  H       -0.4628000    -0.8966240    -1.3943000
  H        1.0128680    -0.6537370     1.2378340
  H       -2.6003960    -0.9046920    -0.1672120
  H       -1.7107100    -1.0642920     1.3790340
  H       -2.0056690     1.3805330     1.2112860
  H        1.4142140     0.7608160    -1.4169540
  H        2.1823060    -0.7975400    -0.9866360
  H       -0.6472830    -3.0203740    -0.5025550
  H       -1.5565300     2.3068120    -0.8531920
  H        3.4888480     1.0945290    -0.4213450
units angstrom
no_reorient  #important for SAPT in psi4, default
symmetry c1  #important for SAPT in psi4, default
}

set PROPERTIES_ORIGIN ["COM"]
properties('MP2/aug-cc-pvtz', properties = ['dipole'])
--------------------------------------------------------------------------

    Molecular point group: c1
  Charge       = 0
  Multiplicity = 1
  Basis Set: AUG-CC-PVTZ
    Blend: AUG-CC-PVTZ
  Basis Set: (AUG-CC-PVTZ AUX)
    Blend: AUG-CC-PVTZ-JKFIT

    Orbital Energies [Eh]
    ---------------------

    Doubly Occupied:

       1A    -20.572630     2A    -20.568835     3A    -20.558244
       4A    -20.558003     5A    -11.337878     6A    -11.286621
       7A    -11.277360     8A    -11.275303     9A    -11.231969
      10A     -1.416117    11A     -1.370616    12A     -1.357009
      13A     -1.335362    14A     -1.070048    15A     -1.024882
      16A     -0.898727    17A     -0.818385    18A     -0.797059
      19A     -0.743717    20A     -0.702412    21A     -0.683697
      22A     -0.676099    23A     -0.642480    24A     -0.627422
      25A     -0.620852    26A     -0.573207    27A     -0.564044
      28A     -0.558700    29A     -0.526660    30A     -0.519407
      31A     -0.504979    32A     -0.484408    33A     -0.461625
      34A     -0.450383    35A     -0.445500    36A     -0.429705

  @DF-RHF Final Energy:  -494.77826496339668

   => Energetics <=

    Nuclear Repulsion Energy =            510.1753555844982202
    One-Electron Energy =               -1691.9665511411601528
    Two-Electron Energy =                 687.0129305932651960
    Total Energy =                       -494.7782649633967367
  Basis Set: (AUG-CC-PVTZ AUX)
    Blend: AUG-CC-PVTZ-RI
    Molecular point group: c1

    Geometry (in Angstrom), charge = 0, multiplicity = 1:

       Center              X                  Y                   Z               Mass
    ------------   -----------------  -----------------  -----------------  -----------------
         O           -0.079776701828     1.030325852970     0.698211604665    15.994914619570
         O           -0.000179701828    -2.436605147030    -0.059453395335    15.994914619570
         O           -1.804269701828     1.361216852970    -0.852158395335    15.994914619570
         O            2.767728298172     0.842598852970     0.186764604665    15.994914619570
         C           -0.400761701828    -1.093351147030    -0.310665395335    12.000000000000
         C            0.630709298172    -0.170560147030     0.327986604665    12.000000000000
         C           -1.654081401828    -0.648096847030     0.330519604665    12.000000000000
         C           -1.464641701828     0.849930852970     0.424876604665    12.000000000000
         C            1.787958298172     0.149563852970    -0.579564395335    12.000000000000
         H           -0.465742701828    -0.896401147030    -1.390607395335     1.007825032230
         H            1.009925298172    -0.653514147030     1.241526604665     1.007825032230
         H           -2.603338701828    -0.904469147030    -0.163519395335     1.007825032230
         H           -1.713652701828    -1.064069147030     1.382726604665     1.007825032230
         H           -2.008611701828     1.380755852970     1.214978604665     1.007825032230
         H            1.411271298172     0.761038852970    -1.413261395335     1.007825032230
         H            2.179363298172    -0.797317147030    -0.982943395335     1.007825032230
         H           -0.650225701828    -3.020151147030    -0.498862395335     1.007825032230
         H           -1.559472701828     2.307034852970    -0.849499395335     1.007825032230
         H            3.485905298172     1.094751852970    -0.417652395335     1.007825032230

  Basis Set: AUG-CC-PVTZ
    Blend: AUG-CC-PVTZ
  Basis Set: (AUG-CC-PVTZ AUX)
    Blend: AUG-CC-PVTZ-JKFIT
	 Reference Energy          =    -494.7782649633966798 [Eh]
	 Singles Energy            =      -0.0000000000000000 [Eh]
	 Same-Spin Energy          =      -0.4832307534641118 [Eh]
	 Opposite-Spin Energy      =      -1.5133532037471573 [Eh]
	 Correlation Energy        =      -1.9965839572112691 [Eh]
	 Total Energy              =    -496.7748489206079512 [Eh]

	 ================> DF-SCS-MP2 Energies <==================
	-----------------------------------------------------------
	 SCS Same-Spin Scale       =       0.3333333333333333 [-]
	 SCS Opposite-Spin Scale   =       1.2000000000000000 [-]
	 SCS Same-Spin Energy      =      -0.1610769178213706 [Eh]
	 SCS Opposite-Spin Energy  =      -1.8160238444965886 [Eh]
	 SCS Correlation Energy    =      -1.9771007623179593 [Eh]
	 SCS Total Energy          =    -496.7553657257146256 [Eh]
	-----------------------------------------------------------

  Dipole Moment: [D]
     X:    -1.1754      Y:    -0.4474      Z:    -1.8599     Total:     2.2452

*** Psi4 exiting successfully. Buy a developer a beer!
