                               Psi4 1.4a3.dev225

  ==> Input File <==

--------------------------------------------------------------------------
#psi4
#
memory 32 gb

molecule  {
0 1
  O        0.0779330    -0.9269250    -0.8850860
  O       -0.5497830     2.4054250     0.0105510
  O       -1.2273040    -1.7124440     0.8968780
  O        2.8355650    -0.3742720    -0.2242840
  C       -0.6080970     1.0161320     0.3256370
  C        0.5731950     0.3283540    -0.3705440
  C       -1.8147930     0.2671960    -0.2390730
  C       -1.2359040    -1.1221150    -0.3954320
  C        1.7465980     0.1105970     0.5541480
  H       -0.5498730     0.8655980     1.4125560
  H        0.8905780     0.9380060    -1.2243810
  H       -2.6584768     0.2865404     0.3733142
  H       -2.0570860     0.6846600    -1.2212740
  H       -1.7431510    -1.7703690    -1.1193200
  H        1.4450650    -0.6065030     1.3308310
  H        1.9882130     1.0713000     1.0354480
  H       -1.2210140     2.8543510     0.5524830
  H       -0.6896120    -2.5214440     0.8182530
  H        3.5785240    -0.5383230     0.3798300
units angstrom
no_reorient  #important for SAPT in psi4, default
symmetry c1  #important for SAPT in psi4, default
}

set PROPERTIES_ORIGIN ["COM"]
properties('MP2/aug-cc-pvtz', properties = ['dipole'])
--------------------------------------------------------------------------

    Molecular point group: c1
  Charge       = 0
  Multiplicity = 1
  Basis Set: AUG-CC-PVTZ
    Blend: AUG-CC-PVTZ
  Basis Set: (AUG-CC-PVTZ AUX)
    Blend: AUG-CC-PVTZ-JKFIT

    Orbital Energies [Eh]
    ---------------------

    Doubly Occupied:

       1A    -20.570777     2A    -20.569533     3A    -20.559146
       4A    -20.558779     5A    -11.336230     6A    -11.289838
       7A    -11.277334     8A    -11.276332     9A    -11.223321
      10A     -1.417534    11A     -1.369496    12A     -1.357710
      13A     -1.335721    14A     -1.062186    15A     -1.026067
      16A     -0.897991    17A     -0.824000    18A     -0.795428
      19A     -0.742185    20A     -0.703590    21A     -0.682838
      22A     -0.677202    23A     -0.645388    24A     -0.631104
      25A     -0.613361    26A     -0.575352    27A     -0.565366
      28A     -0.558147    29A     -0.534301    30A     -0.522623
      31A     -0.508551    32A     -0.483362    33A     -0.465211
      34A     -0.448995    35A     -0.442815    36A     -0.427715

  @DF-RHF Final Energy:  -494.78118430685760

   => Energetics <=

    Nuclear Repulsion Energy =            511.3242347872513278
    One-Electron Energy =               -1694.2597840346647899
    Two-Electron Energy =                 688.1543649405559790
    Total Energy =                       -494.7811843068575399
  Basis Set: (AUG-CC-PVTZ AUX)
    Blend: AUG-CC-PVTZ-RI
    Molecular point group: c1

    Geometry (in Angstrom), charge = 0, multiplicity = 1:

       Center              X                  Y                   Z               Mass
    ------------   -----------------  -----------------  -----------------  -----------------
         O            0.069846976743    -0.917580611464    -0.867353633577    15.994914619570
         O           -0.557869023257     2.414769388536     0.028283366423    15.994914619570
         O           -1.235390023257    -1.703099611464     0.914610366423    15.994914619570
         O            2.827478976743    -0.364927611464    -0.206551633577    15.994914619570
         C           -0.616183023257     1.025476388536     0.343369366423    12.000000000000
         C            0.565108976743     0.337698388536    -0.352811633577    12.000000000000
         C           -1.822879023257     0.276540388536    -0.221340633577    12.000000000000
         C           -1.243990023257    -1.112770611464    -0.377699633577    12.000000000000
         C            1.738511976743     0.119941388536     0.571880366423    12.000000000000
         H           -0.557959023257     0.874942388536     1.430288366423     1.007825032230
         H            0.882491976743     0.947350388536    -1.206648633577     1.007825032230
         H           -2.666562823257     0.295884788536     0.391046566423     1.007825032230
         H           -2.065172023257     0.694004388536    -1.203541633577     1.007825032230
         H           -1.751237023257    -1.761024611464    -1.101587633577     1.007825032230
         H            1.436978976743    -0.597158611464     1.348563366423     1.007825032230
         H            1.980126976743     1.080644388536     1.053180366423     1.007825032230
         H           -1.229100023257     2.863695388536     0.570215366423     1.007825032230
         H           -0.697698023257    -2.512099611464     0.835985366423     1.007825032230
         H            3.570437976743    -0.528978611464     0.397562366423     1.007825032230

  Basis Set: AUG-CC-PVTZ
    Blend: AUG-CC-PVTZ
  Basis Set: (AUG-CC-PVTZ AUX)
    Blend: AUG-CC-PVTZ-JKFIT
	 Reference Energy          =    -494.7811843068575968 [Eh]
	 Singles Energy            =      -0.0000000000000000 [Eh]
	 Same-Spin Energy          =      -0.4828240094555937 [Eh]
	 Opposite-Spin Energy      =      -1.5129099712688783 [Eh]
	 Correlation Energy        =      -1.9957339807244718 [Eh]
	 Total Energy              =    -496.7769182875820775 [Eh]

	 ================> DF-SCS-MP2 Energies <==================
	-----------------------------------------------------------
	 SCS Same-Spin Scale       =       0.3333333333333333 [-]
	 SCS Opposite-Spin Scale   =       1.2000000000000000 [-]
	 SCS Same-Spin Energy      =      -0.1609413364851979 [Eh]
	 SCS Opposite-Spin Energy  =      -1.8154919655226538 [Eh]
	 SCS Correlation Energy    =      -1.9764333020078517 [Eh]
	 SCS Total Energy          =    -496.7576176088654734 [Eh]
	-----------------------------------------------------------

  Dipole Moment: [D]
     X:    -1.0345      Y:     0.1542      Z:     2.2620     Total:     2.4921

*** Psi4 exiting successfully. Buy a developer a beer!
