                               Psi4 1.3.2 release

  ==> Input File <==

--------------------------------------------------------------------------
#psi4
#
memory 32 gb

molecule  {
0 1
  O       -0.0768340     1.0301030     0.6945190
  O        0.0027630    -2.4368280    -0.0631460
  O       -1.8013270     1.3609940    -0.8558510
  O        2.7706710     0.8423760     0.1830720
  C       -0.4148656    -1.1438530    -0.3114267
  C        0.6336520    -0.1707830     0.3242940
  C       -1.6840130    -0.6458300     0.3680790
  C       -1.4616990     0.8497080     0.4211840
  C        1.7909010     0.1493410    -0.5832570
  H       -0.4628000    -0.8966240    -1.3943000
  H        1.0128680    -0.6537370     1.2378340
  H       -2.6003960    -0.9046920    -0.1672120
  H       -1.7107100    -1.0642920     1.3790340
  H       -2.0056690     1.3805330     1.2112860
  H        1.4142140     0.7608160    -1.4169540
  H        2.1823060    -0.7975400    -0.9866360
  H       -0.6472830    -3.0203740    -0.5025550
  H       -1.5565300     2.3068120    -0.8531920
  H        3.4888480     1.0945290    -0.4213450
units angstrom
no_reorient  #important for SAPT in psi4, default
symmetry c1  #important for SAPT in psi4, default
}

set PROPERTIES_ORIGIN ["COM"]
properties('MP2/aug-cc-pvtz', properties = ['dipole'])
--------------------------------------------------------------------------

    Molecular point group: c1
  Charge       = 0
  Multiplicity = 1
  Basis Set: AUG-CC-PVTZ
    Blend: AUG-CC-PVTZ
  Basis Set: (AUG-CC-PVTZ AUX)
    Blend: AUG-CC-PVTZ-JKFIT

    Orbital Energies [Eh]
    ---------------------

    Doubly Occupied:

       1A    -20.578068     2A    -20.568339     3A    -20.557430
       4A    -20.557033     5A    -11.336935     6A    -11.289602
       7A    -11.276498     8A    -11.274097     9A    -11.229287
      10A     -1.414114    11A     -1.387894    12A     -1.356199
      13A     -1.333935    14A     -1.058452    15A     -1.021544
      16A     -0.895790    17A     -0.820750    18A     -0.792750
      19A     -0.744864    20A     -0.700685    21A     -0.688228
      22A     -0.673217    23A     -0.641467    24A     -0.627651
      25A     -0.622831    26A     -0.573905    27A     -0.568719
      28A     -0.562667    29A     -0.539135    30A     -0.517734
      31A     -0.502221    32A     -0.482605    33A     -0.453874
      34A     -0.446053    35A     -0.439482    36A     -0.427293

  @DF-RHF Final Energy:  -494.77939794429096

   => Energetics <=

    Nuclear Repulsion Energy =            508.9240467351145298
    One-Electron Energy =               -1689.4841974493067482
    Two-Electron Energy =                 685.7807527699013690
    Total Energy =                       -494.7793979442909631
  Basis Set: (AUG-CC-PVTZ AUX)
    Blend: AUG-CC-PVTZ-RI
    Molecular point group: c1

    Geometry (in Angstrom), charge = 0, multiplicity = 1:

       Center              X                  Y                   Z               Mass
    ------------   -----------------  -----------------  -----------------  -----------------
         O           -0.075308104597     1.034603643107     0.694256600408    15.994914619570
         O            0.004288895403    -2.432327356893    -0.063408399592    15.994914619570
         O           -1.799801104597     1.365494643107    -0.856113399592    15.994914619570
         O            2.772196895403     0.846876643107     0.182809600408    15.994914619570
         C           -0.413339704597    -1.139352356893    -0.311689099592    12.000000000000
         C            0.635177895403    -0.166282356893     0.324031600408    12.000000000000
         C           -1.682487104597    -0.641329356893     0.367816600408    12.000000000000
         C           -1.460173104597     0.854208643107     0.420921600408    12.000000000000
         C            1.792426895403     0.153841643107    -0.583519399592    12.000000000000
         H           -0.461274104597    -0.892123356893    -1.394562399592     1.007825032230
         H            1.014393895403    -0.649236356893     1.237571600408     1.007825032230
         H           -2.598870104597    -0.900191356893    -0.167474399592     1.007825032230
         H           -1.709184104597    -1.059791356893     1.378771600408     1.007825032230
         H           -2.004143104597     1.385033643107     1.211023600408     1.007825032230
         H            1.415739895403     0.765316643107    -1.417216399592     1.007825032230
         H            2.183831895403    -0.793039356893    -0.986898399592     1.007825032230
         H           -0.645757104597    -3.015873356893    -0.502817399592     1.007825032230
         H           -1.555004104597     2.311312643107    -0.853454399592     1.007825032230
         H            3.490373895403     1.099029643107    -0.421607399592     1.007825032230

  Basis Set: AUG-CC-PVTZ
    Blend: AUG-CC-PVTZ
  Basis Set: (AUG-CC-PVTZ AUX)
    Blend: AUG-CC-PVTZ-JKFIT
	 Reference Energy          =    -494.7793979442909631 [Eh]
	 Singles Energy            =      -0.0000000000000000 [Eh]
	 Same-Spin Energy          =      -0.4828344109390815 [Eh]
	 Opposite-Spin Energy      =      -1.5126422533225785 [Eh]
	 Correlation Energy        =      -1.9954766642616599 [Eh]
	 Total Energy              =    -496.7748746085526363 [Eh]

	 ================> DF-SCS-MP2 Energies <==================
	-----------------------------------------------------------
	 SCS Same-Spin Scale       =       0.3333333333333333 [-]
	 SCS Opposite-Spin Scale   =       1.2000000000000000 [-]
	 SCS Same-Spin Energy      =      -0.1609448036463605 [Eh]
	 SCS Opposite-Spin Energy  =      -1.8151707039870941 [Eh]
	 SCS Correlation Energy    =      -1.9761155076334547 [Eh]
	 SCS Total Energy          =    -496.7555134519244007 [Eh]
	-----------------------------------------------------------

  Dipole Moment: [D]
     X:    -1.1531      Y:    -0.6566      Z:    -1.8501     Total:     2.2767

*** Psi4 exiting successfully. Buy a developer a beer!
