                               Psi4 1.3.2 release

  ==> Input File <==

--------------------------------------------------------------------------
#psi4
#
memory 32 gb

molecule  {
0 1
  O       -0.0768340     1.0301030     0.6945190
  O        0.0027630    -2.4368280    -0.0631460
  O       -1.8013270     1.3609940    -0.8558510
  O        2.7706710     0.8423760     0.1830720
  C       -0.3978190    -1.0935740    -0.3143580
  C        0.6336520    -0.1707830     0.3242940
  C       -1.6676072    -0.6473028     0.3474418
  C       -1.4616990     0.8497080     0.4211840
  C        1.7909010     0.1493410    -0.5832570
  H       -0.4628000    -0.8966240    -1.3943000
  H        1.0128680    -0.6537370     1.2378340
  H       -2.6003960    -0.9046920    -0.1672120
  H       -1.7107100    -1.0642920     1.3790340
  H       -2.0056690     1.3805330     1.2112860
  H        1.4142140     0.7608160    -1.4169540
  H        2.1823060    -0.7975400    -0.9866360
  H       -0.6472830    -3.0203740    -0.5025550
  H       -1.5565300     2.3068120    -0.8531920
  H        3.4888480     1.0945290    -0.4213450
units angstrom
no_reorient  #important for SAPT in psi4, default
symmetry c1  #important for SAPT in psi4, default
}

set PROPERTIES_ORIGIN ["COM"]
properties('MP2/aug-cc-pvtz', properties = ['dipole'])
--------------------------------------------------------------------------

    Molecular point group: c1
  Charge       = 0
  Multiplicity = 1
  Basis Set: AUG-CC-PVTZ
    Blend: AUG-CC-PVTZ
  Basis Set: (AUG-CC-PVTZ AUX)
    Blend: AUG-CC-PVTZ-JKFIT

    Orbital Energies [Eh]
    ---------------------

    Doubly Occupied:

       1A    -20.572440     2A    -20.568973     3A    -20.558270
       4A    -20.557973     5A    -11.337487     6A    -11.287723
       7A    -11.277153     8A    -11.275250     9A    -11.231071
      10A     -1.415641    11A     -1.370217    12A     -1.356952
      13A     -1.335212    14A     -1.066545    15A     -1.025040
      16A     -0.898056    17A     -0.819811    18A     -0.795630
      19A     -0.743781    20A     -0.701781    21A     -0.683153
      22A     -0.675398    23A     -0.642386    24A     -0.627941
      25A     -0.618818    26A     -0.573290    27A     -0.564482
      28A     -0.557421    29A     -0.531418    30A     -0.519850
      31A     -0.505664    32A     -0.484535    33A     -0.462192
      34A     -0.448508    35A     -0.444104    36A     -0.429699

  @DF-RHF Final Energy:  -494.78072046723861

   => Energetics <=

    Nuclear Repulsion Energy =            509.7615934402719517
    One-Electron Energy =               -1691.1568912962006834
    Two-Electron Energy =                 686.6145773886900088
    Total Energy =                       -494.7807204672386661
  Basis Set: (AUG-CC-PVTZ AUX)
    Blend: AUG-CC-PVTZ-RI
    Molecular point group: c1

    Geometry (in Angstrom), charge = 0, multiplicity = 1:

       Center              X                  Y                   Z               Mass
    ------------   -----------------  -----------------  -----------------  -----------------
         O           -0.078302547847     1.030234826636     0.696366300630    15.994914619570
         O            0.001294452153    -2.436696173364    -0.061298699370    15.994914619570
         O           -1.802795547847     1.361125826636    -0.854003699370    15.994914619570
         O            2.769202452153     0.842507826636     0.184919300630    15.994914619570
         C           -0.399287547847    -1.093442173364    -0.312510699370    12.000000000000
         C            0.632183452153    -0.170651173364     0.326141300630    12.000000000000
         C           -1.669075747847    -0.647170973364     0.349289100630    12.000000000000
         C           -1.463167547847     0.849839826636     0.423031300630    12.000000000000
         C            1.789432452153     0.149472826636    -0.581409699370    12.000000000000
         H           -0.464268547847    -0.896492173364    -1.392452699370     1.007825032230
         H            1.011399452153    -0.653605173364     1.239681300630     1.007825032230
         H           -2.601864547847    -0.904560173364    -0.165364699370     1.007825032230
         H           -1.712178547847    -1.064160173364     1.380881300630     1.007825032230
         H           -2.007137547847     1.380664826636     1.213133300630     1.007825032230
         H            1.412745452153     0.760947826636    -1.415106699370     1.007825032230
         H            2.180837452153    -0.797408173364    -0.984788699370     1.007825032230
         H           -0.648751547847    -3.020242173364    -0.500707699370     1.007825032230
         H           -1.557998547847     2.306943826636    -0.851344699370     1.007825032230
         H            3.487379452153     1.094660826636    -0.419497699370     1.007825032230

  Basis Set: AUG-CC-PVTZ
    Blend: AUG-CC-PVTZ
  Basis Set: (AUG-CC-PVTZ AUX)
    Blend: AUG-CC-PVTZ-JKFIT
	 Reference Energy          =    -494.7807204672386092 [Eh]
	 Singles Energy            =      -0.0000000000000000 [Eh]
	 Same-Spin Energy          =      -0.4830168353017589 [Eh]
	 Opposite-Spin Energy      =      -1.5131220765748905 [Eh]
	 Correlation Energy        =      -1.9961389118766495 [Eh]
	 Total Energy              =    -496.7768593791152512 [Eh]

	 ================> DF-SCS-MP2 Energies <==================
	-----------------------------------------------------------
	 SCS Same-Spin Scale       =       0.3333333333333333 [-]
	 SCS Opposite-Spin Scale   =       1.2000000000000000 [-]
	 SCS Same-Spin Energy      =      -0.1610056117672529 [Eh]
	 SCS Opposite-Spin Energy  =      -1.8157464918898685 [Eh]
	 SCS Correlation Energy    =      -1.9767521036571214 [Eh]
	 SCS Total Energy          =    -496.7574725708957430 [Eh]
	-----------------------------------------------------------

  Dipole Moment: [D]
     X:    -1.1693      Y:    -0.4656      Z:    -1.8604     Total:     2.2462

*** Psi4 exiting successfully. Buy a developer a beer!
