                               Psi4 1.3.2 release

  ==> Input File <==

--------------------------------------------------------------------------
#psi4
#
memory 32 gb

molecule  {
0 1
  O       -0.0768340     1.0301030     0.6945190
  O        0.0027630    -2.4368280    -0.0631460
  O       -1.8013270     1.3609940    -0.8558510
  O        2.7706710     0.8423760     0.1830720
  C       -0.3441891    -1.0503312    -0.2333698
  C        0.6336520    -0.1707830     0.3242940
  C       -1.6840130    -0.6458300     0.3680790
  C       -1.4616990     0.8497080     0.4211840
  C        1.7909010     0.1493410    -0.5832570
  H       -0.4628000    -0.8966240    -1.3943000
  H        1.0128680    -0.6537370     1.2378340
  H       -2.6003960    -0.9046920    -0.1672120
  H       -1.7107100    -1.0642920     1.3790340
  H       -2.0056690     1.3805330     1.2112860
  H        1.4142140     0.7608160    -1.4169540
  H        2.1823060    -0.7975400    -0.9866360
  H       -0.6472830    -3.0203740    -0.5025550
  H       -1.5565300     2.3068120    -0.8531920
  H        3.4888480     1.0945290    -0.4213450
units angstrom
no_reorient  #important for SAPT in psi4, default
symmetry c1  #important for SAPT in psi4, default
}

set PROPERTIES_ORIGIN ["COM"]
properties('MP2/aug-cc-pvtz', properties = ['dipole'])
--------------------------------------------------------------------------

    Molecular point group: c1
  Charge       = 0
  Multiplicity = 1
  Basis Set: AUG-CC-PVTZ
    Blend: AUG-CC-PVTZ
  Basis Set: (AUG-CC-PVTZ AUX)
    Blend: AUG-CC-PVTZ-JKFIT

    Orbital Energies [Eh]
    ---------------------

    Doubly Occupied:

       1A    -20.569124     2A    -20.568321     3A    -20.560988
       4A    -20.559468     5A    -11.337833     6A    -11.292669
       7A    -11.277748     8A    -11.275204     9A    -11.231979
      10A     -1.418421    11A     -1.363500    12A     -1.357424
      13A     -1.336991    14A     -1.074481    15A     -1.032148
      16A     -0.902543    17A     -0.825183    18A     -0.791765
      19A     -0.745410    20A     -0.705023    21A     -0.682787
      22A     -0.672254    23A     -0.642185    24A     -0.630768
      25A     -0.614424    26A     -0.574788    27A     -0.566039
      28A     -0.551587    29A     -0.539490    30A     -0.520822
      31A     -0.511493    32A     -0.481624    33A     -0.471549
      34A     -0.448941    35A     -0.441194    36A     -0.421168

  @DF-RHF Final Energy:  -494.76815459748468

   => Energetics <=

    Nuclear Repulsion Energy =            510.6737848548069110
    One-Electron Energy =               -1692.8892110678896188
    Two-Electron Energy =                 687.4472716155980834
    Total Energy =                       -494.7681545974846813
  Basis Set: (AUG-CC-PVTZ AUX)
    Blend: AUG-CC-PVTZ-RI
    Molecular point group: c1

    Geometry (in Angstrom), charge = 0, multiplicity = 1:

       Center              X                  Y                   Z               Mass
    ------------   -----------------  -----------------  -----------------  -----------------
         O           -0.081634609371     1.026232174314     0.687269449792    15.994914619570
         O           -0.002037609371    -2.440698825686    -0.070395550208    15.994914619570
         O           -1.806127609371     1.357123174314    -0.863100550208    15.994914619570
         O            2.765870390629     0.838505174314     0.175822449792    15.994914619570
         C           -0.348989709371    -1.054202025686    -0.240619350208    12.000000000000
         C            0.628851390629    -0.174653825686     0.317044449792    12.000000000000
         C           -1.688813609371    -0.649700825686     0.360829449792    12.000000000000
         C           -1.466499609371     0.845837174314     0.413934449792    12.000000000000
         C            1.786100390629     0.145470174314    -0.590506550208    12.000000000000
         H           -0.467600609371    -0.900494825686    -1.401549550208     1.007825032230
         H            1.008067390629    -0.657607825686     1.230584449792     1.007825032230
         H           -2.605196609371    -0.908562825686    -0.174461550208     1.007825032230
         H           -1.715510609371    -1.068162825686     1.371784449792     1.007825032230
         H           -2.010469609371     1.376662174314     1.204036449792     1.007825032230
         H            1.409413390629     0.756945174314    -1.424203550208     1.007825032230
         H            2.177505390629    -0.801410825686    -0.993885550208     1.007825032230
         H           -0.652083609371    -3.024244825686    -0.509804550208     1.007825032230
         H           -1.561330609371     2.302941174314    -0.860441550208     1.007825032230
         H            3.484047390629     1.090658174314    -0.428594550208     1.007825032230

  Basis Set: AUG-CC-PVTZ
    Blend: AUG-CC-PVTZ
  Basis Set: (AUG-CC-PVTZ AUX)
    Blend: AUG-CC-PVTZ-JKFIT
	 Reference Energy          =    -494.7681545974846813 [Eh]
	 Singles Energy            =      -0.0000000000000000 [Eh]
	 Same-Spin Energy          =      -0.4836434218216564 [Eh]
	 Opposite-Spin Energy      =      -1.5139378279423708 [Eh]
	 Correlation Energy        =      -1.9975812497640271 [Eh]
	 Total Energy              =    -496.7657358472487203 [Eh]

	 ================> DF-SCS-MP2 Energies <==================
	-----------------------------------------------------------
	 SCS Same-Spin Scale       =       0.3333333333333333 [-]
	 SCS Opposite-Spin Scale   =       1.2000000000000000 [-]
	 SCS Same-Spin Energy      =      -0.1612144739405521 [Eh]
	 SCS Opposite-Spin Energy  =      -1.8167253935308447 [Eh]
	 SCS Correlation Energy    =      -1.9779398674713968 [Eh]
	 SCS Total Energy          =    -496.7460944649560588 [Eh]
	-----------------------------------------------------------

  Dipole Moment: [D]
     X:    -1.1314      Y:    -0.3700      Z:    -1.7669     Total:     2.1304

*** Psi4 exiting successfully. Buy a developer a beer!
