                               Psi4 1.3.2 release

  ==> Input File <==

--------------------------------------------------------------------------
#psi4
#
memory 32 gb

molecule  {
0 1
  O       -0.0768340     1.0301030     0.6945190
  O        0.0027630    -2.4368280    -0.0631460
  O       -1.8013270     1.3609940    -0.8558510
  O        2.7706710     0.8423760     0.1830720
  C       -0.3978190    -1.0935740    -0.3143580
  C        0.6336520    -0.1707830     0.3242940
  C       -1.6840130    -0.6458300     0.3680790
  C       -1.4616990     0.8497080     0.4211840
  C        1.7909010     0.1493410    -0.5832570
  H       -0.4628000    -0.8966240    -1.3943000
  H        1.0128680    -0.6537370     1.2378340
  H       -2.5939494    -0.8952550    -0.1824723
  H       -1.7107100    -1.0642920     1.3790340
  H       -2.0056690     1.3805330     1.2112860
  H        1.4142140     0.7608160    -1.4169540
  H        2.1823060    -0.7975400    -0.9866360
  H       -0.6472830    -3.0203740    -0.5025550
  H       -1.5565300     2.3068120    -0.8531920
  H        3.4888480     1.0945290    -0.4213450
units angstrom
no_reorient  #important for SAPT in psi4, default
symmetry c1  #important for SAPT in psi4, default
}

set PROPERTIES_ORIGIN ["COM"]
properties('MP2/aug-cc-pvtz', properties = ['dipole'])
--------------------------------------------------------------------------

    Molecular point group: c1
  Charge       = 0
  Multiplicity = 1
  Basis Set: AUG-CC-PVTZ
    Blend: AUG-CC-PVTZ
  Basis Set: (AUG-CC-PVTZ AUX)
    Blend: AUG-CC-PVTZ-JKFIT

    Orbital Energies [Eh]
    ---------------------

    Doubly Occupied:

       1A    -20.572283     2A    -20.569208     3A    -20.558209
       4A    -20.557915     5A    -11.337074     6A    -11.288669
       7A    -11.276881     8A    -11.275166     9A    -11.230317
      10A     -1.415199    11A     -1.369851    12A     -1.356881
      13A     -1.335089    14A     -1.063406    15A     -1.025218
      16A     -0.897413    17A     -0.820963    18A     -0.794308
      19A     -0.743923    20A     -0.701229    21A     -0.682688
      22A     -0.674527    23A     -0.642364    24A     -0.628207
      25A     -0.616863    26A     -0.573624    27A     -0.565737
      28A     -0.556315    29A     -0.536891    30A     -0.519801
      31A     -0.505790    32A     -0.484281    33A     -0.462692
      34A     -0.447502    35A     -0.441422    36A     -0.429555

  @DF-RHF Final Energy:  -494.78164838374209

   => Energetics <=

    Nuclear Repulsion Energy =            509.3797021777941723
    One-Electron Energy =               -1690.4077779316837677
    Two-Electron Energy =                 686.2464273701475577
    Total Energy =                       -494.7816483837420947
  Basis Set: (AUG-CC-PVTZ AUX)
    Blend: AUG-CC-PVTZ-RI
    Molecular point group: c1

    Geometry (in Angstrom), charge = 0, multiplicity = 1:

       Center              X                  Y                   Z               Mass
    ------------   -----------------  -----------------  -----------------  -----------------
         O           -0.076882470830     1.030032045278     0.694633715886    15.994914619570
         O            0.002714529170    -2.436898954722    -0.063031284114    15.994914619570
         O           -1.801375470830     1.360923045278    -0.855736284114    15.994914619570
         O            2.770622529170     0.842305045278     0.183186715886    15.994914619570
         C           -0.397867470830    -1.093644954722    -0.314243284114    12.000000000000
         C            0.633603529170    -0.170853954722     0.324408715886    12.000000000000
         C           -1.684061470830    -0.645900954722     0.368193715886    12.000000000000
         C           -1.461747470830     0.849637045278     0.421298715886    12.000000000000
         C            1.790852529170     0.149270045278    -0.583142284114    12.000000000000
         H           -0.462848470830    -0.896694954722    -1.394185284114     1.007825032230
         H            1.012819529170    -0.653807954722     1.237948715886     1.007825032230
         H           -2.593997870830    -0.895325954722    -0.182357584114     1.007825032230
         H           -1.710758470830    -1.064362954722     1.379148715886     1.007825032230
         H           -2.005717470830     1.380462045278     1.211400715886     1.007825032230
         H            1.414165529170     0.760745045278    -1.416839284114     1.007825032230
         H            2.182257529170    -0.797610954722    -0.986521284114     1.007825032230
         H           -0.647331470830    -3.020444954722    -0.502440284114     1.007825032230
         H           -1.556578470830     2.306741045278    -0.853077284114     1.007825032230
         H            3.488799529170     1.094458045278    -0.421230284114     1.007825032230

  Basis Set: AUG-CC-PVTZ
    Blend: AUG-CC-PVTZ
  Basis Set: (AUG-CC-PVTZ AUX)
    Blend: AUG-CC-PVTZ-JKFIT
	 Reference Energy          =    -494.7816483837420947 [Eh]
	 Singles Energy            =      -0.0000000000000000 [Eh]
	 Same-Spin Energy          =      -0.4828782859395295 [Eh]
	 Opposite-Spin Energy      =      -1.5130252115252052 [Eh]
	 Correlation Energy        =      -1.9959034974647347 [Eh]
	 Total Energy              =    -496.7775518812068185 [Eh]

	 ================> DF-SCS-MP2 Energies <==================
	-----------------------------------------------------------
	 SCS Same-Spin Scale       =       0.3333333333333333 [-]
	 SCS Opposite-Spin Scale   =       1.2000000000000000 [-]
	 SCS Same-Spin Energy      =      -0.1609594286465098 [Eh]
	 SCS Opposite-Spin Energy  =      -1.8156302538302462 [Eh]
	 SCS Correlation Energy    =      -1.9765896824767561 [Eh]
	 SCS Total Energy          =    -496.7582380662188370 [Eh]
	-----------------------------------------------------------

  Dipole Moment: [D]
     X:    -1.1601      Y:    -0.4794      Z:    -1.8664     Total:     2.2493

*** Psi4 exiting successfully. Buy a developer a beer!
