                               Psi4 1.3.2 release

  ==> Input File <==

--------------------------------------------------------------------------
#psi4
#
memory 32 gb

molecule  {
0 1
  O       -0.0768340     1.0301030     0.6945190
  O        0.0423720    -2.4295447    -0.0922797
  O       -1.8013270     1.3609940    -0.8558510
  O        2.7706710     0.8423760     0.1830720
  C       -0.3978190    -1.0935740    -0.3143580
  C        0.6336520    -0.1707830     0.3242940
  C       -1.6840130    -0.6458300     0.3680790
  C       -1.4616990     0.8497080     0.4211840
  C        1.7909010     0.1493410    -0.5832570
  H       -0.4628000    -0.8966240    -1.3943000
  H        1.0128680    -0.6537370     1.2378340
  H       -2.6003960    -0.9046920    -0.1672120
  H       -1.7107100    -1.0642920     1.3790340
  H       -2.0056690     1.3805330     1.2112860
  H        1.4142140     0.7608160    -1.4169540
  H        2.1823060    -0.7975400    -0.9866360
  H       -0.6472830    -3.0203740    -0.5025550
  H       -1.5565300     2.3068120    -0.8531920
  H        3.4888480     1.0945290    -0.4213450
units angstrom
no_reorient  #important for SAPT in psi4, default
symmetry c1  #important for SAPT in psi4, default
}

set PROPERTIES_ORIGIN ["COM"]
properties('MP2/aug-cc-pvtz', properties = ['dipole'])
--------------------------------------------------------------------------

    Molecular point group: c1
  Charge       = 0
  Multiplicity = 1
  Basis Set: AUG-CC-PVTZ
    Blend: AUG-CC-PVTZ
  Basis Set: (AUG-CC-PVTZ AUX)
    Blend: AUG-CC-PVTZ-JKFIT

    Orbital Energies [Eh]
    ---------------------

    Doubly Occupied:

       1A    -20.574645     2A    -20.569343     3A    -20.558122
       4A    -20.557492     5A    -11.337912     6A    -11.288366
       7A    -11.276386     8A    -11.274567     9A    -11.231772
      10A     -1.415222    11A     -1.367256    12A     -1.356353
      13A     -1.334977    14A     -1.062968    15A     -1.025090
      16A     -0.896747    17A     -0.821156    18A     -0.794209
      19A     -0.742627    20A     -0.700679    21A     -0.679539
      22A     -0.673954    23A     -0.641383    24A     -0.628594
      25A     -0.618485    26A     -0.573701    27A     -0.565246
      28A     -0.556592    29A     -0.535924    30A     -0.520090
      31A     -0.505909    32A     -0.483647    33A     -0.461766
      34A     -0.447080    35A     -0.442611    36A     -0.429399

  @DF-RHF Final Energy:  -494.77948579129935

   => Energetics <=

    Nuclear Repulsion Energy =            509.3337150473735733
    One-Electron Energy =               -1690.3267807343504501
    Two-Electron Energy =                 686.2135798956775261
    Total Energy =                       -494.7794857912994075
  Basis Set: (AUG-CC-PVTZ AUX)
    Blend: AUG-CC-PVTZ-RI
    Molecular point group: c1

    Geometry (in Angstrom), charge = 0, multiplicity = 1:

       Center              X                  Y                   Z               Mass
    ------------   -----------------  -----------------  -----------------  -----------------
         O           -0.081559893699     1.029233995258     0.697995034407    15.994914619570
         O            0.037646106301    -2.430413704742    -0.088803665593    15.994914619570
         O           -1.806052893699     1.360124995258    -0.852374965593    15.994914619570
         O            2.765945106301     0.841506995258     0.186548034407    15.994914619570
         C           -0.402544893699    -1.094443004742    -0.310881965593    12.000000000000
         C            0.628926106301    -0.171652004742     0.327770034407    12.000000000000
         C           -1.688738893699    -0.646699004742     0.371555034407    12.000000000000
         C           -1.466424893699     0.848838995258     0.424660034407    12.000000000000
         C            1.786175106301     0.148471995258    -0.579780965593    12.000000000000
         H           -0.467525893699    -0.897493004742    -1.390823965593     1.007825032230
         H            1.008142106301    -0.654606004742     1.241310034407     1.007825032230
         H           -2.605121893699    -0.905561004742    -0.163735965593     1.007825032230
         H           -1.715435893699    -1.065161004742     1.382510034407     1.007825032230
         H           -2.010394893699     1.379663995258     1.214762034407     1.007825032230
         H            1.409488106301     0.759946995258    -1.413477965593     1.007825032230
         H            2.177580106301    -0.798409004742    -0.983159965593     1.007825032230
         H           -0.652008893699    -3.021243004742    -0.499078965593     1.007825032230
         H           -1.561255893699     2.305942995258    -0.849715965593     1.007825032230
         H            3.484122106301     1.093659995258    -0.417868965593     1.007825032230

  Basis Set: AUG-CC-PVTZ
    Blend: AUG-CC-PVTZ
  Basis Set: (AUG-CC-PVTZ AUX)
    Blend: AUG-CC-PVTZ-JKFIT
	 Reference Energy          =    -494.7794857912993507 [Eh]
	 Singles Energy            =      -0.0000000000000000 [Eh]
	 Same-Spin Energy          =      -0.4831461479124081 [Eh]
	 Opposite-Spin Energy      =      -1.5137132000494806 [Eh]
	 Correlation Energy        =      -1.9968593479618888 [Eh]
	 Total Energy              =    -496.7763451392612524 [Eh]

	 ================> DF-SCS-MP2 Energies <==================
	-----------------------------------------------------------
	 SCS Same-Spin Scale       =       0.3333333333333333 [-]
	 SCS Opposite-Spin Scale   =       1.2000000000000000 [-]
	 SCS Same-Spin Energy      =      -0.1610487159708027 [Eh]
	 SCS Opposite-Spin Energy  =      -1.8164558400593767 [Eh]
	 SCS Correlation Energy    =      -1.9775045560301794 [Eh]
	 SCS Total Energy          =    -496.7569903473295199 [Eh]
	-----------------------------------------------------------

  Dipole Moment: [D]
     X:    -1.2412      Y:    -0.4941      Z:    -1.7880     Total:     2.2320

*** Psi4 exiting successfully. Buy a developer a beer!
