                               Psi4 1.3.2 release

  ==> Input File <==

--------------------------------------------------------------------------
#psi4
#
memory 32 gb

molecule  {
0 1
  O       -0.0768340     1.0301030     0.6945190
  O        0.0027630    -2.4368280    -0.0631460
  O       -1.8013270     1.3609940    -0.8558510
  O        2.7706710     0.8423760     0.1830720
  C       -0.3978190    -1.0935740    -0.3143580
  C        0.6336520    -0.1707830     0.3242940
  C       -1.7489094    -0.6353896     0.4507267
  C       -1.4616990     0.8497080     0.4211840
  C        1.7909010     0.1493410    -0.5832570
  H       -0.4628000    -0.8966240    -1.3943000
  H        1.0128680    -0.6537370     1.2378340
  H       -2.6003960    -0.9046920    -0.1672120
  H       -1.7107100    -1.0642920     1.3790340
  H       -2.0056690     1.3805330     1.2112860
  H        1.4142140     0.7608160    -1.4169540
  H        2.1823060    -0.7975400    -0.9866360
  H       -0.6472830    -3.0203740    -0.5025550
  H       -1.5565300     2.3068120    -0.8531920
  H        3.4888480     1.0945290    -0.4213450
units angstrom
no_reorient  #important for SAPT in psi4, default
symmetry c1  #important for SAPT in psi4, default
}

set PROPERTIES_ORIGIN ["COM"]
properties('MP2/aug-cc-pvtz', properties = ['dipole'])
--------------------------------------------------------------------------

    Molecular point group: c1
  Charge       = 0
  Multiplicity = 1
  Basis Set: AUG-CC-PVTZ
    Blend: AUG-CC-PVTZ
  Basis Set: (AUG-CC-PVTZ AUX)
    Blend: AUG-CC-PVTZ-JKFIT

    Orbital Energies [Eh]
    ---------------------

    Doubly Occupied:

       1A    -20.572083     2A    -20.570073     3A    -20.558565
       4A    -20.557943     5A    -11.336870     6A    -11.292846
       7A    -11.276527     8A    -11.275157     9A    -11.229045
      10A     -1.413877    11A     -1.368779    12A     -1.356836
      13A     -1.334838    14A     -1.052921    15A     -1.026208
      16A     -0.895514    17A     -0.827328    18A     -0.790063
      19A     -0.744846    20A     -0.699329    21A     -0.681669
      22A     -0.671516    23A     -0.642352    24A     -0.631181
      25A     -0.610374    26A     -0.580251    27A     -0.569970
      28A     -0.554703    29A     -0.546844    30A     -0.519145
      31A     -0.507776    32A     -0.483183    33A     -0.463753
      34A     -0.446745    35A     -0.432098    36A     -0.421901

  @DF-RHF Final Energy:  -494.77190563603176

   => Energetics <=

    Nuclear Repulsion Energy =            507.7708100665181519
    One-Electron Energy =               -1687.1992131791500924
    Two-Electron Energy =                 684.6564974766001797
    Total Energy =                       -494.7719056360317609
  Basis Set: (AUG-CC-PVTZ AUX)
    Blend: AUG-CC-PVTZ-RI
    Molecular point group: c1

    Geometry (in Angstrom), charge = 0, multiplicity = 1:

       Center              X                  Y                   Z               Mass
    ------------   -----------------  -----------------  -----------------  -----------------
         O           -0.071024898891     1.029168433752     0.687120902048    15.994914619570
         O            0.008572101109    -2.437762566248    -0.070544097952    15.994914619570
         O           -1.795517898891     1.360059433752    -0.863249097952    15.994914619570
         O            2.776480101109     0.841441433752     0.175673902048    15.994914619570
         C           -0.392009898891    -1.094508566248    -0.321756097952    12.000000000000
         C            0.639461101109    -0.171717566248     0.316895902048    12.000000000000
         C           -1.743100298891    -0.636324166248     0.443328602048    12.000000000000
         C           -1.455889898891     0.848773433752     0.413785902048    12.000000000000
         C            1.796710101109     0.148406433752    -0.590655097952    12.000000000000
         H           -0.456990898891    -0.897558566248    -1.401698097952     1.007825032230
         H            1.018677101109    -0.654671566248     1.230435902048     1.007825032230
         H           -2.594586898891    -0.905626566248    -0.174610097952     1.007825032230
         H           -1.704900898891    -1.065226566248     1.371635902048     1.007825032230
         H           -1.999859898891     1.379598433752     1.203887902048     1.007825032230
         H            1.420023101109     0.759881433752    -1.424352097952     1.007825032230
         H            2.188115101109    -0.798474566248    -0.994034097952     1.007825032230
         H           -0.641473898891    -3.021308566248    -0.509953097952     1.007825032230
         H           -1.550720898891     2.305877433752    -0.860590097952     1.007825032230
         H            3.494657101109     1.093594433752    -0.428743097952     1.007825032230

  Basis Set: AUG-CC-PVTZ
    Blend: AUG-CC-PVTZ
  Basis Set: (AUG-CC-PVTZ AUX)
    Blend: AUG-CC-PVTZ-JKFIT
	 Reference Energy          =    -494.7719056360317609 [Eh]
	 Singles Energy            =      -0.0000000000000000 [Eh]
	 Same-Spin Energy          =      -0.4827740514702807 [Eh]
	 Opposite-Spin Energy      =      -1.5134770294656383 [Eh]
	 Correlation Energy        =      -1.9962510809359191 [Eh]
	 Total Energy              =    -496.7681567169676669 [Eh]

	 ================> DF-SCS-MP2 Energies <==================
	-----------------------------------------------------------
	 SCS Same-Spin Scale       =       0.3333333333333333 [-]
	 SCS Opposite-Spin Scale   =       1.2000000000000000 [-]
	 SCS Same-Spin Energy      =      -0.1609246838234269 [Eh]
	 SCS Opposite-Spin Energy  =      -1.8161724353587658 [Eh]
	 SCS Correlation Energy    =      -1.9770971191821927 [Eh]
	 SCS Total Energy          =    -496.7490027552139509 [Eh]
	-----------------------------------------------------------

  Dipole Moment: [D]
     X:    -1.1136      Y:    -0.5492      Z:    -1.8839     Total:     2.2563

*** Psi4 exiting successfully. Buy a developer a beer!
