                               Psi4 1.3.2 release

  ==> Input File <==

--------------------------------------------------------------------------
#psi4
#
memory 32 gb

molecule  {
0 1
  O       -0.0768340     1.0301030     0.6945190
  O        0.0027630    -2.4368280    -0.0631460
  O       -1.8013270     1.3609940    -0.8558510
  O        2.7706710     0.8423760     0.1830720
  C       -0.3978190    -1.0935740    -0.3143580
  C        0.6336520    -0.1707830     0.3242940
  C       -1.6840130    -0.6458300     0.3680790
  C       -1.4394106     0.8456797     0.4347565
  C        1.7909010     0.1493410    -0.5832570
  H       -0.4628000    -0.8966240    -1.3943000
  H        1.0128680    -0.6537370     1.2378340
  H       -2.6003960    -0.9046920    -0.1672120
  H       -1.7107100    -1.0642920     1.3790340
  H       -2.0056690     1.3805330     1.2112860
  H        1.4142140     0.7608160    -1.4169540
  H        2.1823060    -0.7975400    -0.9866360
  H       -0.6472830    -3.0203740    -0.5025550
  H       -1.5565300     2.3068120    -0.8531920
  H        3.4888480     1.0945290    -0.4213450
units angstrom
no_reorient  #important for SAPT in psi4, default
symmetry c1  #important for SAPT in psi4, default
}

set PROPERTIES_ORIGIN ["COM"]
properties('MP2/aug-cc-pvtz', properties = ['dipole'])
--------------------------------------------------------------------------

    Molecular point group: c1
  Charge       = 0
  Multiplicity = 1
  Basis Set: AUG-CC-PVTZ
    Blend: AUG-CC-PVTZ
  Basis Set: (AUG-CC-PVTZ AUX)
    Blend: AUG-CC-PVTZ-JKFIT

    Orbital Energies [Eh]
    ---------------------

    Doubly Occupied:

       1A    -20.572606     2A    -20.564922     3A    -20.562197
       4A    -20.558948     5A    -11.336856     6A    -11.289322
       7A    -11.279005     8A    -11.276423     9A    -11.230130
      10A     -1.418375    11A     -1.369675    12A     -1.357258
      13A     -1.334036    14A     -1.064876    15A     -1.026817
      16A     -0.897480    17A     -0.822515    18A     -0.794885
      19A     -0.741970    20A     -0.702626    21A     -0.681369
      22A     -0.675770    23A     -0.643310    24A     -0.630217
      25A     -0.614597    26A     -0.574236    27A     -0.566323
      28A     -0.556725    29A     -0.535952    30A     -0.520349
      31A     -0.507214    32A     -0.483944    33A     -0.464425
      34A     -0.448527    35A     -0.440705    36A     -0.431219

  @DF-RHF Final Energy:  -494.78141679929598

   => Energetics <=

    Nuclear Repulsion Energy =            509.5977929745882307
    One-Electron Energy =               -1690.8068158951559781
    Two-Electron Energy =                 686.4276061212718787
    Total Energy =                       -494.7814167992959256
  Basis Set: (AUG-CC-PVTZ AUX)
    Blend: AUG-CC-PVTZ-RI
    Molecular point group: c1

    Geometry (in Angstrom), charge = 0, multiplicity = 1:

       Center              X                  Y                   Z               Mass
    ------------   -----------------  -----------------  -----------------  -----------------
         O           -0.078829120285     1.030463578526     0.693304068766    15.994914619570
         O            0.000767879715    -2.436467421474    -0.064360931234    15.994914619570
         O           -1.803322120285     1.361354578526    -0.857065931234    15.994914619570
         O            2.768675879715     0.842736578526     0.181857068766    15.994914619570
         C           -0.399814120285    -1.093213421474    -0.315572931234    12.000000000000
         C            0.631656879715    -0.170422421474     0.323079068766    12.000000000000
         C           -1.686008120285    -0.645469421474     0.366864068766    12.000000000000
         C           -1.441405720285     0.846040278526     0.433541568766    12.000000000000
         C            1.788905879715     0.149701578526    -0.584471931234    12.000000000000
         H           -0.464795120285    -0.896263421474    -1.395514931234     1.007825032230
         H            1.010872879715    -0.653376421474     1.236619068766     1.007825032230
         H           -2.602391120285    -0.904331421474    -0.168426931234     1.007825032230
         H           -1.712705120285    -1.063931421474     1.377819068766     1.007825032230
         H           -2.007664120285     1.380893578526     1.210071068766     1.007825032230
         H            1.412218879715     0.761176578526    -1.418168931234     1.007825032230
         H            2.180310879715    -0.797179421474    -0.987850931234     1.007825032230
         H           -0.649278120285    -3.020013421474    -0.503769931234     1.007825032230
         H           -1.558525120285     2.307172578526    -0.854406931234     1.007825032230
         H            3.486852879715     1.094889578526    -0.422559931234     1.007825032230

  Basis Set: AUG-CC-PVTZ
    Blend: AUG-CC-PVTZ
  Basis Set: (AUG-CC-PVTZ AUX)
    Blend: AUG-CC-PVTZ-JKFIT
	 Reference Energy          =    -494.7814167992959824 [Eh]
	 Singles Energy            =      -0.0000000000000000 [Eh]
	 Same-Spin Energy          =      -0.4828523392700500 [Eh]
	 Opposite-Spin Energy      =      -1.5129578954532215 [Eh]
	 Correlation Energy        =      -1.9958102347232716 [Eh]
	 Total Energy              =    -496.7772270340192335 [Eh]

	 ================> DF-SCS-MP2 Energies <==================
	-----------------------------------------------------------
	 SCS Same-Spin Scale       =       0.3333333333333333 [-]
	 SCS Opposite-Spin Scale   =       1.2000000000000000 [-]
	 SCS Same-Spin Energy      =      -0.1609507797566833 [Eh]
	 SCS Opposite-Spin Energy  =      -1.8155494745438656 [Eh]
	 SCS Correlation Energy    =      -1.9765002543005490 [Eh]
	 SCS Total Energy          =    -496.7579170535965432 [Eh]
	-----------------------------------------------------------

  Dipole Moment: [D]
     X:    -1.0221      Y:    -0.5421      Z:    -1.7854     Total:     2.1275

*** Psi4 exiting successfully. Buy a developer a beer!
