                               Psi4 1.3.2 release

  ==> Input File <==

--------------------------------------------------------------------------
#psi4
#
memory 32 gb

molecule  {
0 1
  O       -0.0768340     1.0301030     0.6945190
  O        0.0027630    -2.4368280    -0.0631460
  O       -1.8013270     1.3609940    -0.8558510
  O        2.7706710     0.8423760     0.1830720
  C       -0.3978190    -1.0935740    -0.3143580
  C        0.6336520    -0.1707830     0.3242940
  C       -1.5995791    -0.6752227     0.3232795
  C       -1.4616990     0.8497080     0.4211840
  C        1.7909010     0.1493410    -0.5832570
  H       -0.4628000    -0.8966240    -1.3943000
  H        1.0128680    -0.6537370     1.2378340
  H       -2.6003960    -0.9046920    -0.1672120
  H       -1.7107100    -1.0642920     1.3790340
  H       -2.0056690     1.3805330     1.2112860
  H        1.4142140     0.7608160    -1.4169540
  H        2.1823060    -0.7975400    -0.9866360
  H       -0.6472830    -3.0203740    -0.5025550
  H       -1.5565300     2.3068120    -0.8531920
  H        3.4888480     1.0945290    -0.4213450
units angstrom
no_reorient  #important for SAPT in psi4, default
symmetry c1  #important for SAPT in psi4, default
}

set PROPERTIES_ORIGIN ["COM"]
properties('MP2/aug-cc-pvtz', properties = ['dipole'])
--------------------------------------------------------------------------

    Molecular point group: c1
  Charge       = 0
  Multiplicity = 1
  Basis Set: AUG-CC-PVTZ
    Blend: AUG-CC-PVTZ
  Basis Set: (AUG-CC-PVTZ AUX)
    Blend: AUG-CC-PVTZ-JKFIT

    Orbital Energies [Eh]
    ---------------------

    Doubly Occupied:

       1A    -20.571921     2A    -20.569445     3A    -20.558021
       4A    -20.557482     5A    -11.339565     6A    -11.283506
       7A    -11.277504     8A    -11.275327     9A    -11.233394
      10A     -1.416482    11A     -1.371306    12A     -1.357042
      13A     -1.335581    14A     -1.077710    15A     -1.023330
      16A     -0.899015    17A     -0.816168    18A     -0.799008
      19A     -0.744660    20A     -0.703125    21A     -0.683858
      22A     -0.676322    23A     -0.642554    24A     -0.627707
      25A     -0.624355    26A     -0.573311    27A     -0.564159
      28A     -0.561038    29A     -0.526135    30A     -0.517865
      31A     -0.498065    32A     -0.483217    33A     -0.459611
      34A     -0.454905    35A     -0.445872    36A     -0.429168

  @DF-RHF Final Energy:  -494.77011208797950

   => Energetics <=

    Nuclear Repulsion Energy =            510.9028062516545106
    One-Electron Energy =               -1693.3903657062189723
    Two-Electron Energy =                 687.7174473665850201
    Total Energy =                       -494.7701120879794416
  Basis Set: (AUG-CC-PVTZ AUX)
    Blend: AUG-CC-PVTZ-RI
    Molecular point group: c1

    Geometry (in Angstrom), charge = 0, multiplicity = 1:

       Center              X                  Y                   Z               Mass
    ------------   -----------------  -----------------  -----------------  -----------------
         O           -0.084391984921     1.032734036142     0.698529154002    15.994914619570
         O           -0.004794984921    -2.434196963858    -0.059135845998    15.994914619570
         O           -1.808884984921     1.363625036142    -0.851840845998    15.994914619570
         O            2.763113015079     0.845007036142     0.187082154002    15.994914619570
         C           -0.405376984921    -1.090942963858    -0.310347845998    12.000000000000
         C            0.626094015079    -0.168151963858     0.328304154002    12.000000000000
         C           -1.607137084921    -0.672591663858     0.327289654002    12.000000000000
         C           -1.469256984921     0.852339036142     0.425194154002    12.000000000000
         C            1.783343015079     0.151972036142    -0.579246845998    12.000000000000
         H           -0.470357984921    -0.893992963858    -1.390289845998     1.007825032230
         H            1.005310015079    -0.651105963858     1.241844154002     1.007825032230
         H           -2.607953984921    -0.902060963858    -0.163201845998     1.007825032230
         H           -1.718267984921    -1.061660963858     1.383044154002     1.007825032230
         H           -2.013226984921     1.383164036142     1.215296154002     1.007825032230
         H            1.406656015079     0.763447036142    -1.412943845998     1.007825032230
         H            2.174748015079    -0.794908963858    -0.982625845998     1.007825032230
         H           -0.654840984921    -3.017742963858    -0.498544845998     1.007825032230
         H           -1.564087984921     2.309443036142    -0.849181845998     1.007825032230
         H            3.481290015079     1.097160036142    -0.417334845998     1.007825032230

  Basis Set: AUG-CC-PVTZ
    Blend: AUG-CC-PVTZ
  Basis Set: (AUG-CC-PVTZ AUX)
    Blend: AUG-CC-PVTZ-JKFIT
	 Reference Energy          =    -494.7701120879794985 [Eh]
	 Singles Energy            =      -0.0000000000000000 [Eh]
	 Same-Spin Energy          =      -0.4837239517225843 [Eh]
	 Opposite-Spin Energy      =      -1.5139253406021902 [Eh]
	 Correlation Energy        =      -1.9976492923247744 [Eh]
	 Total Energy              =    -496.7677613803042505 [Eh]

	 ================> DF-SCS-MP2 Energies <==================
	-----------------------------------------------------------
	 SCS Same-Spin Scale       =       0.3333333333333333 [-]
	 SCS Opposite-Spin Scale   =       1.2000000000000000 [-]
	 SCS Same-Spin Energy      =      -0.1612413172408614 [Eh]
	 SCS Opposite-Spin Energy  =      -1.8167104087226282 [Eh]
	 SCS Correlation Energy    =      -1.9779517259634896 [Eh]
	 SCS Total Energy          =    -496.7480638139429630 [Eh]
	-----------------------------------------------------------

  Dipole Moment: [D]
     X:    -1.1731      Y:    -0.3867      Z:    -1.8366     Total:     2.2133

*** Psi4 exiting successfully. Buy a developer a beer!
