                               Psi4 1.3.2 release

  ==> Input File <==

--------------------------------------------------------------------------
#psi4
#
memory 32 gb

molecule  {
0 1
  O       -0.0768340     1.0301030     0.6945190
  O        0.0027630    -2.4368280    -0.0631460
  O       -1.8329574     1.2214065    -0.8947135
  O        2.7706710     0.8423760     0.1830720
  C       -0.3978190    -1.0935740    -0.3143580
  C        0.6336520    -0.1707830     0.3242940
  C       -1.6840130    -0.6458300     0.3680790
  C       -1.4616990     0.8497080     0.4211840
  C        1.7909010     0.1493410    -0.5832570
  H       -0.4628000    -0.8966240    -1.3943000
  H        1.0128680    -0.6537370     1.2378340
  H       -2.6003960    -0.9046920    -0.1672120
  H       -1.7107100    -1.0642920     1.3790340
  H       -2.0056690     1.3805330     1.2112860
  H        1.4142140     0.7608160    -1.4169540
  H        2.1823060    -0.7975400    -0.9866360
  H       -0.6472830    -3.0203740    -0.5025550
  H       -1.5565300     2.3068120    -0.8531920
  H        3.4888480     1.0945290    -0.4213450
units angstrom
no_reorient  #important for SAPT in psi4, default
symmetry c1  #important for SAPT in psi4, default
}

set PROPERTIES_ORIGIN ["COM"]
properties('MP2/aug-cc-pvtz', properties = ['dipole'])
--------------------------------------------------------------------------

    Molecular point group: c1
  Charge       = 0
  Multiplicity = 1
  Basis Set: AUG-CC-PVTZ
    Blend: AUG-CC-PVTZ
  Basis Set: (AUG-CC-PVTZ AUX)
    Blend: AUG-CC-PVTZ-JKFIT

    Orbital Energies [Eh]
    ---------------------

    Doubly Occupied:

       1A    -20.586012     2A    -20.570538     3A    -20.560809
       4A    -20.558054     5A    -11.336337     6A    -11.286817
       7A    -11.276973     8A    -11.275214     9A    -11.225380
      10A     -1.411233    11A     -1.367094    12A     -1.356045
      13A     -1.326425    14A     -1.060315    15A     -1.021363
      16A     -0.894081    17A     -0.818673    18A     -0.792027
      19A     -0.732089    20A     -0.698360    21A     -0.674825
      22A     -0.671497    23A     -0.643095    24A     -0.627781
      25A     -0.612382    26A     -0.572903    27A     -0.562334
      28A     -0.555193    29A     -0.527251    30A     -0.522298
      31A     -0.504423    32A     -0.482456    33A     -0.460504
      34A     -0.447615    35A     -0.442208    36A     -0.429088

  @DF-RHF Final Energy:  -494.75243040685319

   => Energetics <=

    Nuclear Repulsion Energy =            509.7575643047549079
    One-Electron Energy =               -1691.2406066533035300
    Two-Electron Energy =                 686.7306119416955426
    Total Energy =                       -494.7524304068531364
  Basis Set: (AUG-CC-PVTZ AUX)
    Blend: AUG-CC-PVTZ-RI
    Molecular point group: c1

    Geometry (in Angstrom), charge = 0, multiplicity = 1:

       Center              X                  Y                   Z               Mass
    ------------   -----------------  -----------------  -----------------  -----------------
         O           -0.073060073503     1.046757660419     0.699155811318    15.994914619570
         O            0.006536926497    -2.420173339581    -0.058509188682    15.994914619570
         O           -1.829183473503     1.238061160419    -0.890076688682    15.994914619570
         O            2.774444926497     0.859030660419     0.187708811318    15.994914619570
         C           -0.394045073503    -1.076919339581    -0.309721188682    12.000000000000
         C            0.637425926497    -0.154128339581     0.328930811318    12.000000000000
         C           -1.680239073503    -0.629175339581     0.372715811318    12.000000000000
         C           -1.457925073503     0.866362660419     0.425820811318    12.000000000000
         C            1.794674926497     0.165995660419    -0.578620188682    12.000000000000
         H           -0.459026073503    -0.879969339581    -1.389663188682     1.007825032230
         H            1.016641926497    -0.637082339581     1.242470811318     1.007825032230
         H           -2.596622073503    -0.888037339581    -0.162575188682     1.007825032230
         H           -1.706936073503    -1.047637339581     1.383670811318     1.007825032230
         H           -2.001895073503     1.397187660419     1.215922811318     1.007825032230
         H            1.417987926497     0.777470660419    -1.412317188682     1.007825032230
         H            2.186079926497    -0.780885339581    -0.981999188682     1.007825032230
         H           -0.643509073503    -3.003719339581    -0.497918188682     1.007825032230
         H           -1.552756073503     2.323466660419    -0.848555188682     1.007825032230
         H            3.492621926497     1.111183660419    -0.416708188682     1.007825032230

  Basis Set: AUG-CC-PVTZ
    Blend: AUG-CC-PVTZ
  Basis Set: (AUG-CC-PVTZ AUX)
    Blend: AUG-CC-PVTZ-JKFIT
	 Reference Energy          =    -494.7524304068531933 [Eh]
	 Singles Energy            =      -0.0000000000000000 [Eh]
	 Same-Spin Energy          =      -0.4854992660762580 [Eh]
	 Opposite-Spin Energy      =      -1.5195912348781428 [Eh]
	 Correlation Energy        =      -2.0050905009544007 [Eh]
	 Total Energy              =    -496.7575209078075886 [Eh]

	 ================> DF-SCS-MP2 Energies <==================
	-----------------------------------------------------------
	 SCS Same-Spin Scale       =       0.3333333333333333 [-]
	 SCS Opposite-Spin Scale   =       1.2000000000000000 [-]
	 SCS Same-Spin Energy      =      -0.1618330886920860 [Eh]
	 SCS Opposite-Spin Energy  =      -1.8235094818537714 [Eh]
	 SCS Correlation Energy    =      -1.9853425705458574 [Eh]
	 SCS Total Energy          =    -496.7377729773990609 [Eh]
	-----------------------------------------------------------

  Dipole Moment: [D]
     X:    -1.1464      Y:    -0.2491      Z:    -1.8526     Total:     2.1928

*** Psi4 exiting successfully. Buy a developer a beer!
