                               Psi4 1.3.2 release

  ==> Input File <==

--------------------------------------------------------------------------
#psi4
#
memory 32 gb

molecule  {
0 1
  O       -0.0768340     1.0301030     0.6945190
  O       -0.0172276    -2.4398564    -0.0486917
  O       -1.8013270     1.3609940    -0.8558510
  O        2.7706710     0.8423760     0.1830720
  C       -0.3978190    -1.0935740    -0.3143580
  C        0.6336520    -0.1707830     0.3242940
  C       -1.6840130    -0.6458300     0.3680790
  C       -1.4616990     0.8497080     0.4211840
  C        1.7909010     0.1493410    -0.5832570
  H       -0.4628000    -0.8966240    -1.3943000
  H        1.0128680    -0.6537370     1.2378340
  H       -2.6003960    -0.9046920    -0.1672120
  H       -1.7107100    -1.0642920     1.3790340
  H       -2.0056690     1.3805330     1.2112860
  H        1.4142140     0.7608160    -1.4169540
  H        2.1823060    -0.7975400    -0.9866360
  H       -0.6472830    -3.0203740    -0.5025550
  H       -1.5565300     2.3068120    -0.8531920
  H        3.4888480     1.0945290    -0.4213450
units angstrom
no_reorient  #important for SAPT in psi4, default
symmetry c1  #important for SAPT in psi4, default
}

set PROPERTIES_ORIGIN ["COM"]
properties('MP2/aug-cc-pvtz', properties = ['dipole'])
--------------------------------------------------------------------------

    Molecular point group: c1
  Charge       = 0
  Multiplicity = 1
  Basis Set: AUG-CC-PVTZ
    Blend: AUG-CC-PVTZ
  Basis Set: (AUG-CC-PVTZ AUX)
    Blend: AUG-CC-PVTZ-JKFIT

    Orbital Energies [Eh]
    ---------------------

    Doubly Occupied:

       1A    -20.571190     2A    -20.569025     3A    -20.558384
       4A    -20.558179     5A    -11.336804     6A    -11.289006
       7A    -11.277256     8A    -11.275524     9A    -11.229609
      10A     -1.415189    11A     -1.371106    12A     -1.357157
      13A     -1.335122    14A     -1.063478    15A     -1.025262
      16A     -0.897775    17A     -0.821251    18A     -0.794349
      19A     -0.744585    20A     -0.701480    21A     -0.684295
      22A     -0.674773    23A     -0.642741    24A     -0.628480
      25A     -0.615967    26A     -0.573413    27A     -0.565356
      28A     -0.556040    29A     -0.536456    30A     -0.519775
      31A     -0.506425    32A     -0.484954    33A     -0.463064
      34A     -0.447804    35A     -0.440765    36A     -0.429654

  @DF-RHF Final Energy:  -494.78232056741706

   => Energetics <=

    Nuclear Repulsion Energy =            509.3683042059891477
    One-Electron Energy =               -1690.3778650541501065
    Two-Electron Energy =                 686.2272402807440130
    Total Energy =                       -494.7823205674170595
  Basis Set: (AUG-CC-PVTZ AUX)
    Blend: AUG-CC-PVTZ-RI
    Molecular point group: c1

    Geometry (in Angstrom), charge = 0, multiplicity = 1:

       Center              X                  Y                   Z               Mass
    ------------   -----------------  -----------------  -----------------  -----------------
         O           -0.074448858461     1.030464319992     0.692794398766    15.994914619570
         O           -0.014842458461    -2.439495080008    -0.050416301234    15.994914619570
         O           -1.798941858461     1.361355319992    -0.857575601234    15.994914619570
         O            2.773056141539     0.842737319992     0.181347398766    15.994914619570
         C           -0.395433858461    -1.093212680008    -0.316082601234    12.000000000000
         C            0.636037141539    -0.170421680008     0.322569398766    12.000000000000
         C           -1.681627858461    -0.645468680008     0.366354398766    12.000000000000
         C           -1.459313858461     0.850069319992     0.419459398766    12.000000000000
         C            1.793286141539     0.149702319992    -0.584981601234    12.000000000000
         H           -0.460414858461    -0.896262680008    -1.396024601234     1.007825032230
         H            1.015253141539    -0.653375680008     1.236109398766     1.007825032230
         H           -2.598010858461    -0.904330680008    -0.168936601234     1.007825032230
         H           -1.708324858461    -1.063930680008     1.377309398766     1.007825032230
         H           -2.003283858461     1.380894319992     1.209561398766     1.007825032230
         H            1.416599141539     0.761177319992    -1.418678601234     1.007825032230
         H            2.184691141539    -0.797178680008    -0.988360601234     1.007825032230
         H           -0.644897858461    -3.020012680008    -0.504279601234     1.007825032230
         H           -1.554144858461     2.307173319992    -0.854916601234     1.007825032230
         H            3.491233141539     1.094890319992    -0.423069601234     1.007825032230

  Basis Set: AUG-CC-PVTZ
    Blend: AUG-CC-PVTZ
  Basis Set: (AUG-CC-PVTZ AUX)
    Blend: AUG-CC-PVTZ-JKFIT
	 Reference Energy          =    -494.7823205674170595 [Eh]
	 Singles Energy            =      -0.0000000000000000 [Eh]
	 Same-Spin Energy          =      -0.4827395782866680 [Eh]
	 Opposite-Spin Energy      =      -1.5126900468748068 [Eh]
	 Correlation Energy        =      -1.9954296251614747 [Eh]
	 Total Energy              =    -496.7777501925785373 [Eh]

	 ================> DF-SCS-MP2 Energies <==================
	-----------------------------------------------------------
	 SCS Same-Spin Scale       =       0.3333333333333333 [-]
	 SCS Opposite-Spin Scale   =       1.2000000000000000 [-]
	 SCS Same-Spin Energy      =      -0.1609131927622227 [Eh]
	 SCS Opposite-Spin Energy  =      -1.8152280562497680 [Eh]
	 SCS Correlation Energy    =      -1.9761412490119907 [Eh]
	 SCS Total Energy          =    -496.7584618164290760 [Eh]
	-----------------------------------------------------------

  Dipole Moment: [D]
     X:    -1.1201      Y:    -0.4794      Z:    -1.8995     Total:     2.2567

*** Psi4 exiting successfully. Buy a developer a beer!
