                               Psi4 1.4a3.dev225

  ==> Input File <==

--------------------------------------------------------------------------
#psi4
#
memory 32 gb

molecule  {
0 1
  O        0.0779330    -0.9269250    -0.8850860
  O       -0.5497830     2.4054250     0.0105510
  O       -1.2273040    -1.7124440     0.8968780
  O        2.8355650    -0.3742720    -0.2242840
  C       -0.6080970     1.0161320     0.3256370
  C        0.5731950     0.3283540    -0.3705440
  C       -1.8542695     0.2426949    -0.2575472
  C       -1.2359040    -1.1221150    -0.3954320
  C        1.7465980     0.1105970     0.5541480
  H       -0.5498730     0.8655980     1.4125560
  H        0.8905780     0.9380060    -1.2243810
  H       -2.6989340     0.2874680     0.4026800
  H       -2.0570860     0.6846600    -1.2212740
  H       -1.7431510    -1.7703690    -1.1193200
  H        1.4450650    -0.6065030     1.3308310
  H        1.9882130     1.0713000     1.0354480
  H       -1.2210140     2.8543510     0.5524830
  H       -0.6896120    -2.5214440     0.8182530
  H        3.5785240    -0.5383230     0.3798300
units angstrom
no_reorient  #important for SAPT in psi4, default
symmetry c1  #important for SAPT in psi4, default
}

set PROPERTIES_ORIGIN ["COM"]
properties('MP2/aug-cc-pvtz', properties = ['dipole'])
--------------------------------------------------------------------------

    Molecular point group: c1
  Charge       = 0
  Multiplicity = 1
  Basis Set: AUG-CC-PVTZ
    Blend: AUG-CC-PVTZ
  Basis Set: (AUG-CC-PVTZ AUX)
    Blend: AUG-CC-PVTZ-JKFIT

    Orbital Energies [Eh]
    ---------------------

    Doubly Occupied:

       1A    -20.571236     2A    -20.569517     3A    -20.560098
       4A    -20.558984     5A    -11.336026     6A    -11.292425
       7A    -11.277651     8A    -11.276572     9A    -11.228619
      10A     -1.417310    11A     -1.369180    12A     -1.357882
      13A     -1.335786    14A     -1.055437    15A     -1.026412
      16A     -0.897334    17A     -0.823075    18A     -0.793702
      19A     -0.742098    20A     -0.702216    21A     -0.682704
      22A     -0.675010    23A     -0.645579    24A     -0.631015
      25A     -0.609221    26A     -0.575585    27A     -0.565856
      28A     -0.555452    29A     -0.538898    30A     -0.522896
      31A     -0.510169    32A     -0.483476    33A     -0.465782
      34A     -0.447648    35A     -0.439648    36A     -0.424732

  @DF-RHF Final Energy:  -494.78001989426474

   => Energetics <=

    Nuclear Repulsion Energy =            510.2929812046136817
    One-Electron Energy =               -1692.2155366577258064
    Two-Electron Energy =                 687.1425355588473849
    Total Energy =                       -494.7800198942647967
  Basis Set: (AUG-CC-PVTZ AUX)
    Blend: AUG-CC-PVTZ-RI
    Molecular point group: c1

    Geometry (in Angstrom), charge = 0, multiplicity = 1:

       Center              X                  Y                   Z               Mass
    ------------   -----------------  -----------------  -----------------  -----------------
         O            0.073684809091    -0.915394404442    -0.865920709452    15.994914619570
         O           -0.554031190909     2.416955595558     0.029716290548    15.994914619570
         O           -1.231552190909    -1.700913404442     0.916043290548    15.994914619570
         O            2.831316809091    -0.362741404442    -0.205118709452    15.994914619570
         C           -0.612345190909     1.027662595558     0.344802290548    12.000000000000
         C            0.568946809091     0.339884595558    -0.351378709452    12.000000000000
         C           -1.858517690909     0.254225495558    -0.238381909452    12.000000000000
         C           -1.240152190909    -1.110584404442    -0.376266709452    12.000000000000
         C            1.742349809091     0.122127595558     0.573313290548    12.000000000000
         H           -0.554121190909     0.877128595558     1.431721290548     1.007825032230
         H            0.886329809091     0.949536595558    -1.205215709452     1.007825032230
         H           -2.703182190909     0.298998595558     0.421845290548     1.007825032230
         H           -2.061334190909     0.696190595558    -1.202108709452     1.007825032230
         H           -1.747399190909    -1.758838404442    -1.100154709452     1.007825032230
         H            1.440816809091    -0.594972404442     1.349996290548     1.007825032230
         H            1.983964809091     1.082830595558     1.054613290548     1.007825032230
         H           -1.225262190909     2.865881595558     0.571648290548     1.007825032230
         H           -0.693860190909    -2.509913404442     0.837418290548     1.007825032230
         H            3.574275809091    -0.526792404442     0.398995290548     1.007825032230

  Basis Set: AUG-CC-PVTZ
    Blend: AUG-CC-PVTZ
  Basis Set: (AUG-CC-PVTZ AUX)
    Blend: AUG-CC-PVTZ-JKFIT
	 Reference Energy          =    -494.7800198942647398 [Eh]
	 Singles Energy            =      -0.0000000000000000 [Eh]
	 Same-Spin Energy          =      -0.4827593028042197 [Eh]
	 Opposite-Spin Energy      =      -1.5133446065509468 [Eh]
	 Correlation Energy        =      -1.9961039093551665 [Eh]
	 Total Energy              =    -496.7761238036198961 [Eh]

	 ================> DF-SCS-MP2 Energies <==================
	-----------------------------------------------------------
	 SCS Same-Spin Scale       =       0.3333333333333333 [-]
	 SCS Opposite-Spin Scale   =       1.2000000000000000 [-]
	 SCS Same-Spin Energy      =      -0.1609197676014066 [Eh]
	 SCS Opposite-Spin Energy  =      -1.8160135278611360 [Eh]
	 SCS Correlation Energy    =      -1.9769332954625425 [Eh]
	 SCS Total Energy          =    -496.7569531897272554 [Eh]
	-----------------------------------------------------------

  Dipole Moment: [D]
     X:    -1.0027      Y:     0.1984      Z:     2.2747     Total:     2.4938

*** Psi4 exiting successfully. Buy a developer a beer!
