                               Psi4 1.3.2 release

  ==> Input File <==

--------------------------------------------------------------------------
#psi4
#
memory 32 gb

molecule  {
0 1
  O       -0.0657420     0.8815672     0.6957647
  O        0.0027630    -2.4368280    -0.0631460
  O       -1.8013270     1.3609940    -0.8558510
  O        2.7706710     0.8423760     0.1830720
  C       -0.3978190    -1.0935740    -0.3143580
  C        0.6336520    -0.1707830     0.3242940
  C       -1.6840130    -0.6458300     0.3680790
  C       -1.4616990     0.8497080     0.4211840
  C        1.7909010     0.1493410    -0.5832570
  H       -0.4628000    -0.8966240    -1.3943000
  H        1.0128680    -0.6537370     1.2378340
  H       -2.6003960    -0.9046920    -0.1672120
  H       -1.7107100    -1.0642920     1.3790340
  H       -2.0056690     1.3805330     1.2112860
  H        1.4142140     0.7608160    -1.4169540
  H        2.1823060    -0.7975400    -0.9866360
  H       -0.6472830    -3.0203740    -0.5025550
  H       -1.5565300     2.3068120    -0.8531920
  H        3.4888480     1.0945290    -0.4213450
units angstrom
no_reorient  #important for SAPT in psi4, default
symmetry c1  #important for SAPT in psi4, default
}

set PROPERTIES_ORIGIN ["COM"]
properties('MP2/aug-cc-pvtz', properties = ['dipole'])
--------------------------------------------------------------------------

    Molecular point group: c1
  Charge       = 0
  Multiplicity = 1
  Basis Set: AUG-CC-PVTZ
    Blend: AUG-CC-PVTZ
  Basis Set: (AUG-CC-PVTZ AUX)
    Blend: AUG-CC-PVTZ-JKFIT

    Orbital Energies [Eh]
    ---------------------

    Doubly Occupied:

       1A    -20.576852     2A    -20.566906     3A    -20.555778
       4A    -20.552871     5A    -11.345055     6A    -11.281408
       7A    -11.270027     8A    -11.264506     9A    -11.227594
      10A     -1.442142    11A     -1.367821    12A     -1.359923
      13A     -1.349495    14A     -1.055416    15A     -1.031157
      16A     -0.903523    17A     -0.829439    18A     -0.791481
      19A     -0.750476    20A     -0.706179    21A     -0.681791
      22A     -0.679756    23A     -0.647412    24A     -0.636409
      25A     -0.616655    26A     -0.587834    27A     -0.566601
      28A     -0.551347    29A     -0.532164    30A     -0.524148
      31A     -0.510734    32A     -0.490819    33A     -0.451025
      34A     -0.444937    35A     -0.437613    36A     -0.416211

  @DF-RHF Final Energy:  -494.77132450741050

   => Energetics <=

    Nuclear Repulsion Energy =            512.8952351050694460
    One-Electron Energy =               -1697.3261044803471123
    Two-Electron Energy =                 689.6595448678672255
    Total Energy =                       -494.7713245074105544
  Basis Set: (AUG-CC-PVTZ AUX)
    Blend: AUG-CC-PVTZ-RI
    Molecular point group: c1

    Geometry (in Angstrom), charge = 0, multiplicity = 1:

       Center              X                  Y                   Z               Mass
    ------------   -----------------  -----------------  -----------------  -----------------
         O           -0.067065431402     0.899289513166     0.695616062699    15.994914619570
         O            0.001439568598    -2.419105686834    -0.063294637301    15.994914619570
         O           -1.802650431402     1.378716313166    -0.855999637301    15.994914619570
         O            2.769347568598     0.860098313166     0.182923362699    15.994914619570
         C           -0.399142431402    -1.075851686834    -0.314506637301    12.000000000000
         C            0.632328568598    -0.153060686834     0.324145362699    12.000000000000
         C           -1.685336431402    -0.628107686834     0.367930362699    12.000000000000
         C           -1.463022431402     0.867430313166     0.421035362699    12.000000000000
         C            1.789577568598     0.167063313166    -0.583405637301    12.000000000000
         H           -0.464123431402    -0.878901686834    -1.394448637301     1.007825032230
         H            1.011544568598    -0.636014686834     1.237685362699     1.007825032230
         H           -2.601719431402    -0.886969686834    -0.167360637301     1.007825032230
         H           -1.712033431402    -1.046569686834     1.378885362699     1.007825032230
         H           -2.006992431402     1.398255313166     1.211137362699     1.007825032230
         H            1.412890568598     0.778538313166    -1.417102637301     1.007825032230
         H            2.180982568598    -0.779817686834    -0.986784637301     1.007825032230
         H           -0.648606431402    -3.002651686834    -0.502703637301     1.007825032230
         H           -1.557853431402     2.324534313166    -0.853340637301     1.007825032230
         H            3.487524568598     1.112251313166    -0.421493637301     1.007825032230

  Basis Set: AUG-CC-PVTZ
    Blend: AUG-CC-PVTZ
  Basis Set: (AUG-CC-PVTZ AUX)
    Blend: AUG-CC-PVTZ-JKFIT
	 Reference Energy          =    -494.7713245074104975 [Eh]
	 Singles Energy            =      -0.0000000000000000 [Eh]
	 Same-Spin Energy          =      -0.4828566948408645 [Eh]
	 Opposite-Spin Energy      =      -1.5106444753526893 [Eh]
	 Correlation Energy        =      -1.9935011701935539 [Eh]
	 Total Energy              =    -496.7648256776040512 [Eh]

	 ================> DF-SCS-MP2 Energies <==================
	-----------------------------------------------------------
	 SCS Same-Spin Scale       =       0.3333333333333333 [-]
	 SCS Opposite-Spin Scale   =       1.2000000000000000 [-]
	 SCS Same-Spin Energy      =      -0.1609522316136215 [Eh]
	 SCS Opposite-Spin Energy  =      -1.8127733704232272 [Eh]
	 SCS Correlation Energy    =      -1.9737256020368488 [Eh]
	 SCS Total Energy          =    -496.7450501094473339 [Eh]
	-----------------------------------------------------------

  Dipole Moment: [D]
     X:    -1.4274      Y:     0.0330      Z:    -1.8118     Total:     2.3068

*** Psi4 exiting successfully. Buy a developer a beer!
