                               Psi4 1.4a3.dev225

  ==> Input File <==

--------------------------------------------------------------------------
#psi4
#
memory 32 gb

molecule  {
0 1
  O        0.0779330    -0.9269250    -0.8850860
  O       -0.5497830     2.4054250     0.0105510
  O       -1.2273040    -1.7124440     0.8968780
  O        2.8355650    -0.3742720    -0.2242840
  C       -0.6080970     1.0161320     0.3256370
  C        0.5731950     0.3283540    -0.3705440
  C       -1.7753165     0.2916971    -0.2205988
  C       -1.2359040    -1.1221150    -0.3954320
  C        1.7465980     0.1105970     0.5541480
  H       -0.5498730     0.8655980     1.4125560
  H        0.8905780     0.9380060    -1.2243810
  H       -2.6989340     0.2874680     0.4026800
  H       -2.0570860     0.6846600    -1.2212740
  H       -1.7431510    -1.7703690    -1.1193200
  H        1.4450650    -0.6065030     1.3308310
  H        1.9882130     1.0713000     1.0354480
  H       -1.2210140     2.8543510     0.5524830
  H       -0.6896120    -2.5214440     0.8182530
  H        3.5785240    -0.5383230     0.3798300
units angstrom
no_reorient  #important for SAPT in psi4, default
symmetry c1  #important for SAPT in psi4, default
}

set PROPERTIES_ORIGIN ["COM"]
properties('MP2/aug-cc-pvtz', properties = ['dipole'])
--------------------------------------------------------------------------

    Molecular point group: c1
  Charge       = 0
  Multiplicity = 1
  Basis Set: AUG-CC-PVTZ
    Blend: AUG-CC-PVTZ
  Basis Set: (AUG-CC-PVTZ AUX)
    Blend: AUG-CC-PVTZ-JKFIT

    Orbital Energies [Eh]
    ---------------------

    Doubly Occupied:

       1A    -20.570643     2A    -20.569545     3A    -20.559225
       4A    -20.558998     5A    -11.337625     6A    -11.287759
       7A    -11.277869     8A    -11.276651     9A    -11.230546
      10A     -1.418361    11A     -1.370216    12A     -1.357942
      13A     -1.336104    14A     -1.067219    15A     -1.024371
      16A     -0.898965    17A     -0.818097    18A     -0.797539
      19A     -0.742756    20A     -0.703937    21A     -0.683174
      22A     -0.676431    23A     -0.645586    24A     -0.627492
      25A     -0.617623    26A     -0.573662    27A     -0.563409
      28A     -0.561528    29A     -0.528086    30A     -0.521318
      31A     -0.503060    32A     -0.483000    33A     -0.463967
      34A     -0.452730    35A     -0.445023    36A     -0.429042

  @DF-RHF Final Energy:  -494.77932615502175

   => Energetics <=

    Nuclear Repulsion Energy =            511.8091991100165501
    One-Electron Energy =               -1695.2180588278317828
    Two-Electron Energy =                 688.6295335627934264
    Total Energy =                       -494.7793261550217494
  Basis Set: (AUG-CC-PVTZ AUX)
    Blend: AUG-CC-PVTZ-RI
    Molecular point group: c1

    Geometry (in Angstrom), charge = 0, multiplicity = 1:

       Center              X                  Y                   Z               Mass
    ------------   -----------------  -----------------  -----------------  -----------------
         O            0.066617445379    -0.919780765570    -0.869228092089    15.994914619570
         O           -0.561098554621     2.412569234430     0.026408907911    15.994914619570
         O           -1.238619554621    -1.705299765570     0.912735907911    15.994914619570
         O            2.824249445379    -0.367127765570    -0.208426092089    15.994914619570
         C           -0.619412554621     1.023276234430     0.341494907911    12.000000000000
         C            0.561879445379     0.335498234430    -0.354686092089    12.000000000000
         C           -1.786632054621     0.298841334430    -0.204740892089    12.000000000000
         C           -1.247219554621    -1.114970765570    -0.379574092089    12.000000000000
         C            1.735282445379     0.117741234430     0.570005907911    12.000000000000
         H           -0.561188554621     0.872742234430     1.428413907911     1.007825032230
         H            0.879262445379     0.945150234430    -1.208523092089     1.007825032230
         H           -2.710249554621     0.294612234430     0.418537907911     1.007825032230
         H           -2.068401554621     0.691804234430    -1.205416092089     1.007825032230
         H           -1.754466554621    -1.763224765570    -1.103462092089     1.007825032230
         H            1.433749445379    -0.599358765570     1.346688907911     1.007825032230
         H            1.976897445379     1.078444234430     1.051305907911     1.007825032230
         H           -1.232329554621     2.861495234430     0.568340907911     1.007825032230
         H           -0.700927554621    -2.514299765570     0.834110907911     1.007825032230
         H            3.567208445379    -0.531178765570     0.395687907911     1.007825032230

  Basis Set: AUG-CC-PVTZ
    Blend: AUG-CC-PVTZ
  Basis Set: (AUG-CC-PVTZ AUX)
    Blend: AUG-CC-PVTZ-JKFIT
	 Reference Energy          =    -494.7793261550217494 [Eh]
	 Singles Energy            =      -0.0000000000000000 [Eh]
	 Same-Spin Energy          =      -0.4831464742733297 [Eh]
	 Opposite-Spin Energy      =      -1.5134704690853420 [Eh]
	 Correlation Energy        =      -1.9966169433586716 [Eh]
	 Total Energy              =    -496.7759430983804236 [Eh]

	 ================> DF-SCS-MP2 Energies <==================
	-----------------------------------------------------------
	 SCS Same-Spin Scale       =       0.3333333333333333 [-]
	 SCS Opposite-Spin Scale   =       1.2000000000000000 [-]
	 SCS Same-Spin Energy      =      -0.1610488247577765 [Eh]
	 SCS Opposite-Spin Energy  =      -1.8161645629024104 [Eh]
	 SCS Correlation Energy    =      -1.9772133876601869 [Eh]
	 SCS Total Energy          =    -496.7565395426819350 [Eh]
	-----------------------------------------------------------

  Dipole Moment: [D]
     X:    -1.0113      Y:     0.1024      Z:     2.2418     Total:     2.4615

*** Psi4 exiting successfully. Buy a developer a beer!
