                               Psi4 1.3.2 release

  ==> Input File <==

--------------------------------------------------------------------------
#psi4
#
memory 32 gb

molecule  {
0 1
  O       -0.0768340     1.0301030     0.6945190
  O        0.0027630    -2.4368280    -0.0631460
  O       -1.8123019     1.3150128    -0.8703840
  O        2.7706710     0.8423760     0.1830720
  C       -0.3978190    -1.0935740    -0.3143580
  C        0.6336520    -0.1707830     0.3242940
  C       -1.6840130    -0.6458300     0.3680790
  C       -1.4616990     0.8497080     0.4211840
  C        1.7909010     0.1493410    -0.5832570
  H       -0.4628000    -0.8966240    -1.3943000
  H        1.0128680    -0.6537370     1.2378340
  H       -2.6003960    -0.9046920    -0.1672120
  H       -1.7107100    -1.0642920     1.3790340
  H       -2.0056690     1.3805330     1.2112860
  H        1.4142140     0.7608160    -1.4169540
  H        2.1823060    -0.7975400    -0.9866360
  H       -0.6472830    -3.0203740    -0.5025550
  H       -1.5565300     2.3068120    -0.8531920
  H        3.4888480     1.0945290    -0.4213450
units angstrom
no_reorient  #important for SAPT in psi4, default
symmetry c1  #important for SAPT in psi4, default
}

set PROPERTIES_ORIGIN ["COM"]
properties('MP2/aug-cc-pvtz', properties = ['dipole'])
--------------------------------------------------------------------------

    Molecular point group: c1
  Charge       = 0
  Multiplicity = 1
  Basis Set: AUG-CC-PVTZ
    Blend: AUG-CC-PVTZ
  Basis Set: (AUG-CC-PVTZ AUX)
    Blend: AUG-CC-PVTZ-JKFIT

    Orbital Energies [Eh]
    ---------------------

    Doubly Occupied:

       1A    -20.575210     2A    -20.571675     3A    -20.559091
       4A    -20.557970     5A    -11.336660     6A    -11.288102
       7A    -11.276942     8A    -11.275187     9A    -11.228576
      10A     -1.413321    11A     -1.368783    12A     -1.356482
      13A     -1.331761    14A     -1.062246    15A     -1.023831
      16A     -0.895996    17A     -0.819831    18A     -0.793238
      19A     -0.739381    20A     -0.700034    21A     -0.679331
      22A     -0.674540    23A     -0.642577    24A     -0.628303
      25A     -0.615040    26A     -0.573519    27A     -0.564511
      28A     -0.555906    29A     -0.533194    30A     -0.520871
      31A     -0.505508    32A     -0.484295    33A     -0.461939
      34A     -0.447571    35A     -0.441770    36A     -0.429547

  @DF-RHF Final Energy:  -494.77549356615611

   => Energetics <=

    Nuclear Repulsion Energy =            509.4507028768850887
    One-Electron Energy =               -1690.5869130581370428
    Two-Electron Energy =                 686.3607166150958392
    Total Energy =                       -494.7754935661561149
  Basis Set: (AUG-CC-PVTZ AUX)
    Blend: AUG-CC-PVTZ-RI
    Molecular point group: c1

    Geometry (in Angstrom), charge = 0, multiplicity = 1:

       Center              X                  Y                   Z               Mass
    ------------   -----------------  -----------------  -----------------  -----------------
         O           -0.075524552935     1.035589167715     0.696252974188    15.994914619570
         O            0.004072447065    -2.431341832285    -0.061412025812    15.994914619570
         O           -1.810992452935     1.320498967715    -0.868650025812    15.994914619570
         O            2.771980447065     0.847862167715     0.184805974188    15.994914619570
         C           -0.396509552935    -1.088087832285    -0.312624025812    12.000000000000
         C            0.634961447065    -0.165296832285     0.326027974188    12.000000000000
         C           -1.682703552935    -0.640343832285     0.369812974188    12.000000000000
         C           -1.460389552935     0.855194167715     0.422917974188    12.000000000000
         C            1.792210447065     0.154827167715    -0.581523025812    12.000000000000
         H           -0.461490552935    -0.891137832285    -1.392566025812     1.007825032230
         H            1.014177447065    -0.648250832285     1.239567974188     1.007825032230
         H           -2.599086552935    -0.899205832285    -0.165478025812     1.007825032230
         H           -1.709400552935    -1.058805832285     1.380767974188     1.007825032230
         H           -2.004359552935     1.386019167715     1.213019974188     1.007825032230
         H            1.415523447065     0.766302167715    -1.415220025812     1.007825032230
         H            2.183615447065    -0.792053832285    -0.984902025812     1.007825032230
         H           -0.645973552935    -3.014887832285    -0.500821025812     1.007825032230
         H           -1.555220552935     2.312298167715    -0.851458025812     1.007825032230
         H            3.490157447065     1.100015167715    -0.419611025812     1.007825032230

  Basis Set: AUG-CC-PVTZ
    Blend: AUG-CC-PVTZ
  Basis Set: (AUG-CC-PVTZ AUX)
    Blend: AUG-CC-PVTZ-JKFIT
	 Reference Energy          =    -494.7754935661561149 [Eh]
	 Singles Energy            =      -0.0000000000000000 [Eh]
	 Same-Spin Energy          =      -0.4836909163971151 [Eh]
	 Opposite-Spin Energy      =      -1.5150139515532934 [Eh]
	 Correlation Energy        =      -1.9987048679504085 [Eh]
	 Total Energy              =    -496.7741984341065518 [Eh]

	 ================> DF-SCS-MP2 Energies <==================
	-----------------------------------------------------------
	 SCS Same-Spin Scale       =       0.3333333333333333 [-]
	 SCS Opposite-Spin Scale   =       1.2000000000000000 [-]
	 SCS Same-Spin Energy      =      -0.1612303054657050 [Eh]
	 SCS Opposite-Spin Energy  =      -1.8180167418639521 [Eh]
	 SCS Correlation Energy    =      -1.9792470473296571 [Eh]
	 SCS Total Energy          =    -496.7547406134857511 [Eh]
	-----------------------------------------------------------

  Dipole Moment: [D]
     X:    -1.1571      Y:    -0.3981      Z:    -1.8600     Total:     2.2264

*** Psi4 exiting successfully. Buy a developer a beer!
