                               Psi4 1.3.2 release

  ==> Input File <==

--------------------------------------------------------------------------
#psi4
#
memory 32 gb

molecule  {
0 1
  O       -0.0768340     1.0301030     0.6945190
  O        0.0226315    -2.4333904    -0.0776768
  O       -1.8013270     1.3609940    -0.8558510
  O        2.7706710     0.8423760     0.1830720
  C       -0.3978190    -1.0935740    -0.3143580
  C        0.6336520    -0.1707830     0.3242940
  C       -1.6840130    -0.6458300     0.3680790
  C       -1.4616990     0.8497080     0.4211840
  C        1.7909010     0.1493410    -0.5832570
  H       -0.4628000    -0.8966240    -1.3943000
  H        1.0128680    -0.6537370     1.2378340
  H       -2.6003960    -0.9046920    -0.1672120
  H       -1.7107100    -1.0642920     1.3790340
  H       -2.0056690     1.3805330     1.2112860
  H        1.4142140     0.7608160    -1.4169540
  H        2.1823060    -0.7975400    -0.9866360
  H       -0.6472830    -3.0203740    -0.5025550
  H       -1.5565300     2.3068120    -0.8531920
  H        3.4888480     1.0945290    -0.4213450
units angstrom
no_reorient  #important for SAPT in psi4, default
symmetry c1  #important for SAPT in psi4, default
}

set PROPERTIES_ORIGIN ["COM"]
properties('MP2/aug-cc-pvtz', properties = ['dipole'])
--------------------------------------------------------------------------

    Molecular point group: c1
  Charge       = 0
  Multiplicity = 1
  Basis Set: AUG-CC-PVTZ
    Blend: AUG-CC-PVTZ
  Basis Set: (AUG-CC-PVTZ AUX)
    Blend: AUG-CC-PVTZ-JKFIT

    Orbital Energies [Eh]
    ---------------------

    Doubly Occupied:

       1A    -20.573442     2A    -20.569245     3A    -20.558221
       4A    -20.557722     5A    -11.337556     6A    -11.288588
       7A    -11.276685     8A    -11.274888     9A    -11.231052
      10A     -1.415219    11A     -1.368565    12A     -1.356641
      13A     -1.335041    14A     -1.063147    15A     -1.025166
      16A     -0.897096    17A     -0.821232    18A     -0.794257
      19A     -0.743248    20A     -0.700934    21A     -0.681076
      22A     -0.674420    23A     -0.641869    24A     -0.628565
      25A     -0.617687    26A     -0.573620    27A     -0.565269
      28A     -0.556422    29A     -0.536090    30A     -0.519999
      31A     -0.506077    32A     -0.484055    33A     -0.462224
      34A     -0.447327    35A     -0.442078    36A     -0.429503

  @DF-RHF Final Energy:  -494.78076253246337

   => Energetics <=

    Nuclear Repulsion Energy =            509.3415499932631292
    One-Electron Energy =               -1690.3361643018220093
    Two-Electron Energy =                 686.2138517760956802
    Total Energy =                       -494.7807625324633136
  Basis Set: (AUG-CC-PVTZ AUX)
    Blend: AUG-CC-PVTZ-RI
    Molecular point group: c1

    Geometry (in Angstrom), charge = 0, multiplicity = 1:

       Center              X                  Y                   Z               Mass
    ------------   -----------------  -----------------  -----------------  -----------------
         O           -0.079204586094     1.029692839079     0.696252711699    15.994914619570
         O            0.020260913906    -2.433800560921    -0.075943088301    15.994914619570
         O           -1.803697586094     1.360583839079    -0.854117288301    15.994914619570
         O            2.768300413906     0.841965839079     0.184805711699    15.994914619570
         C           -0.400189586094    -1.093984160921    -0.312624288301    12.000000000000
         C            0.631281413906    -0.171193160921     0.326027711699    12.000000000000
         C           -1.686383586094    -0.646240160921     0.369812711699    12.000000000000
         C           -1.464069586094     0.849297839079     0.422917711699    12.000000000000
         C            1.788530413906     0.148930839079    -0.581523288301    12.000000000000
         H           -0.465170586094    -0.897034160921    -1.392566288301     1.007825032230
         H            1.010497413906    -0.654147160921     1.239567711699     1.007825032230
         H           -2.602766586094    -0.905102160921    -0.165478288301     1.007825032230
         H           -1.713080586094    -1.064702160921     1.380767711699     1.007825032230
         H           -2.008039586094     1.380122839079     1.213019711699     1.007825032230
         H            1.411843413906     0.760405839079    -1.415220288301     1.007825032230
         H            2.179935413906    -0.797950160921    -0.984902288301     1.007825032230
         H           -0.649653586094    -3.020784160921    -0.500821288301     1.007825032230
         H           -1.558900586094     2.306401839079    -0.851458288301     1.007825032230
         H            3.486477413906     1.094118839079    -0.419611288301     1.007825032230

  Basis Set: AUG-CC-PVTZ
    Blend: AUG-CC-PVTZ
  Basis Set: (AUG-CC-PVTZ AUX)
    Blend: AUG-CC-PVTZ-JKFIT
	 Reference Energy          =    -494.7807625324633705 [Eh]
	 Singles Energy            =      -0.0000000000000000 [Eh]
	 Same-Spin Energy          =      -0.4829948784285559 [Eh]
	 Opposite-Spin Energy      =      -1.5133336378707218 [Eh]
	 Correlation Energy        =      -1.9963285162992777 [Eh]
	 Total Energy              =    -496.7770910487626566 [Eh]

	 ================> DF-SCS-MP2 Energies <==================
	-----------------------------------------------------------
	 SCS Same-Spin Scale       =       0.3333333333333333 [-]
	 SCS Opposite-Spin Scale   =       1.2000000000000000 [-]
	 SCS Same-Spin Energy      =      -0.1609982928095186 [Eh]
	 SCS Opposite-Spin Energy  =      -1.8160003654448662 [Eh]
	 SCS Correlation Energy    =      -1.9769986582543848 [Eh]
	 SCS Total Energy          =    -496.7577611907177584 [Eh]
	-----------------------------------------------------------

  Dipole Moment: [D]
     X:    -1.2020      Y:    -0.4882      Z:    -1.8251     Total:     2.2393

*** Psi4 exiting successfully. Buy a developer a beer!
