                               Psi4 1.3.2 release

  ==> Input File <==

--------------------------------------------------------------------------
#psi4
#
memory 32 gb

molecule  {
0 1
  O       -0.0768340     1.0301030     0.6945190
  O        0.0027630    -2.4368280    -0.0631460
  O       -1.8013270     1.3609940    -0.8558510
  O        2.7706710     0.8423760     0.1830720
  C       -0.3978190    -1.0935740    -0.3143580
  C        0.6336520    -0.1707830     0.3242940
  C       -1.5847379    -0.6478229     0.2447181
  C       -1.4616990     0.8497080     0.4211840
  C        1.7909010     0.1493410    -0.5832570
  H       -0.4628000    -0.8966240    -1.3943000
  H        1.0128680    -0.6537370     1.2378340
  H       -2.6003960    -0.9046920    -0.1672120
  H       -1.7107100    -1.0642920     1.3790340
  H       -2.0056690     1.3805330     1.2112860
  H        1.4142140     0.7608160    -1.4169540
  H        2.1823060    -0.7975400    -0.9866360
  H       -0.6472830    -3.0203740    -0.5025550
  H       -1.5565300     2.3068120    -0.8531920
  H        3.4888480     1.0945290    -0.4213450
units angstrom
no_reorient  #important for SAPT in psi4, default
symmetry c1  #important for SAPT in psi4, default
}

set PROPERTIES_ORIGIN ["COM"]
properties('MP2/aug-cc-pvtz', properties = ['dipole'])
--------------------------------------------------------------------------

    Molecular point group: c1
  Charge       = 0
  Multiplicity = 1
  Basis Set: AUG-CC-PVTZ
    Blend: AUG-CC-PVTZ
  Basis Set: (AUG-CC-PVTZ AUX)
    Blend: AUG-CC-PVTZ-JKFIT

    Orbital Energies [Eh]
    ---------------------

    Doubly Occupied:

       1A    -20.573794     2A    -20.568589     3A    -20.558288
       4A    -20.558227     5A    -11.340343     6A    -11.282093
       7A    -11.278516     8A    -11.275664     9A    -11.237023
      10A     -1.418492    11A     -1.372580    12A     -1.357368
      13A     -1.336247    14A     -1.087037    15A     -1.024496
      16A     -0.901971    17A     -0.813213    18A     -0.803544
      19A     -0.744077    20A     -0.705542    21A     -0.686789
      22A     -0.678448    23A     -0.643200    24A     -0.630970
      25A     -0.624137    26A     -0.573598    27A     -0.566982
      28A     -0.561971    29A     -0.521492    30A     -0.507992
      31A     -0.500435    32A     -0.481580    33A     -0.463269
      34A     -0.451466    35A     -0.446705    36A     -0.429036

  @DF-RHF Final Energy:  -494.75271003506066

   => Energetics <=

    Nuclear Repulsion Energy =            511.8839932367117171
    One-Electron Energy =               -1695.2630582830620369
    Two-Electron Energy =                 688.6263550112895473
    Total Energy =                       -494.7527100350606588
  Basis Set: (AUG-CC-PVTZ AUX)
    Blend: AUG-CC-PVTZ-RI
    Molecular point group: c1

    Geometry (in Angstrom), charge = 0, multiplicity = 1:

       Center              X                  Y                   Z               Mass
    ------------   -----------------  -----------------  -----------------  -----------------
         O           -0.085720473494     1.030281382636     0.705561464206    15.994914619570
         O           -0.006123473494    -2.436649617364    -0.052103535794    15.994914619570
         O           -1.810213473494     1.361172382636    -0.844808535794    15.994914619570
         O            2.761784526506     0.842554382636     0.194114464206    15.994914619570
         C           -0.406705473494    -1.093395617364    -0.303315535794    12.000000000000
         C            0.624765526506    -0.170604617364     0.335336464206    12.000000000000
         C           -1.593624373494    -0.647644517364     0.255760564206    12.000000000000
         C           -1.470585473494     0.849886382636     0.432226464206    12.000000000000
         C            1.782014526506     0.149519382636    -0.572214535794    12.000000000000
         H           -0.471686473494    -0.896445617364    -1.383257535794     1.007825032230
         H            1.003981526506    -0.653558617364     1.248876464206     1.007825032230
         H           -2.609282473494    -0.904513617364    -0.156169535794     1.007825032230
         H           -1.719596473494    -1.064113617364     1.390076464206     1.007825032230
         H           -2.014555473494     1.380711382636     1.222328464206     1.007825032230
         H            1.405327526506     0.760994382636    -1.405911535794     1.007825032230
         H            2.173419526506    -0.797361617364    -0.975593535794     1.007825032230
         H           -0.656169473494    -3.020195617364    -0.491512535794     1.007825032230
         H           -1.565416473494     2.306990382636    -0.842149535794     1.007825032230
         H            3.479961526506     1.094707382636    -0.410302535794     1.007825032230

  Basis Set: AUG-CC-PVTZ
    Blend: AUG-CC-PVTZ
  Basis Set: (AUG-CC-PVTZ AUX)
    Blend: AUG-CC-PVTZ-JKFIT
	 Reference Energy          =    -494.7527100350606588 [Eh]
	 Singles Energy            =      -0.0000000000000000 [Eh]
	 Same-Spin Energy          =      -0.4846692123649806 [Eh]
	 Opposite-Spin Energy      =      -1.5153195442429519 [Eh]
	 Correlation Energy        =      -1.9999887566079324 [Eh]
	 Total Energy              =    -496.7526987916685925 [Eh]

	 ================> DF-SCS-MP2 Energies <==================
	-----------------------------------------------------------
	 SCS Same-Spin Scale       =       0.3333333333333333 [-]
	 SCS Opposite-Spin Scale   =       1.2000000000000000 [-]
	 SCS Same-Spin Energy      =      -0.1615564041216602 [Eh]
	 SCS Opposite-Spin Energy  =      -1.8183834530915421 [Eh]
	 SCS Correlation Energy    =      -1.9799398572132023 [Eh]
	 SCS Total Energy          =    -496.7326498922738551 [Eh]
	-----------------------------------------------------------

  Dipole Moment: [D]
     X:    -1.1811      Y:    -0.3679      Z:    -1.8733     Total:     2.2449

*** Psi4 exiting successfully. Buy a developer a beer!
