                               Psi4 1.3.2 release

  ==> Input File <==

--------------------------------------------------------------------------
#psi4
#
memory 32 gb

molecule  {
0 1
  O       -0.0768340     1.0301030     0.6945190
  O        0.0027630    -2.4368280    -0.0631460
  O       -1.8013270     1.3609940    -0.8558510
  O        2.7706710     0.8423760     0.1830720
  C       -0.3978190    -1.0935740    -0.3143580
  C        0.6336520    -0.1707830     0.3242940
  C       -1.6840130    -0.6458300     0.3680790
  C       -1.4763935     0.7508558     0.4176739
  C        1.7909010     0.1493410    -0.5832570
  H       -0.4628000    -0.8966240    -1.3943000
  H        1.0128680    -0.6537370     1.2378340
  H       -2.6003960    -0.9046920    -0.1672120
  H       -1.7107100    -1.0642920     1.3790340
  H       -2.0056690     1.3805330     1.2112860
  H        1.4142140     0.7608160    -1.4169540
  H        2.1823060    -0.7975400    -0.9866360
  H       -0.6472830    -3.0203740    -0.5025550
  H       -1.5565300     2.3068120    -0.8531920
  H        3.4888480     1.0945290    -0.4213450
units angstrom
no_reorient  #important for SAPT in psi4, default
symmetry c1  #important for SAPT in psi4, default
}

set PROPERTIES_ORIGIN ["COM"]
properties('MP2/aug-cc-pvtz', properties = ['dipole'])
--------------------------------------------------------------------------

    Molecular point group: c1
  Charge       = 0
  Multiplicity = 1
  Basis Set: AUG-CC-PVTZ
    Blend: AUG-CC-PVTZ
  Basis Set: (AUG-CC-PVTZ AUX)
    Blend: AUG-CC-PVTZ-JKFIT

    Orbital Energies [Eh]
    ---------------------

    Doubly Occupied:

       1A    -20.574798     2A    -20.562046     3A    -20.558446
       4A    -20.557809     5A    -11.340516     6A    -11.292489
       7A    -11.276034     8A    -11.274892     9A    -11.231297
      10A     -1.406476    11A     -1.370868    12A     -1.355722
      13A     -1.324552    14A     -1.083230    15A     -1.029621
      16A     -0.899761    17A     -0.818217    18A     -0.794165
      19A     -0.742788    20A     -0.704149    21A     -0.682580
      22A     -0.671591    23A     -0.641285    24A     -0.623308
      25A     -0.619331    26A     -0.570395    27A     -0.562715
      28A     -0.553741    29A     -0.544809    30A     -0.518583
      31A     -0.512566    32A     -0.487504    33A     -0.462628
      34A     -0.447302    35A     -0.439248    36A     -0.427454

  @DF-RHF Final Energy:  -494.76636231752343

   => Energetics <=

    Nuclear Repulsion Energy =            509.9988965031740804
    One-Electron Energy =               -1691.6046878971242222
    Two-Electron Energy =                 686.8394290764266543
    Total Energy =                       -494.7663623175234306
  Basis Set: (AUG-CC-PVTZ AUX)
    Blend: AUG-CC-PVTZ-RI
    Molecular point group: c1

    Geometry (in Angstrom), charge = 0, multiplicity = 1:

       Center              X                  Y                   Z               Mass
    ------------   -----------------  -----------------  -----------------  -----------------
         O           -0.075518649430     1.038951602919     0.694833193022    15.994914619570
         O            0.004078350570    -2.427979397081    -0.062831806978    15.994914619570
         O           -1.800011649430     1.369842602919    -0.855536806978    15.994914619570
         O            2.771986350570     0.851224602919     0.183386193022    15.994914619570
         C           -0.396503649430    -1.084725397081    -0.314043806978    12.000000000000
         C            0.634967350570    -0.161934397081     0.324608193022    12.000000000000
         C           -1.682697649430    -0.636981397081     0.368393193022    12.000000000000
         C           -1.475078149430     0.759704402919     0.417988093022    12.000000000000
         C            1.792216350570     0.158189602919    -0.582942806978    12.000000000000
         H           -0.461484649430    -0.887775397081    -1.393985806978     1.007825032230
         H            1.014183350570    -0.644888397081     1.238148193022     1.007825032230
         H           -2.599080649430    -0.895843397081    -0.166897806978     1.007825032230
         H           -1.709394649430    -1.055443397081     1.379348193022     1.007825032230
         H           -2.004353649430     1.389381602919     1.211600193022     1.007825032230
         H            1.415529350570     0.769664602919    -1.416639806978     1.007825032230
         H            2.183621350570    -0.788691397081    -0.986321806978     1.007825032230
         H           -0.645967649430    -3.011525397081    -0.502240806978     1.007825032230
         H           -1.555214649430     2.315660602919    -0.852877806978     1.007825032230
         H            3.490163350570     1.103377602919    -0.421030806978     1.007825032230

  Basis Set: AUG-CC-PVTZ
    Blend: AUG-CC-PVTZ
  Basis Set: (AUG-CC-PVTZ AUX)
    Blend: AUG-CC-PVTZ-JKFIT
	 Reference Energy          =    -494.7663623175234306 [Eh]
	 Singles Energy            =      -0.0000000000000000 [Eh]
	 Same-Spin Energy          =      -0.4842009749382972 [Eh]
	 Opposite-Spin Energy      =      -1.5153757459360686 [Eh]
	 Correlation Energy        =      -1.9995767208743658 [Eh]
	 Total Energy              =    -496.7659390383977893 [Eh]

	 ================> DF-SCS-MP2 Energies <==================
	-----------------------------------------------------------
	 SCS Same-Spin Scale       =       0.3333333333333333 [-]
	 SCS Opposite-Spin Scale   =       1.2000000000000000 [-]
	 SCS Same-Spin Energy      =      -0.1614003249794324 [Eh]
	 SCS Opposite-Spin Energy  =      -1.8184508951232823 [Eh]
	 SCS Correlation Energy    =      -1.9798512201027147 [Eh]
	 SCS Total Energy          =    -496.7462135376261472 [Eh]
	-----------------------------------------------------------

  Dipole Moment: [D]
     X:    -1.1840      Y:    -0.8080      Z:    -1.8057     Total:     2.3056

*** Psi4 exiting successfully. Buy a developer a beer!
