                               Psi4 1.3.2 release

  ==> Input File <==

--------------------------------------------------------------------------
#psi4
#
memory 32 gb

molecule  {
0 1
  O       -0.0768340     1.0301030     0.6945190
  O        0.0027630    -2.4368280    -0.0631460
  O       -1.8013270     1.3609940    -0.8558510
  O        2.7706710     0.8423760     0.1830720
  C       -0.3978190    -1.0935740    -0.3143580
  C        0.6336520    -0.1707830     0.3242940
  C       -1.6840130    -0.6458300     0.3680790
  C       -1.4470045     0.9485602     0.4246941
  C        1.7909010     0.1493410    -0.5832570
  H       -0.4628000    -0.8966240    -1.3943000
  H        1.0128680    -0.6537370     1.2378340
  H       -2.6003960    -0.9046920    -0.1672120
  H       -1.7107100    -1.0642920     1.3790340
  H       -2.0056690     1.3805330     1.2112860
  H        1.4142140     0.7608160    -1.4169540
  H        2.1823060    -0.7975400    -0.9866360
  H       -0.6472830    -3.0203740    -0.5025550
  H       -1.5565300     2.3068120    -0.8531920
  H        3.4888480     1.0945290    -0.4213450
units angstrom
no_reorient  #important for SAPT in psi4, default
symmetry c1  #important for SAPT in psi4, default
}

set PROPERTIES_ORIGIN ["COM"]
properties('MP2/aug-cc-pvtz', properties = ['dipole'])
--------------------------------------------------------------------------

    Molecular point group: c1
  Charge       = 0
  Multiplicity = 1
  Basis Set: AUG-CC-PVTZ
    Blend: AUG-CC-PVTZ
  Basis Set: (AUG-CC-PVTZ AUX)
    Blend: AUG-CC-PVTZ-JKFIT

    Orbital Energies [Eh]
    ---------------------

    Doubly Occupied:

       1A    -20.576276     2A    -20.570075     3A    -20.558240
       4A    -20.558149     5A    -11.336862     6A    -11.285703
       7A    -11.278262     8A    -11.275602     9A    -11.227569
      10A     -1.424216    11A     -1.369292    12A     -1.358384
      13A     -1.343120    14A     -1.054591    15A     -1.015908
      16A     -0.896849    17A     -0.822779    18A     -0.795207
      19A     -0.745412    20A     -0.699250    21A     -0.685438
      22A     -0.676387    23A     -0.644520    24A     -0.635220
      25A     -0.616222    26A     -0.579485    27A     -0.565563
      28A     -0.555342    29A     -0.532248    30A     -0.522299
      31A     -0.504722    32A     -0.472568    33A     -0.462014
      34A     -0.447978    35A     -0.438575    36A     -0.424222

  @DF-RHF Final Energy:  -494.77330277238269

   => Energetics <=

    Nuclear Repulsion Energy =            508.6808188702578946
    One-Electron Energy =               -1688.9991435011629619
    Two-Electron Energy =                 685.5450218585223183
    Total Energy =                       -494.7733027723826353
  Basis Set: (AUG-CC-PVTZ AUX)
    Blend: AUG-CC-PVTZ-RI
    Molecular point group: c1

    Geometry (in Angstrom), charge = 0, multiplicity = 1:

       Center              X                  Y                   Z               Mass
    ------------   -----------------  -----------------  -----------------  -----------------
         O           -0.078149363300     1.021254379225     0.694204789962    15.994914619570
         O            0.001447636700    -2.445676620775    -0.063460210038    15.994914619570
         O           -1.802642363300     1.352145379225    -0.856165210038    15.994914619570
         O            2.769355636700     0.833527379225     0.182757789962    15.994914619570
         C           -0.399134363300    -1.102422620775    -0.314672210038    12.000000000000
         C            0.632336636700    -0.179631620775     0.323979789962    12.000000000000
         C           -1.685328363300    -0.654678620775     0.367764789962    12.000000000000
         C           -1.448319863300     0.939711579225     0.424379889962    12.000000000000
         C            1.789585636700     0.140492379225    -0.583571210038    12.000000000000
         H           -0.464115363300    -0.905472620775    -1.394614210038     1.007825032230
         H            1.011552636700    -0.662585620775     1.237519789962     1.007825032230
         H           -2.601711363300    -0.913540620775    -0.167526210038     1.007825032230
         H           -1.712025363300    -1.073140620775     1.378719789962     1.007825032230
         H           -2.006984363300     1.371684379225     1.210971789962     1.007825032230
         H            1.412898636700     0.751967379225    -1.417268210038     1.007825032230
         H            2.180990636700    -0.806388620775    -0.986950210038     1.007825032230
         H           -0.648598363300    -3.029222620775    -0.502869210038     1.007825032230
         H           -1.557845363300     2.297963379225    -0.853506210038     1.007825032230
         H            3.487532636700     1.085680379225    -0.421659210038     1.007825032230

  Basis Set: AUG-CC-PVTZ
    Blend: AUG-CC-PVTZ
  Basis Set: (AUG-CC-PVTZ AUX)
    Blend: AUG-CC-PVTZ-JKFIT
	 Reference Energy          =    -494.7733027723826922 [Eh]
	 Singles Energy            =      -0.0000000000000000 [Eh]
	 Same-Spin Energy          =      -0.4826392630866769 [Eh]
	 Opposite-Spin Energy      =      -1.5126073980858985 [Eh]
	 Correlation Energy        =      -1.9952466611725754 [Eh]
	 Total Energy              =    -496.7685494335552789 [Eh]

	 ================> DF-SCS-MP2 Energies <==================
	-----------------------------------------------------------
	 SCS Same-Spin Scale       =       0.3333333333333333 [-]
	 SCS Opposite-Spin Scale   =       1.2000000000000000 [-]
	 SCS Same-Spin Energy      =      -0.1608797543622256 [Eh]
	 SCS Opposite-Spin Energy  =      -1.8151288777030781 [Eh]
	 SCS Correlation Energy    =      -1.9760086320653036 [Eh]
	 SCS Total Energy          =    -496.7493114044480080 [Eh]
	-----------------------------------------------------------

  Dipole Moment: [D]
     X:    -1.1243      Y:    -0.1857      Z:    -1.9210     Total:     2.2335

*** Psi4 exiting successfully. Buy a developer a beer!
