                               Psi4 1.3.2 release

  ==> Input File <==

--------------------------------------------------------------------------
#psi4
#
memory 32 gb

molecule  {
0 1
  O       -0.0768340     1.0301030     0.6945190
  O        0.0027630    -2.4368280    -0.0631460
  O       -1.8013270     1.3609940    -0.8558510
  O        2.7706710     0.8423760     0.1830720
  C       -0.3978190    -1.0935740    -0.3143580
  C        0.6336520    -0.1707830     0.3242940
  C       -1.6840130    -0.6458300     0.3680790
  C       -1.4616990     0.8497080     0.4211840
  C        1.7909010     0.1493410    -0.5832570
  H       -0.4628000    -0.8966240    -1.3943000
  H        1.0128680    -0.6537370     1.2378340
  H       -2.5729548    -0.8664997    -0.2272286
  H       -1.7107100    -1.0642920     1.3790340
  H       -2.0056690     1.3805330     1.2112860
  H        1.4142140     0.7608160    -1.4169540
  H        2.1823060    -0.7975400    -0.9866360
  H       -0.6472830    -3.0203740    -0.5025550
  H       -1.5565300     2.3068120    -0.8531920
  H        3.4888480     1.0945290    -0.4213450
units angstrom
no_reorient  #important for SAPT in psi4, default
symmetry c1  #important for SAPT in psi4, default
}

set PROPERTIES_ORIGIN ["COM"]
properties('MP2/aug-cc-pvtz', properties = ['dipole'])
--------------------------------------------------------------------------

    Molecular point group: c1
  Charge       = 0
  Multiplicity = 1
  Basis Set: AUG-CC-PVTZ
    Blend: AUG-CC-PVTZ
  Basis Set: (AUG-CC-PVTZ AUX)
    Blend: AUG-CC-PVTZ-JKFIT

    Orbital Energies [Eh]
    ---------------------

    Doubly Occupied:

       1A    -20.572276     2A    -20.569428     3A    -20.557901
       4A    -20.557805     5A    -11.336747     6A    -11.288282
       7A    -11.276593     8A    -11.275038     9A    -11.230262
      10A     -1.415182    11A     -1.369849    12A     -1.356801
      13A     -1.335097    14A     -1.063707    15A     -1.025215
      16A     -0.897333    17A     -0.820099    18A     -0.794328
      19A     -0.744068    20A     -0.701301    21A     -0.682672
      22A     -0.674114    23A     -0.642509    24A     -0.627246
      25A     -0.616910    26A     -0.574056    27A     -0.567121
      28A     -0.556489    29A     -0.538567    30A     -0.519496
      31A     -0.504352    32A     -0.483551    33A     -0.462757
      34A     -0.447291    35A     -0.441299    36A     -0.429443

  @DF-RHF Final Energy:  -494.78105538608037

   => Energetics <=

    Nuclear Repulsion Energy =            509.4637595689577552
    One-Electron Energy =               -1690.5792570570592943
    Two-Electron Energy =                 686.3344421020210575
    Total Energy =                       -494.7810553860804248
  Basis Set: (AUG-CC-PVTZ AUX)
    Blend: AUG-CC-PVTZ-RI
    Molecular point group: c1

    Geometry (in Angstrom), charge = 0, multiplicity = 1:

       Center              X                  Y                   Z               Mass
    ------------   -----------------  -----------------  -----------------  -----------------
         O           -0.077040304737     1.029815867721     0.694970186296    15.994914619570
         O            0.002556695263    -2.437115132279    -0.062694813704    15.994914619570
         O           -1.801533304737     1.360706867721    -0.855399813704    15.994914619570
         O            2.770464695263     0.842088867721     0.183523186296    15.994914619570
         C           -0.398025304737    -1.093861132279    -0.313906813704    12.000000000000
         C            0.633445695263    -0.171070132279     0.324745186296    12.000000000000
         C           -1.684219304737    -0.646117132279     0.368530186296    12.000000000000
         C           -1.461905304737     0.849420867721     0.421635186296    12.000000000000
         C            1.790694695263     0.149053867721    -0.582805813704    12.000000000000
         H           -0.463006304737    -0.896911132279    -1.393848813704     1.007825032230
         H            1.012661695263    -0.654024132279     1.238285186296     1.007825032230
         H           -2.573161104737    -0.866786832279    -0.226777413704     1.007825032230
         H           -1.710916304737    -1.064579132279     1.379485186296     1.007825032230
         H           -2.005875304737     1.380245867721     1.211737186296     1.007825032230
         H            1.414007695263     0.760528867721    -1.416502813704     1.007825032230
         H            2.182099695263    -0.797827132279    -0.986184813704     1.007825032230
         H           -0.647489304737    -3.020661132279    -0.502103813704     1.007825032230
         H           -1.556736304737     2.306524867721    -0.852740813704     1.007825032230
         H            3.488641695263     1.094241867721    -0.420893813704     1.007825032230

  Basis Set: AUG-CC-PVTZ
    Blend: AUG-CC-PVTZ
  Basis Set: (AUG-CC-PVTZ AUX)
    Blend: AUG-CC-PVTZ-JKFIT
	 Reference Energy          =    -494.7810553860803680 [Eh]
	 Singles Energy            =      -0.0000000000000000 [Eh]
	 Same-Spin Energy          =      -0.4829585134783075 [Eh]
	 Opposite-Spin Energy      =      -1.5131552969546260 [Eh]
	 Correlation Energy        =      -1.9961138104329335 [Eh]
	 Total Energy              =    -496.7771691965132845 [Eh]

	 ================> DF-SCS-MP2 Energies <==================
	-----------------------------------------------------------
	 SCS Same-Spin Scale       =       0.3333333333333333 [-]
	 SCS Opposite-Spin Scale   =       1.2000000000000000 [-]
	 SCS Same-Spin Energy      =      -0.1609861711594358 [Eh]
	 SCS Opposite-Spin Energy  =      -1.8157863563455512 [Eh]
	 SCS Correlation Energy    =      -1.9767725275049870 [Eh]
	 SCS Total Energy          =    -496.7578279135853450 [Eh]
	-----------------------------------------------------------

  Dipole Moment: [D]
     X:    -1.1547      Y:    -0.4678      Z:    -1.8774     Total:     2.2532

*** Psi4 exiting successfully. Buy a developer a beer!
