                               Psi4 1.3.2 release

  ==> Input File <==

--------------------------------------------------------------------------
#psi4
#
memory 32 gb

molecule  {
0 1
  O       -0.0768340     1.0301030     0.6945190
  O        0.0027630    -2.4368280    -0.0631460
  O       -1.8013270     1.3609940    -0.8558510
  O        2.7706710     0.8423760     0.1830720
  C       -0.3978190    -1.0935740    -0.3143580
  C        0.6336520    -0.1707830     0.3242940
  C       -1.6840130    -0.6458300     0.3680790
  C       -1.4171967     0.8411972     0.4483088
  C        1.7909010     0.1493410    -0.5832570
  H       -0.4628000    -0.8966240    -1.3943000
  H        1.0128680    -0.6537370     1.2378340
  H       -2.6003960    -0.9046920    -0.1672120
  H       -1.7107100    -1.0642920     1.3790340
  H       -2.0056690     1.3805330     1.2112860
  H        1.4142140     0.7608160    -1.4169540
  H        2.1823060    -0.7975400    -0.9866360
  H       -0.6472830    -3.0203740    -0.5025550
  H       -1.5565300     2.3068120    -0.8531920
  H        3.4888480     1.0945290    -0.4213450
units angstrom
no_reorient  #important for SAPT in psi4, default
symmetry c1  #important for SAPT in psi4, default
}

set PROPERTIES_ORIGIN ["COM"]
properties('MP2/aug-cc-pvtz', properties = ['dipole'])
--------------------------------------------------------------------------

    Molecular point group: c1
  Charge       = 0
  Multiplicity = 1
  Basis Set: AUG-CC-PVTZ
    Blend: AUG-CC-PVTZ
  Basis Set: (AUG-CC-PVTZ AUX)
    Blend: AUG-CC-PVTZ-JKFIT

    Orbital Energies [Eh]
    ---------------------

    Doubly Occupied:

       1A    -20.572944     2A    -20.566059     3A    -20.560537
       4A    -20.559959     5A    -11.336752     6A    -11.289871
       7A    -11.281079     8A    -11.277647     9A    -11.230012
      10A     -1.423824    11A     -1.369835    12A     -1.357753
      13A     -1.330905    14A     -1.066648    15A     -1.028371
      16A     -0.897591    17A     -0.824199    18A     -0.795304
      19A     -0.740592    20A     -0.704117    21A     -0.681390
      22A     -0.675587    23A     -0.644133    24A     -0.632338
      25A     -0.612676    26A     -0.575526    27A     -0.566956
      28A     -0.557502    29A     -0.536056    30A     -0.520826
      31A     -0.507111    32A     -0.483340    33A     -0.465539
      34A     -0.449488    35A     -0.439705    36A     -0.432549

  @DF-RHF Final Energy:  -494.77995016331329

   => Energetics <=

    Nuclear Repulsion Energy =            509.8528077316402118
    One-Electron Energy =               -1691.2760764982147066
    Two-Electron Energy =                 686.6433186032611502
    Total Energy =                       -494.7799501633132877
  Basis Set: (AUG-CC-PVTZ AUX)
    Blend: AUG-CC-PVTZ-RI
    Molecular point group: c1

    Geometry (in Angstrom), charge = 0, multiplicity = 1:

       Center              X                  Y                   Z               Mass
    ------------   -----------------  -----------------  -----------------  -----------------
         O           -0.080817565446     1.030864823037     0.692090954214    15.994914619570
         O           -0.001220565446    -2.436066176963    -0.065574045786    15.994914619570
         O           -1.805310565446     1.361755823037    -0.858279045786    15.994914619570
         O            2.766687434554     0.843137823037     0.180643954214    15.994914619570
         C           -0.401802565446    -1.092812176963    -0.316786045786    12.000000000000
         C            0.629668434554    -0.170021176963     0.321865954214    12.000000000000
         C           -1.687996565446    -0.645068176963     0.365650954214    12.000000000000
         C           -1.421180265446     0.841959023037     0.445880754214    12.000000000000
         C            1.786917434554     0.150102823037    -0.585685045786    12.000000000000
         H           -0.466783565446    -0.895862176963    -1.396728045786     1.007825032230
         H            1.008884434554    -0.652975176963     1.235405954214     1.007825032230
         H           -2.604379565446    -0.903930176963    -0.169640045786     1.007825032230
         H           -1.714693565446    -1.063530176963     1.376605954214     1.007825032230
         H           -2.009652565446     1.381294823037     1.208857954214     1.007825032230
         H            1.410230434554     0.761577823037    -1.419382045786     1.007825032230
         H            2.178322434554    -0.796778176963    -0.989064045786     1.007825032230
         H           -0.651266565446    -3.019612176963    -0.504983045786     1.007825032230
         H           -1.560513565446     2.307573823037    -0.855620045786     1.007825032230
         H            3.484864434554     1.095290823037    -0.423773045786     1.007825032230

  Basis Set: AUG-CC-PVTZ
    Blend: AUG-CC-PVTZ
  Basis Set: (AUG-CC-PVTZ AUX)
    Blend: AUG-CC-PVTZ-JKFIT
	 Reference Energy          =    -494.7799501633132877 [Eh]
	 Singles Energy            =      -0.0000000000000000 [Eh]
	 Same-Spin Energy          =      -0.4829099036462607 [Eh]
	 Opposite-Spin Energy      =      -1.5130173106599965 [Eh]
	 Correlation Energy        =      -1.9959272143062572 [Eh]
	 Total Energy              =    -496.7758773776195653 [Eh]

	 ================> DF-SCS-MP2 Energies <==================
	-----------------------------------------------------------
	 SCS Same-Spin Scale       =       0.3333333333333333 [-]
	 SCS Opposite-Spin Scale   =       1.2000000000000000 [-]
	 SCS Same-Spin Energy      =      -0.1609699678820869 [Eh]
	 SCS Opposite-Spin Energy  =      -1.8156207727919957 [Eh]
	 SCS Correlation Energy    =      -1.9765907406740826 [Eh]
	 SCS Total Energy          =    -496.7565409039873430 [Eh]
	-----------------------------------------------------------

  Dipole Moment: [D]
     X:    -0.8792      Y:    -0.6030      Z:    -1.7080     Total:     2.0135

*** Psi4 exiting successfully. Buy a developer a beer!
