                               Psi4 1.3.2 release

  ==> Input File <==

--------------------------------------------------------------------------
#psi4
#
memory 32 gb

molecule  {
0 1
  O       -0.0839139     1.0792556     0.6934366
  O        0.0027630    -2.4368280    -0.0631460
  O       -1.8013270     1.3609940    -0.8558510
  O        2.7706710     0.8423760     0.1830720
  C       -0.3978190    -1.0935740    -0.3143580
  C        0.6336520    -0.1707830     0.3242940
  C       -1.6840130    -0.6458300     0.3680790
  C       -1.4616990     0.8497080     0.4211840
  C        1.7909010     0.1493410    -0.5832570
  H       -0.4628000    -0.8966240    -1.3943000
  H        1.0128680    -0.6537370     1.2378340
  H       -2.6003960    -0.9046920    -0.1672120
  H       -1.7107100    -1.0642920     1.3790340
  H       -2.0056690     1.3805330     1.2112860
  H        1.4142140     0.7608160    -1.4169540
  H        2.1823060    -0.7975400    -0.9866360
  H       -0.6472830    -3.0203740    -0.5025550
  H       -1.5565300     2.3068120    -0.8531920
  H        3.4888480     1.0945290    -0.4213450
units angstrom
no_reorient  #important for SAPT in psi4, default
symmetry c1  #important for SAPT in psi4, default
}

set PROPERTIES_ORIGIN ["COM"]
properties('MP2/aug-cc-pvtz', properties = ['dipole'])
--------------------------------------------------------------------------

    Molecular point group: c1
  Charge       = 0
  Multiplicity = 1
  Basis Set: AUG-CC-PVTZ
    Blend: AUG-CC-PVTZ
  Basis Set: (AUG-CC-PVTZ AUX)
    Blend: AUG-CC-PVTZ-JKFIT

    Orbital Energies [Eh]
    ---------------------

    Doubly Occupied:

       1A    -20.574016     2A    -20.566664     3A    -20.559507
       4A    -20.558688     5A    -11.334965     6A    -11.291086
       7A    -11.281393     8A    -11.276930     9A    -11.231305
      10A     -1.409382    11A     -1.371384    12A     -1.357196
      13A     -1.327370    14A     -1.066620    15A     -1.023491
      16A     -0.896294    17A     -0.818645    18A     -0.795473
      19A     -0.742159    20A     -0.700451    21A     -0.683459
      22A     -0.672498    23A     -0.641718    24A     -0.626048
      25A     -0.616918    26A     -0.569915    27A     -0.563996
      28A     -0.557540    29A     -0.537422    30A     -0.518394
      31A     -0.504842    32A     -0.483360    33A     -0.465288
      34A     -0.448524    35A     -0.440512    36A     -0.432987

  @DF-RHF Final Energy:  -494.77822366784011

   => Energetics <=

    Nuclear Repulsion Energy =            508.2308963137450633
    One-Electron Energy =               -1688.1253581980738545
    Two-Electron Energy =                 685.1162382164887958
    Total Energy =                       -494.7782236678400523
  Basis Set: (AUG-CC-PVTZ AUX)
    Blend: AUG-CC-PVTZ-RI
    Molecular point group: c1

    Geometry (in Angstrom), charge = 0, multiplicity = 1:

       Center              X                  Y                   Z               Mass
    ------------   -----------------  -----------------  -----------------  -----------------
         O           -0.083069178911     1.073391023682     0.693565736395    15.994914619570
         O            0.003607721089    -2.442692576318    -0.063016863605    15.994914619570
         O           -1.800482278911     1.355129423682    -0.855721863605    15.994914619570
         O            2.771515721089     0.836511423682     0.183201136395    15.994914619570
         C           -0.396974278911    -1.099438576318    -0.314228863605    12.000000000000
         C            0.634496721089    -0.176647576318     0.324423136395    12.000000000000
         C           -1.683168278911    -0.651694576318     0.368208136395    12.000000000000
         C           -1.460854278911     0.843843423682     0.421313136395    12.000000000000
         C            1.791745721089     0.143476423682    -0.583127863605    12.000000000000
         H           -0.461955278911    -0.902488576318    -1.394170863605     1.007825032230
         H            1.013712721089    -0.659601576318     1.237963136395     1.007825032230
         H           -2.599551278911    -0.910556576318    -0.167082863605     1.007825032230
         H           -1.709865278911    -1.070156576318     1.379163136395     1.007825032230
         H           -2.004824278911     1.374668423682     1.211415136395     1.007825032230
         H            1.415058721089     0.754951423682    -1.416824863605     1.007825032230
         H            2.183150721089    -0.803404576318    -0.986506863605     1.007825032230
         H           -0.646438278911    -3.026238576318    -0.502425863605     1.007825032230
         H           -1.555685278911     2.300947423682    -0.853062863605     1.007825032230
         H            3.489692721089     1.088664423682    -0.421215863605     1.007825032230

  Basis Set: AUG-CC-PVTZ
    Blend: AUG-CC-PVTZ
  Basis Set: (AUG-CC-PVTZ AUX)
    Blend: AUG-CC-PVTZ-JKFIT
	 Reference Energy          =    -494.7782236678401091 [Eh]
	 Singles Energy            =      -0.0000000000000000 [Eh]
	 Same-Spin Energy          =      -0.4830910931164580 [Eh]
	 Opposite-Spin Energy      =      -1.5142165092980737 [Eh]
	 Correlation Energy        =      -1.9973076024145318 [Eh]
	 Total Energy              =    -496.7755312702546462 [Eh]

	 ================> DF-SCS-MP2 Energies <==================
	-----------------------------------------------------------
	 SCS Same-Spin Scale       =       0.3333333333333333 [-]
	 SCS Opposite-Spin Scale   =       1.2000000000000000 [-]
	 SCS Same-Spin Energy      =      -0.1610303643721527 [Eh]
	 SCS Opposite-Spin Energy  =      -1.8170598111576883 [Eh]
	 SCS Correlation Energy    =      -1.9780901755298410 [Eh]
	 SCS Total Energy          =    -496.7563138433699237 [Eh]
	-----------------------------------------------------------

  Dipole Moment: [D]
     X:    -1.0787      Y:    -0.6433      Z:    -1.8763     Total:     2.2579

*** Psi4 exiting successfully. Buy a developer a beer!
