                               Psi4 1.3.2 release

  ==> Input File <==

--------------------------------------------------------------------------
#psi4
#
memory 32 gb

molecule  {
0 1
  O       -0.0768340     1.0301030     0.6945190
  O        0.0027630    -2.4368280    -0.0631460
  O       -1.8013270     1.3609940    -0.8558510
  O        2.7706710     0.8423760     0.1830720
  C       -0.3838133    -1.0829597    -0.2944075
  C        0.6336520    -0.1707830     0.3242940
  C       -1.6840130    -0.6458300     0.3680790
  C       -1.4616990     0.8497080     0.4211840
  C        1.7909010     0.1493410    -0.5832570
  H       -0.4628000    -0.8966240    -1.3943000
  H        1.0128680    -0.6537370     1.2378340
  H       -2.6003960    -0.9046920    -0.1672120
  H       -1.7107100    -1.0642920     1.3790340
  H       -2.0056690     1.3805330     1.2112860
  H        1.4142140     0.7608160    -1.4169540
  H        2.1823060    -0.7975400    -0.9866360
  H       -0.6472830    -3.0203740    -0.5025550
  H       -1.5565300     2.3068120    -0.8531920
  H        3.4888480     1.0945290    -0.4213450
units angstrom
no_reorient  #important for SAPT in psi4, default
symmetry c1  #important for SAPT in psi4, default
}

set PROPERTIES_ORIGIN ["COM"]
properties('MP2/aug-cc-pvtz', properties = ['dipole'])
--------------------------------------------------------------------------

    Molecular point group: c1
  Charge       = 0
  Multiplicity = 1
  Basis Set: AUG-CC-PVTZ
    Blend: AUG-CC-PVTZ
  Basis Set: (AUG-CC-PVTZ AUX)
    Blend: AUG-CC-PVTZ-JKFIT

    Orbital Energies [Eh]
    ---------------------

    Doubly Occupied:

       1A    -20.571305     2A    -20.569121     3A    -20.558914
       4A    -20.558327     5A    -11.337304     6A    -11.289546
       7A    -11.276691     8A    -11.275711     9A    -11.230551
      10A     -1.415915    11A     -1.368337    12A     -1.357187
      13A     -1.335559    14A     -1.065578    15A     -1.026989
      16A     -0.898481    17A     -0.821810    18A     -0.793910
      19A     -0.744203    20A     -0.701976    21A     -0.682485
      22A     -0.674472    23A     -0.642396    24A     -0.629030
      25A     -0.616198    26A     -0.573749    27A     -0.565318
      28A     -0.554565    29A     -0.536385    30A     -0.520623
      31A     -0.507877    32A     -0.483697    33A     -0.465430
      34A     -0.447894    35A     -0.441216    36A     -0.428543

  @DF-RHF Final Energy:  -494.78085297651398

   => Energetics <=

    Nuclear Repulsion Energy =            509.6857609095245039
    One-Electron Energy =               -1690.9986429708349078
    Two-Electron Energy =                 686.5320290847963633
    Total Energy =                       -494.7808529765139838
  Basis Set: (AUG-CC-PVTZ AUX)
    Blend: AUG-CC-PVTZ-RI
    Molecular point group: c1

    Geometry (in Angstrom), charge = 0, multiplicity = 1:

       Center              X                  Y                   Z               Mass
    ------------   -----------------  -----------------  -----------------  -----------------
         O           -0.078087706363     1.029152867345     0.692733151312    15.994914619570
         O            0.001509293637    -2.437778132655    -0.064931848688    15.994914619570
         O           -1.802580706363     1.360043867345    -0.857636848688    15.994914619570
         O            2.769417293637     0.841425867345     0.181286151312    15.994914619570
         C           -0.385067006363    -1.083909832655    -0.296193348688    12.000000000000
         C            0.632398293637    -0.171733132655     0.322508151312    12.000000000000
         C           -1.685266706363    -0.646780132655     0.366293151312    12.000000000000
         C           -1.462952706363     0.848757867345     0.419398151312    12.000000000000
         C            1.789647293637     0.148390867345    -0.585042848688    12.000000000000
         H           -0.464053706363    -0.897574132655    -1.396085848688     1.007825032230
         H            1.011614293637    -0.654687132655     1.236048151312     1.007825032230
         H           -2.601649706363    -0.905642132655    -0.168997848688     1.007825032230
         H           -1.711963706363    -1.065242132655     1.377248151312     1.007825032230
         H           -2.006922706363     1.379582867345     1.209500151312     1.007825032230
         H            1.412960293637     0.759865867345    -1.418739848688     1.007825032230
         H            2.181052293637    -0.798490132655    -0.988421848688     1.007825032230
         H           -0.648536706363    -3.021324132655    -0.504340848688     1.007825032230
         H           -1.557783706363     2.305861867345    -0.854977848688     1.007825032230
         H            3.487594293637     1.093578867345    -0.423130848688     1.007825032230

  Basis Set: AUG-CC-PVTZ
    Blend: AUG-CC-PVTZ
  Basis Set: (AUG-CC-PVTZ AUX)
    Blend: AUG-CC-PVTZ-JKFIT
	 Reference Energy          =    -494.7808529765139838 [Eh]
	 Singles Energy            =      -0.0000000000000000 [Eh]
	 Same-Spin Energy          =      -0.4829593110619344 [Eh]
	 Opposite-Spin Energy      =      -1.5130394208445930 [Eh]
	 Correlation Energy        =      -1.9959987319065273 [Eh]
	 Total Energy              =    -496.7768517084205087 [Eh]

	 ================> DF-SCS-MP2 Energies <==================
	-----------------------------------------------------------
	 SCS Same-Spin Scale       =       0.3333333333333333 [-]
	 SCS Opposite-Spin Scale   =       1.2000000000000000 [-]
	 SCS Same-Spin Energy      =      -0.1609864370206448 [Eh]
	 SCS Opposite-Spin Energy  =      -1.8156473050135116 [Eh]
	 SCS Correlation Energy    =      -1.9766337420341564 [Eh]
	 SCS Total Energy          =    -496.7574867185481367 [Eh]
	-----------------------------------------------------------

  Dipole Moment: [D]
     X:    -1.1536      Y:    -0.4581      Z:    -1.8419     Total:     2.2211

*** Psi4 exiting successfully. Buy a developer a beer!
