                               Psi4 1.4a3.dev225

  ==> Input File <==

--------------------------------------------------------------------------
#psi4
#
memory 32 gb

molecule  {
0 1
  O        0.0779330    -0.9269250    -0.8850860
  O       -0.5497830     2.4054250     0.0105510
  O       -1.2273040    -1.7124440     0.8968780
  O        2.8355650    -0.3742720    -0.2242840
  C       -0.6080970     1.0161320     0.3256370
  C        0.5731950     0.3283540    -0.3705440
  C       -1.8147930     0.2671960    -0.2390730
  C       -1.2359040    -1.1221150    -0.3954320
  C        1.7465980     0.1105970     0.5541480
  H       -0.5498730     0.8655980     1.4125560
  H        0.8905780     0.9380060    -1.2243810
  H       -2.7151169     0.2878390     0.4144263
  H       -2.0570860     0.6846600    -1.2212740
  H       -1.7431510    -1.7703690    -1.1193200
  H        1.4450650    -0.6065030     1.3308310
  H        1.9882130     1.0713000     1.0354480
  H       -1.2210140     2.8543510     0.5524830
  H       -0.6896120    -2.5214440     0.8182530
  H        3.5785240    -0.5383230     0.3798300
units angstrom
no_reorient  #important for SAPT in psi4, default
symmetry c1  #important for SAPT in psi4, default
}

set PROPERTIES_ORIGIN ["COM"]
properties('MP2/aug-cc-pvtz', properties = ['dipole'])
--------------------------------------------------------------------------

    Molecular point group: c1
  Charge       = 0
  Multiplicity = 1
  Basis Set: AUG-CC-PVTZ
    Blend: AUG-CC-PVTZ
  Basis Set: (AUG-CC-PVTZ AUX)
    Blend: AUG-CC-PVTZ-JKFIT

    Orbital Energies [Eh]
    ---------------------

    Doubly Occupied:

       1A    -20.570967     2A    -20.569505     3A    -20.559830
       4A    -20.559049     5A    -11.336842     6A    -11.290395
       7A    -11.277858     8A    -11.276679     9A    -11.231677
      10A     -1.417915    11A     -1.369677    12A     -1.357964
      13A     -1.336001    14A     -1.060341    15A     -1.025139
      16A     -0.898188    17A     -0.819483    18A     -0.795434
      19A     -0.742498    20A     -0.702795    21A     -0.682902
      22A     -0.675170    23A     -0.645640    24A     -0.628402
      25A     -0.612817    26A     -0.573855    27A     -0.564067
      28A     -0.558487    29A     -0.533402    30A     -0.522016
      31A     -0.506321    32A     -0.483478    33A     -0.465020
      34A     -0.449196    35A     -0.443117    36A     -0.428106

  @DF-RHF Final Energy:  -494.78150089788977

   => Energetics <=

    Nuclear Repulsion Energy =            510.9394420601394700
    One-Electron Energy =               -1693.5014200835721567
    Two-Electron Energy =                 687.7804771255429159
    Total Energy =                       -494.7815008978897140
  Basis Set: (AUG-CC-PVTZ AUX)
    Blend: AUG-CC-PVTZ-RI
    Molecular point group: c1

    Geometry (in Angstrom), charge = 0, multiplicity = 1:

       Center              X                  Y                   Z               Mass
    ------------   -----------------  -----------------  -----------------  -----------------
         O            0.070272787582    -0.917590374122    -0.867662707498    15.994914619570
         O           -0.557443212418     2.414759625878     0.027974292502    15.994914619570
         O           -1.234964212418    -1.703109374122     0.914301292502    15.994914619570
         O            2.827904787582    -0.364937374122    -0.206860707498    15.994914619570
         C           -0.615757212418     1.025466625878     0.343060292502    12.000000000000
         C            0.565534787582     0.337688625878    -0.353120707498    12.000000000000
         C           -1.822453212418     0.276530625878    -0.221649707498    12.000000000000
         C           -1.243564212418    -1.112780374122    -0.378008707498    12.000000000000
         C            1.738937787582     0.119931625878     0.571571292502    12.000000000000
         H           -0.557533212418     0.874932625878     1.429979292502     1.007825032230
         H            0.882917787582     0.947340625878    -1.206957707498     1.007825032230
         H           -2.722777112418     0.297173625878     0.431849592502     1.007825032230
         H           -2.064746212418     0.693994625878    -1.203850707498     1.007825032230
         H           -1.750811212418    -1.761034374122    -1.101896707498     1.007825032230
         H            1.437404787582    -0.597168374122     1.348254292502     1.007825032230
         H            1.980552787582     1.080634625878     1.052871292502     1.007825032230
         H           -1.228674212418     2.863685625878     0.569906292502     1.007825032230
         H           -0.697272212418    -2.512109374122     0.835676292502     1.007825032230
         H            3.570863787582    -0.528988374122     0.397253292502     1.007825032230

  Basis Set: AUG-CC-PVTZ
    Blend: AUG-CC-PVTZ
  Basis Set: (AUG-CC-PVTZ AUX)
    Blend: AUG-CC-PVTZ-JKFIT
	 Reference Energy          =    -494.7815008978897708 [Eh]
	 Singles Energy            =      -0.0000000000000000 [Eh]
	 Same-Spin Energy          =      -0.4828506719643909 [Eh]
	 Opposite-Spin Energy      =      -1.5133604933240441 [Eh]
	 Correlation Energy        =      -1.9962111652884351 [Eh]
	 Total Energy              =    -496.7777120631782282 [Eh]

	 ================> DF-SCS-MP2 Energies <==================
	-----------------------------------------------------------
	 SCS Same-Spin Scale       =       0.3333333333333333 [-]
	 SCS Opposite-Spin Scale   =       1.2000000000000000 [-]
	 SCS Same-Spin Energy      =      -0.1609502239881303 [Eh]
	 SCS Opposite-Spin Energy  =      -1.8160325919888529 [Eh]
	 SCS Correlation Energy    =      -1.9769828159769831 [Eh]
	 SCS Total Energy          =    -496.7584837138667808 [Eh]
	-----------------------------------------------------------

  Dipole Moment: [D]
     X:    -1.0011      Y:     0.1487      Z:     2.2556     Total:     2.4723

*** Psi4 exiting successfully. Buy a developer a beer!
