                               Psi4 1.3.2 release

  ==> Input File <==

--------------------------------------------------------------------------
#psi4
#
memory 32 gb

molecule  {
0 1
  O       -0.0768340     1.0301030     0.6945190
  O        0.0027630    -2.4368280    -0.0631460
  O       -1.7899383     1.4063522    -0.8397621
  O        2.7706710     0.8423760     0.1830720
  C       -0.3978190    -1.0935740    -0.3143580
  C        0.6336520    -0.1707830     0.3242940
  C       -1.6840130    -0.6458300     0.3680790
  C       -1.4616990     0.8497080     0.4211840
  C        1.7909010     0.1493410    -0.5832570
  H       -0.4628000    -0.8966240    -1.3943000
  H        1.0128680    -0.6537370     1.2378340
  H       -2.6003960    -0.9046920    -0.1672120
  H       -1.7107100    -1.0642920     1.3790340
  H       -2.0056690     1.3805330     1.2112860
  H        1.4142140     0.7608160    -1.4169540
  H        2.1823060    -0.7975400    -0.9866360
  H       -0.6472830    -3.0203740    -0.5025550
  H       -1.5565300     2.3068120    -0.8531920
  H        3.4888480     1.0945290    -0.4213450
units angstrom
no_reorient  #important for SAPT in psi4, default
symmetry c1  #important for SAPT in psi4, default
}

set PROPERTIES_ORIGIN ["COM"]
properties('MP2/aug-cc-pvtz', properties = ['dipole'])
--------------------------------------------------------------------------

    Molecular point group: c1
  Charge       = 0
  Multiplicity = 1
  Basis Set: AUG-CC-PVTZ
    Blend: AUG-CC-PVTZ
  Basis Set: (AUG-CC-PVTZ AUX)
    Blend: AUG-CC-PVTZ-JKFIT

    Orbital Energies [Eh]
    ---------------------

    Doubly Occupied:

       1A    -20.572929     2A    -20.562598     3A    -20.557948
       4A    -20.557578     5A    -11.337990     6A    -11.289539
       7A    -11.277039     8A    -11.275252     9A    -11.232178
      10A     -1.417869    11A     -1.371133    12A     -1.357538
      13A     -1.338604    14A     -1.064463    15A     -1.026745
      16A     -0.899317    17A     -0.823598    18A     -0.795649
      19A     -0.748611    20A     -0.702610    21A     -0.685515
      22A     -0.674820    23A     -0.642110    24A     -0.628721
      25A     -0.618870    26A     -0.573286    27A     -0.565932
      28A     -0.556515    29A     -0.539198    30A     -0.518847
      31A     -0.507034    32A     -0.484438    33A     -0.463386
      34A     -0.447577    35A     -0.441118    36A     -0.429512

  @DF-RHF Final Energy:  -494.78304523823562

   => Energetics <=

    Nuclear Repulsion Energy =            509.2938257893919740
    One-Electron Energy =               -1690.1816018420195178
    Two-Electron Energy =                 686.1047308143919281
    Total Energy =                       -494.7830452382355588
  Basis Set: (AUG-CC-PVTZ AUX)
    Blend: AUG-CC-PVTZ-RI
    Molecular point group: c1

    Geometry (in Angstrom), charge = 0, multiplicity = 1:

       Center              X                  Y                   Z               Mass
    ------------   -----------------  -----------------  -----------------  -----------------
         O           -0.078192831710     1.024691146722     0.692599368964    15.994914619570
         O            0.001404168290    -2.442239853278    -0.065065631036    15.994914619570
         O           -1.791297131710     1.400940346722    -0.841681731036    15.994914619570
         O            2.769312168290     0.836964146722     0.181152368964    15.994914619570
         C           -0.399177831710    -1.098985853278    -0.316277631036    12.000000000000
         C            0.632293168290    -0.176194853278     0.322374368964    12.000000000000
         C           -1.685371831710    -0.651241853278     0.366159368964    12.000000000000
         C           -1.463057831710     0.844296146722     0.419264368964    12.000000000000
         C            1.789542168290     0.143929146722    -0.585176631036    12.000000000000
         H           -0.464158831710    -0.902035853278    -1.396219631036     1.007825032230
         H            1.011509168290    -0.659148853278     1.235914368964     1.007825032230
         H           -2.601754831710    -0.910103853278    -0.169131631036     1.007825032230
         H           -1.712068831710    -1.069703853278     1.377114368964     1.007825032230
         H           -2.007027831710     1.375121146722     1.209366368964     1.007825032230
         H            1.412855168290     0.755404146722    -1.418873631036     1.007825032230
         H            2.180947168290    -0.802951853278    -0.988555631036     1.007825032230
         H           -0.648641831710    -3.025785853278    -0.504474631036     1.007825032230
         H           -1.557888831710     2.301400146722    -0.855111631036     1.007825032230
         H            3.487489168290     1.089117146722    -0.423264631036     1.007825032230

  Basis Set: AUG-CC-PVTZ
    Blend: AUG-CC-PVTZ
  Basis Set: (AUG-CC-PVTZ AUX)
    Blend: AUG-CC-PVTZ-JKFIT
	 Reference Energy          =    -494.7830452382356157 [Eh]
	 Singles Energy            =      -0.0000000000000000 [Eh]
	 Same-Spin Energy          =      -0.4820844083644725 [Eh]
	 Opposite-Spin Energy      =      -1.5111633664920872 [Eh]
	 Correlation Energy        =      -1.9932477748565596 [Eh]
	 Total Energy              =    -496.7762930130921859 [Eh]

	 ================> DF-SCS-MP2 Energies <==================
	-----------------------------------------------------------
	 SCS Same-Spin Scale       =       0.3333333333333333 [-]
	 SCS Opposite-Spin Scale   =       1.2000000000000000 [-]
	 SCS Same-Spin Energy      =      -0.1606948027881575 [Eh]
	 SCS Opposite-Spin Energy  =      -1.8133960397905045 [Eh]
	 SCS Correlation Energy    =      -1.9740908425786619 [Eh]
	 SCS Total Energy          =    -496.7571360808142913 [Eh]
	-----------------------------------------------------------

  Dipole Moment: [D]
     X:    -1.1656      Y:    -0.5754      Z:    -1.8641     Total:     2.2726

*** Psi4 exiting successfully. Buy a developer a beer!
