                               Psi4 1.3.2 release

  ==> Input File <==

--------------------------------------------------------------------------
#psi4
#
memory 32 gb

molecule  {
0 1
  O       -0.0768340     1.0301030     0.6945190
  O        0.0027630    -2.4368280    -0.0631460
  O       -1.8013270     1.3609940    -0.8558510
  O        2.7706710     0.8423760     0.1830720
  C       -0.3823394    -1.0427495    -0.3164579
  C        0.6336520    -0.1707830     0.3242940
  C       -1.6840130    -0.6458300     0.3680790
  C       -1.4616990     0.8497080     0.4211840
  C        1.7909010     0.1493410    -0.5832570
  H       -0.4628000    -0.8966240    -1.3943000
  H        1.0128680    -0.6537370     1.2378340
  H       -2.6003960    -0.9046920    -0.1672120
  H       -1.7107100    -1.0642920     1.3790340
  H       -2.0056690     1.3805330     1.2112860
  H        1.4142140     0.7608160    -1.4169540
  H        2.1823060    -0.7975400    -0.9866360
  H       -0.6472830    -3.0203740    -0.5025550
  H       -1.5565300     2.3068120    -0.8531920
  H        3.4888480     1.0945290    -0.4213450
units angstrom
no_reorient  #important for SAPT in psi4, default
symmetry c1  #important for SAPT in psi4, default
}

set PROPERTIES_ORIGIN ["COM"]
properties('MP2/aug-cc-pvtz', properties = ['dipole'])
--------------------------------------------------------------------------

    Molecular point group: c1
  Charge       = 0
  Multiplicity = 1
  Basis Set: AUG-CC-PVTZ
    Blend: AUG-CC-PVTZ
  Basis Set: (AUG-CC-PVTZ AUX)
    Blend: AUG-CC-PVTZ-JKFIT

    Orbital Energies [Eh]
    ---------------------

    Doubly Occupied:

       1A    -20.570035     2A    -20.566307     3A    -20.559282
       4A    -20.558873     5A    -11.337600     6A    -11.288939
       7A    -11.277222     8A    -11.276290     9A    -11.231687
      10A     -1.417093    11A     -1.359403    12A     -1.351830
      13A     -1.335577    14A     -1.068864    15A     -1.028922
      16A     -0.899300    17A     -0.822431    18A     -0.796099
      19A     -0.743347    20A     -0.702354    21A     -0.678301
      22A     -0.674939    23A     -0.642835    24A     -0.629749
      25A     -0.611915    26A     -0.573915    27A     -0.565668
      28A     -0.547532    29A     -0.533631    30A     -0.521145
      31A     -0.509967    32A     -0.486029    33A     -0.469757
      34A     -0.448676    35A     -0.442549    36A     -0.430923

  @DF-RHF Final Energy:  -494.77817945412278

   => Energetics <=

    Nuclear Repulsion Energy =            509.8172372116530937
    One-Electron Energy =               -1691.2728555885689730
    Two-Electron Energy =                 686.6774389227931579
    Total Energy =                       -494.7781794541227782
  Basis Set: (AUG-CC-PVTZ AUX)
    Blend: AUG-CC-PVTZ-RI
    Molecular point group: c1

    Geometry (in Angstrom), charge = 0, multiplicity = 1:

       Center              X                  Y                   Z               Mass
    ------------   -----------------  -----------------  -----------------  -----------------
         O           -0.078219640392     1.025553509393     0.694706961006    15.994914619570
         O            0.001377359608    -2.441377490607    -0.062958038994    15.994914619570
         O           -1.802712640392     1.356444509393    -0.855663038994    15.994914619570
         O            2.769285359608     0.837826509393     0.183259961006    15.994914619570
         C           -0.383725040392    -1.047298990607    -0.316269938994    12.000000000000
         C            0.632266359608    -0.175332490607     0.324481961006    12.000000000000
         C           -1.685398640392    -0.650379490607     0.368266961006    12.000000000000
         C           -1.463084640392     0.845158509393     0.421371961006    12.000000000000
         C            1.789515359608     0.144791509393    -0.583069038994    12.000000000000
         H           -0.464185640392    -0.901173490607    -1.394112038994     1.007825032230
         H            1.011482359608    -0.658286490607     1.238021961006     1.007825032230
         H           -2.601781640392    -0.909241490607    -0.167024038994     1.007825032230
         H           -1.712095640392    -1.068841490607     1.379221961006     1.007825032230
         H           -2.007054640392     1.375983509393     1.211473961006     1.007825032230
         H            1.412828359608     0.756266509393    -1.416766038994     1.007825032230
         H            2.180920359608    -0.802089490607    -0.986448038994     1.007825032230
         H           -0.648668640392    -3.024923490607    -0.502367038994     1.007825032230
         H           -1.557915640392     2.302262509393    -0.853004038994     1.007825032230
         H            3.487462359608     1.089979509393    -0.421157038994     1.007825032230

  Basis Set: AUG-CC-PVTZ
    Blend: AUG-CC-PVTZ
  Basis Set: (AUG-CC-PVTZ AUX)
    Blend: AUG-CC-PVTZ-JKFIT
	 Reference Energy          =    -494.7781794541227782 [Eh]
	 Singles Energy            =      -0.0000000000000000 [Eh]
	 Same-Spin Energy          =      -0.4831530890017889 [Eh]
	 Opposite-Spin Energy      =      -1.5137949913786066 [Eh]
	 Correlation Energy        =      -1.9969480803803954 [Eh]
	 Total Energy              =    -496.7751275345031559 [Eh]

	 ================> DF-SCS-MP2 Energies <==================
	-----------------------------------------------------------
	 SCS Same-Spin Scale       =       0.3333333333333333 [-]
	 SCS Opposite-Spin Scale   =       1.2000000000000000 [-]
	 SCS Same-Spin Energy      =      -0.1610510296672630 [Eh]
	 SCS Opposite-Spin Energy  =      -1.8165539896543279 [Eh]
	 SCS Correlation Energy    =      -1.9776050193215908 [Eh]
	 SCS Total Energy          =    -496.7557844734443506 [Eh]
	-----------------------------------------------------------

  Dipole Moment: [D]
     X:    -1.1699      Y:    -0.3100      Z:    -1.8685     Total:     2.2262

*** Psi4 exiting successfully. Buy a developer a beer!
