                               Psi4 1.3.2 release

  ==> Input File <==

--------------------------------------------------------------------------
#psi4
#
memory 32 gb

molecule  {
0 1
  O       -0.0768340     1.0301030     0.6945190
  O        0.0027630    -2.4368280    -0.0631460
  O       -1.8013270     1.3609940    -0.8558510
  O        2.7706710     0.8423760     0.1830720
  C       -0.4577151    -1.1346354    -0.3920214
  C        0.6336520    -0.1707830     0.3242940
  C       -1.6840130    -0.6458300     0.3680790
  C       -1.4616990     0.8497080     0.4211840
  C        1.7909010     0.1493410    -0.5832570
  H       -0.4628000    -0.8966240    -1.3943000
  H        1.0128680    -0.6537370     1.2378340
  H       -2.6003960    -0.9046920    -0.1672120
  H       -1.7107100    -1.0642920     1.3790340
  H       -2.0056690     1.3805330     1.2112860
  H        1.4142140     0.7608160    -1.4169540
  H        2.1823060    -0.7975400    -0.9866360
  H       -0.6472830    -3.0203740    -0.5025550
  H       -1.5565300     2.3068120    -0.8531920
  H        3.4888480     1.0945290    -0.4213450
units angstrom
no_reorient  #important for SAPT in psi4, default
symmetry c1  #important for SAPT in psi4, default
}

set PROPERTIES_ORIGIN ["COM"]
properties('MP2/aug-cc-pvtz', properties = ['dipole'])
--------------------------------------------------------------------------

    Molecular point group: c1
  Charge       = 0
  Multiplicity = 1
  Basis Set: AUG-CC-PVTZ
    Blend: AUG-CC-PVTZ
  Basis Set: (AUG-CC-PVTZ AUX)
    Blend: AUG-CC-PVTZ-JKFIT

    Orbital Energies [Eh]
    ---------------------

    Doubly Occupied:

       1A    -20.576192     2A    -20.569300     3A    -20.556473
       4A    -20.556277     5A    -11.336992     6A    -11.287442
       7A    -11.277939     8A    -11.273139     9A    -11.230723
      10A     -1.412883    11A     -1.374263    12A     -1.355626
      13A     -1.333379    14A     -1.057287    15A     -1.018258
      16A     -0.894958    17A     -0.822945    18A     -0.793411
      19A     -0.742826    20A     -0.700445    21A     -0.683190
      22A     -0.672757    23A     -0.641534    24A     -0.627671
      25A     -0.619263    26A     -0.573868    27A     -0.567726
      28A     -0.559976    29A     -0.539461    30A     -0.516768
      31A     -0.500061    32A     -0.487307    33A     -0.456801
      34A     -0.444893    35A     -0.435769    36A     -0.427945

  @DF-RHF Final Energy:  -494.76960405543650

   => Energetics <=

    Nuclear Repulsion Energy =            508.0004752679202511
    One-Electron Energy =               -1687.6886647018052372
    Two-Electron Energy =                 684.9185853784483697
    Total Energy =                       -494.7696040554365027
  Basis Set: (AUG-CC-PVTZ AUX)
    Blend: AUG-CC-PVTZ-RI
    Molecular point group: c1

    Geometry (in Angstrom), charge = 0, multiplicity = 1:

       Center              X                  Y                   Z               Mass
    ------------   -----------------  -----------------  -----------------  -----------------
         O           -0.071472493520     1.033778542962     0.701470918524    15.994914619570
         O            0.008124506480    -2.433152457038    -0.056194081476    15.994914619570
         O           -1.795965493520     1.364669542962    -0.848899081476    15.994914619570
         O            2.776032506480     0.846051542962     0.190023918524    15.994914619570
         C           -0.452353593520    -1.130959857038    -0.385069481476    12.000000000000
         C            0.639013506480    -0.167107457038     0.331245918524    12.000000000000
         C           -1.678651493520    -0.642154457038     0.375030918524    12.000000000000
         C           -1.456337493520     0.853383542962     0.428135918524    12.000000000000
         C            1.796262506480     0.153016542962    -0.576305081476    12.000000000000
         H           -0.457438493520    -0.892948457038    -1.387348081476     1.007825032230
         H            1.018229506480    -0.650061457038     1.244785918524     1.007825032230
         H           -2.595034493520    -0.901016457038    -0.160260081476     1.007825032230
         H           -1.705348493520    -1.060616457038     1.385985918524     1.007825032230
         H           -2.000307493520     1.384208542962     1.218237918524     1.007825032230
         H            1.419575506480     0.764491542962    -1.410002081476     1.007825032230
         H            2.187667506480    -0.793864457038    -0.979684081476     1.007825032230
         H           -0.641921493520    -3.016698457038    -0.495603081476     1.007825032230
         H           -1.551168493520     2.310487542962    -0.846240081476     1.007825032230
         H            3.494209506480     1.098204542962    -0.414393081476     1.007825032230

  Basis Set: AUG-CC-PVTZ
    Blend: AUG-CC-PVTZ
  Basis Set: (AUG-CC-PVTZ AUX)
    Blend: AUG-CC-PVTZ-JKFIT
	 Reference Energy          =    -494.7696040554365027 [Eh]
	 Singles Energy            =      -0.0000000000000000 [Eh]
	 Same-Spin Energy          =      -0.4830759714533823 [Eh]
	 Opposite-Spin Energy      =      -1.5140652605289180 [Eh]
	 Correlation Energy        =      -1.9971412319823003 [Eh]
	 Total Energy              =    -496.7667452874188143 [Eh]

	 ================> DF-SCS-MP2 Energies <==================
	-----------------------------------------------------------
	 SCS Same-Spin Scale       =       0.3333333333333333 [-]
	 SCS Opposite-Spin Scale   =       1.2000000000000000 [-]
	 SCS Same-Spin Energy      =      -0.1610253238177941 [Eh]
	 SCS Opposite-Spin Energy  =      -1.8168783126347015 [Eh]
	 SCS Correlation Energy    =      -1.9779036364524956 [Eh]
	 SCS Total Energy          =    -496.7475076918889840 [Eh]
	-----------------------------------------------------------

  Dipole Moment: [D]
     X:    -1.1966      Y:    -0.5644      Z:    -1.9224     Total:     2.3337

*** Psi4 exiting successfully. Buy a developer a beer!
