                               Psi4 1.3.2 release

  ==> Input File <==

--------------------------------------------------------------------------
#psi4
#
memory 32 gb

molecule  {
0 1
  O       -0.0768340     1.0301030     0.6945190
  O        0.0027630    -2.4368280    -0.0631460
  O       -1.8013270     1.3609940    -0.8558510
  O        2.7706710     0.8423760     0.1830720
  C       -0.3978190    -1.0935740    -0.3143580
  C        0.6336520    -0.1707830     0.3242940
  C       -1.7003511    -0.6439016     0.3887324
  C       -1.4616990     0.8497080     0.4211840
  C        1.7909010     0.1493410    -0.5832570
  H       -0.4628000    -0.8966240    -1.3943000
  H        1.0128680    -0.6537370     1.2378340
  H       -2.6003960    -0.9046920    -0.1672120
  H       -1.7107100    -1.0642920     1.3790340
  H       -2.0056690     1.3805330     1.2112860
  H        1.4142140     0.7608160    -1.4169540
  H        2.1823060    -0.7975400    -0.9866360
  H       -0.6472830    -3.0203740    -0.5025550
  H       -1.5565300     2.3068120    -0.8531920
  H        3.4888480     1.0945290    -0.4213450
units angstrom
no_reorient  #important for SAPT in psi4, default
symmetry c1  #important for SAPT in psi4, default
}

set PROPERTIES_ORIGIN ["COM"]
properties('MP2/aug-cc-pvtz', properties = ['dipole'])
--------------------------------------------------------------------------

    Molecular point group: c1
  Charge       = 0
  Multiplicity = 1
  Basis Set: AUG-CC-PVTZ
    Blend: AUG-CC-PVTZ
  Basis Set: (AUG-CC-PVTZ AUX)
    Blend: AUG-CC-PVTZ-JKFIT

    Orbital Energies [Eh]
    ---------------------

    Doubly Occupied:

       1A    -20.572175     2A    -20.569334     3A    -20.558358
       4A    -20.557938     5A    -11.336977     6A    -11.289855
       7A    -11.276825     8A    -11.275178     9A    -11.229755
      10A     -1.414817    11A     -1.369528    12A     -1.356874
      13A     -1.334991    14A     -1.060357    15A     -1.025430
      16A     -0.896879    17A     -0.822743    18A     -0.793083
      19A     -0.744075    20A     -0.700671    21A     -0.682329
      22A     -0.673891    23A     -0.642284    24A     -0.629149
      25A     -0.614993    26A     -0.574042    27A     -0.566505
      28A     -0.555262    29A     -0.540579    30A     -0.519785
      31A     -0.506746    32A     -0.484311    33A     -0.463025
      34A     -0.447169    35A     -0.438158    36A     -0.429252

  @DF-RHF Final Energy:  -494.78125525127524

   => Energetics <=

    Nuclear Repulsion Energy =            508.9499556459402356
    One-Electron Energy =               -1689.5557754410106099
    Two-Electron Energy =                 685.8245645437951907
    Total Energy =                       -494.7812552512751836
  Basis Set: (AUG-CC-PVTZ AUX)
    Blend: AUG-CC-PVTZ-RI
    Molecular point group: c1

    Geometry (in Angstrom), charge = 0, multiplicity = 1:

       Center              X                  Y                   Z               Mass
    ------------   -----------------  -----------------  -----------------  -----------------
         O           -0.075371524951     1.029930373133     0.692670232234    15.994914619570
         O            0.004225475049    -2.437000626867    -0.064994767766    15.994914619570
         O           -1.799864524951     1.360821373133    -0.857699767766    15.994914619570
         O            2.772133475049     0.842203373133     0.181223232234    15.994914619570
         C           -0.396356524951    -1.093746626867    -0.316206767766    12.000000000000
         C            0.635114475049    -0.170955626867     0.322445232234    12.000000000000
         C           -1.698888624951    -0.644074226867     0.386883632234    12.000000000000
         C           -1.460236524951     0.849535373133     0.419335232234    12.000000000000
         C            1.792363475049     0.149168373133    -0.585105767766    12.000000000000
         H           -0.461337524951    -0.896796626867    -1.396148767766     1.007825032230
         H            1.014330475049    -0.653909626867     1.235985232234     1.007825032230
         H           -2.598933524951    -0.904864626867    -0.169060767766     1.007825032230
         H           -1.709247524951    -1.064464626867     1.377185232234     1.007825032230
         H           -2.004206524951     1.380360373133     1.209437232234     1.007825032230
         H            1.415676475049     0.760643373133    -1.418802767766     1.007825032230
         H            2.183768475049    -0.797712626867    -0.988484767766     1.007825032230
         H           -0.645820524951    -3.020546626867    -0.504403767766     1.007825032230
         H           -1.555067524951     2.306639373133    -0.855040767766     1.007825032230
         H            3.490310475049     1.094356373133    -0.423193767766     1.007825032230

  Basis Set: AUG-CC-PVTZ
    Blend: AUG-CC-PVTZ
  Basis Set: (AUG-CC-PVTZ AUX)
    Blend: AUG-CC-PVTZ-JKFIT
	 Reference Energy          =    -494.7812552512752404 [Eh]
	 Singles Energy            =      -0.0000000000000000 [Eh]
	 Same-Spin Energy          =      -0.4827570770081530 [Eh]
	 Opposite-Spin Energy      =      -1.5129638113348483 [Eh]
	 Correlation Energy        =      -1.9957208883430013 [Eh]
	 Total Energy              =    -496.7769761396182275 [Eh]

	 ================> DF-SCS-MP2 Energies <==================
	-----------------------------------------------------------
	 SCS Same-Spin Scale       =       0.3333333333333333 [-]
	 SCS Opposite-Spin Scale   =       1.2000000000000000 [-]
	 SCS Same-Spin Energy      =      -0.1609190256693843 [Eh]
	 SCS Opposite-Spin Energy  =      -1.8155565736018178 [Eh]
	 SCS Correlation Energy    =      -1.9764755992712022 [Eh]
	 SCS Total Energy          =    -496.7577308505464657 [Eh]
	-----------------------------------------------------------

  Dipole Moment: [D]
     X:    -1.1522      Y:    -0.5004      Z:    -1.8656     Total:     2.2491

*** Psi4 exiting successfully. Buy a developer a beer!
