                               Psi4 1.3.2 release

  ==> Input File <==

--------------------------------------------------------------------------
#psi4
#
memory 32 gb

molecule  {
0 1
  O       -0.0768340     1.0301030     0.6945190
  O        0.0027630    -2.4368280    -0.0631460
  O       -1.8013270     1.3609940    -0.8558510
  O        2.7706710     0.8423760     0.1830720
  C       -0.3978190    -1.0935740    -0.3143580
  C        0.6336520    -0.1707830     0.3242940
  C       -1.6840130    -0.6458300     0.3680790
  C       -1.4616990     0.8497080     0.4211840
  C        1.7909010     0.1493410    -0.5832570
  H       -0.4628000    -0.8966240    -1.3943000
  H        1.0128680    -0.6537370     1.2378340
  H       -2.4326194    -0.8572981    -0.0692079
  H       -1.7107100    -1.0642920     1.3790340
  H       -2.0056690     1.3805330     1.2112860
  H        1.4142140     0.7608160    -1.4169540
  H        2.1823060    -0.7975400    -0.9866360
  H       -0.6472830    -3.0203740    -0.5025550
  H       -1.5565300     2.3068120    -0.8531920
  H        3.4888480     1.0945290    -0.4213450
units angstrom
no_reorient  #important for SAPT in psi4, default
symmetry c1  #important for SAPT in psi4, default
}

set PROPERTIES_ORIGIN ["COM"]
properties('MP2/aug-cc-pvtz', properties = ['dipole'])
--------------------------------------------------------------------------

    Molecular point group: c1
  Charge       = 0
  Multiplicity = 1
  Basis Set: AUG-CC-PVTZ
    Blend: AUG-CC-PVTZ
  Basis Set: (AUG-CC-PVTZ AUX)
    Blend: AUG-CC-PVTZ-JKFIT

    Orbital Energies [Eh]
    ---------------------

    Doubly Occupied:

       1A    -20.571996     2A    -20.569411     3A    -20.557335
       4A    -20.556830     5A    -11.335943     6A    -11.287635
       7A    -11.275767     8A    -11.274420     9A    -11.206283
      10A     -1.414522    11A     -1.369587    12A     -1.356352
      13A     -1.334523    14A     -1.072524    15A     -1.028530
      16A     -0.897696    17A     -0.838730    18A     -0.794568
      19A     -0.743341    20A     -0.705538    21A     -0.685847
      22A     -0.678305    23A     -0.643184    24A     -0.635982
      25A     -0.617386    26A     -0.577914    27A     -0.570136
      28A     -0.555570    29A     -0.538602    30A     -0.521486
      31A     -0.509577    32A     -0.484268    33A     -0.463110
      34A     -0.447017    35A     -0.440791    36A     -0.428864

  @DF-RHF Final Energy:  -494.74771248412799

   => Energetics <=

    Nuclear Repulsion Energy =            510.5692584384925112
    One-Electron Energy =               -1692.6548051112943085
    Two-Electron Energy =                 687.3378341886736962
    Total Energy =                       -494.7477124841279874
  Basis Set: (AUG-CC-PVTZ AUX)
    Blend: AUG-CC-PVTZ-RI
    Molecular point group: c1

    Geometry (in Angstrom), charge = 0, multiplicity = 1:

       Center              X                  Y                   Z               Mass
    ------------   -----------------  -----------------  -----------------  -----------------
         O           -0.078095322902     1.029746691625     0.693782212990    15.994914619570
         O            0.001501677098    -2.437184308375    -0.063882787010    15.994914619570
         O           -1.802588322902     1.360637691625    -0.856587787010    15.994914619570
         O            2.769409677098     0.842019691625     0.182335212990    15.994914619570
         C           -0.399080322902    -1.093930308375    -0.315094787010    12.000000000000
         C            0.632390677098    -0.171139308375     0.323557212990    12.000000000000
         C           -1.685274322902    -0.646186308375     0.367342212990    12.000000000000
         C           -1.462960322902     0.849351691625     0.420447212990    12.000000000000
         C            1.789639677098     0.148984691625    -0.583993787010    12.000000000000
         H           -0.464061322902    -0.896980308375    -1.395036787010     1.007825032230
         H            1.011606677098    -0.654093308375     1.237097212990     1.007825032230
         H           -2.433880722902    -0.857654408375    -0.069944687010     1.007825032230
         H           -1.711971322902    -1.064648308375     1.378297212990     1.007825032230
         H           -2.006930322902     1.380176691625     1.210549212990     1.007825032230
         H            1.412952677098     0.760459691625    -1.417690787010     1.007825032230
         H            2.181044677098    -0.797896308375    -0.987372787010     1.007825032230
         H           -0.648544322902    -3.020730308375    -0.503291787010     1.007825032230
         H           -1.557791322902     2.306455691625    -0.853928787010     1.007825032230
         H            3.487586677098     1.094172691625    -0.422081787010     1.007825032230

  Basis Set: AUG-CC-PVTZ
    Blend: AUG-CC-PVTZ
  Basis Set: (AUG-CC-PVTZ AUX)
    Blend: AUG-CC-PVTZ-JKFIT
	 Reference Energy          =    -494.7477124841279874 [Eh]
	 Singles Energy            =      -0.0000000000000000 [Eh]
	 Same-Spin Energy          =      -0.4828685636673660 [Eh]
	 Opposite-Spin Energy      =      -1.5123027764960169 [Eh]
	 Correlation Energy        =      -1.9951713401633828 [Eh]
	 Total Energy              =    -496.7428838242913685 [Eh]

	 ================> DF-SCS-MP2 Energies <==================
	-----------------------------------------------------------
	 SCS Same-Spin Scale       =       0.3333333333333333 [-]
	 SCS Opposite-Spin Scale   =       1.2000000000000000 [-]
	 SCS Same-Spin Energy      =      -0.1609561878891220 [Eh]
	 SCS Opposite-Spin Energy  =      -1.8147633317952201 [Eh]
	 SCS Correlation Energy    =      -1.9757195196843420 [Eh]
	 SCS Total Energy          =    -496.7234320038123201 [Eh]
	-----------------------------------------------------------

  Dipole Moment: [D]
     X:    -1.2242      Y:    -0.5117      Z:    -1.8623     Total:     2.2867

*** Psi4 exiting successfully. Buy a developer a beer!
