                               Psi4 1.3.2 release

  ==> Input File <==

--------------------------------------------------------------------------
#psi4
#
memory 32 gb

molecule  {
0 1
  O       -0.0768340     1.0301030     0.6945190
  O        0.0027630    -2.4368280    -0.0631460
  O       -1.8013270     1.3609940    -0.8558510
  O        2.7706710     0.8423760     0.1830720
  C       -0.4270013    -1.1143902    -0.3536294
  C        0.6336520    -0.1707830     0.3242940
  C       -1.6840130    -0.6458300     0.3680790
  C       -1.4616990     0.8497080     0.4211840
  C        1.7909010     0.1493410    -0.5832570
  H       -0.4628000    -0.8966240    -1.3943000
  H        1.0128680    -0.6537370     1.2378340
  H       -2.6003960    -0.9046920    -0.1672120
  H       -1.7107100    -1.0642920     1.3790340
  H       -2.0056690     1.3805330     1.2112860
  H        1.4142140     0.7608160    -1.4169540
  H        2.1823060    -0.7975400    -0.9866360
  H       -0.6472830    -3.0203740    -0.5025550
  H       -1.5565300     2.3068120    -0.8531920
  H        3.4888480     1.0945290    -0.4213450
units angstrom
no_reorient  #important for SAPT in psi4, default
symmetry c1  #important for SAPT in psi4, default
}

set PROPERTIES_ORIGIN ["COM"]
properties('MP2/aug-cc-pvtz', properties = ['dipole'])
--------------------------------------------------------------------------

    Molecular point group: c1
  Charge       = 0
  Multiplicity = 1
  Basis Set: AUG-CC-PVTZ
    Blend: AUG-CC-PVTZ
  Basis Set: (AUG-CC-PVTZ AUX)
    Blend: AUG-CC-PVTZ-JKFIT

    Orbital Energies [Eh]
    ---------------------

    Doubly Occupied:

       1A    -20.574248     2A    -20.569204     3A    -20.557216
       4A    -20.557206     5A    -11.337036     6A    -11.287795
       7A    -11.277525     8A    -11.274148     9A    -11.230276
      10A     -1.413953    11A     -1.372427    12A     -1.356280
      13A     -1.334195    14A     -1.059751    15A     -1.021691
      16A     -0.895855    17A     -0.821323    18A     -0.794365
      19A     -0.743372    20A     -0.700326    21A     -0.683183
      22A     -0.674137    23A     -0.642003    24A     -0.627810
      25A     -0.618140    26A     -0.573351    27A     -0.566018
      28A     -0.558929    29A     -0.537422    30A     -0.518216
      31A     -0.502917    32A     -0.486012    33A     -0.457845
      34A     -0.446375    35A     -0.440705    36A     -0.429991

  @DF-RHF Final Energy:  -494.77863160645893

   => Energetics <=

    Nuclear Repulsion Energy =            508.6816931210066173
    One-Electron Energy =               -1689.0381594139671506
    Two-Electron Energy =                 685.5778346865015465
    Total Energy =                       -494.7786316064589300
  Basis Set: (AUG-CC-PVTZ AUX)
    Blend: AUG-CC-PVTZ-RI
    Molecular point group: c1

    Geometry (in Angstrom), charge = 0, multiplicity = 1:

       Center              X                  Y                   Z               Mass
    ------------   -----------------  -----------------  -----------------  -----------------
         O           -0.074221794947     1.031966323137     0.698034314118    15.994914619570
         O            0.005375205053    -2.434964676863    -0.059630685882    15.994914619570
         O           -1.798714794947     1.362857323137    -0.852335685882    15.994914619570
         O            2.773283205053     0.844239323137     0.186587314118    15.994914619570
         C           -0.424389094947    -1.112526876863    -0.350114085882    12.000000000000
         C            0.636264205053    -0.168919676863     0.327809314118    12.000000000000
         C           -1.681400794947    -0.643966676863     0.371594314118    12.000000000000
         C           -1.459086794947     0.851571323137     0.424699314118    12.000000000000
         C            1.793513205053     0.151204323137    -0.579741685882    12.000000000000
         H           -0.460187794947    -0.894760676863    -1.390784685882     1.007825032230
         H            1.015480205053    -0.651873676863     1.241349314118     1.007825032230
         H           -2.597783794947    -0.902828676863    -0.163696685882     1.007825032230
         H           -1.708097794947    -1.062428676863     1.382549314118     1.007825032230
         H           -2.003056794947     1.382396323137     1.214801314118     1.007825032230
         H            1.416826205053     0.762679323137    -1.413438685882     1.007825032230
         H            2.184918205053    -0.795676676863    -0.983120685882     1.007825032230
         H           -0.644670794947    -3.018510676863    -0.499039685882     1.007825032230
         H           -1.553917794947     2.308675323137    -0.849676685882     1.007825032230
         H            3.491460205053     1.096392323137    -0.417829685882     1.007825032230

  Basis Set: AUG-CC-PVTZ
    Blend: AUG-CC-PVTZ
  Basis Set: (AUG-CC-PVTZ AUX)
    Blend: AUG-CC-PVTZ-JKFIT
	 Reference Energy          =    -494.7786316064589300 [Eh]
	 Singles Energy            =      -0.0000000000000000 [Eh]
	 Same-Spin Energy          =      -0.4828457204285905 [Eh]
	 Opposite-Spin Energy      =      -1.5132768580038358 [Eh]
	 Correlation Energy        =      -1.9961225784324264 [Eh]
	 Total Energy              =    -496.7747541848913784 [Eh]

	 ================> DF-SCS-MP2 Energies <==================
	-----------------------------------------------------------
	 SCS Same-Spin Scale       =       0.3333333333333333 [-]
	 SCS Opposite-Spin Scale   =       1.2000000000000000 [-]
	 SCS Same-Spin Energy      =      -0.1609485734761968 [Eh]
	 SCS Opposite-Spin Energy  =      -1.8159322296046030 [Eh]
	 SCS Correlation Energy    =      -1.9768808030807998 [Eh]
	 SCS Total Energy          =    -496.7555124095397332 [Eh]
	-----------------------------------------------------------

  Dipole Moment: [D]
     X:    -1.1786      Y:    -0.5278      Z:    -1.8967     Total:     2.2946

*** Psi4 exiting successfully. Buy a developer a beer!
