                               Psi4 1.4a3.dev225

  ==> Input File <==

--------------------------------------------------------------------------
#psi4
#
memory 32 gb

molecule  {
0 1
  O        0.0779330    -0.9269250    -0.8850860
  O       -0.5497830     2.4054250     0.0105510
  O       -1.2273040    -1.7124440     0.8968780
  O        2.8355650    -0.3742720    -0.2242840
  C       -0.6080970     1.0161320     0.3256370
  C        0.5731950     0.3283540    -0.3705440
  C       -1.8147930     0.2671960    -0.2390730
  C       -1.2282528    -1.1404777    -0.3974986
  C        1.7465980     0.1105970     0.5541480
  H       -0.5498730     0.8655980     1.4125560
  H        0.8905780     0.9380060    -1.2243810
  H       -2.6989340     0.2874680     0.4026800
  H       -2.0570860     0.6846600    -1.2212740
  H       -1.7431510    -1.7703690    -1.1193200
  H        1.4450650    -0.6065030     1.3308310
  H        1.9882130     1.0713000     1.0354480
  H       -1.2210140     2.8543510     0.5524830
  H       -0.6896120    -2.5214440     0.8182530
  H        3.5785240    -0.5383230     0.3798300
units angstrom
no_reorient  #important for SAPT in psi4, default
symmetry c1  #important for SAPT in psi4, default
}

set PROPERTIES_ORIGIN ["COM"]
properties('MP2/aug-cc-pvtz', properties = ['dipole'])
--------------------------------------------------------------------------

    Molecular point group: c1
  Charge       = 0
  Multiplicity = 1
  Basis Set: AUG-CC-PVTZ
    Blend: AUG-CC-PVTZ
  Basis Set: (AUG-CC-PVTZ AUX)
    Blend: AUG-CC-PVTZ-JKFIT

    Orbital Energies [Eh]
    ---------------------

    Doubly Occupied:

       1A    -20.570927     2A    -20.570435     3A    -20.559650
       4A    -20.559034     5A    -11.336328     6A    -11.289563
       7A    -11.277928     8A    -11.276689     9A    -11.228889
      10A     -1.419589    11A     -1.369416    12A     -1.358177
      13A     -1.337811    14A     -1.058320    15A     -1.023750
      16A     -0.897976    17A     -0.821010    18A     -0.795572
      19A     -0.742638    20A     -0.702554    21A     -0.683400
      22A     -0.675683    23A     -0.646166    24A     -0.630617
      25A     -0.612975    26A     -0.574717    27A     -0.564841
      28A     -0.558378    29A     -0.532700    30A     -0.522797
      31A     -0.505986    32A     -0.481398    33A     -0.465225
      34A     -0.449154    35A     -0.443412    36A     -0.427134

  @DF-RHF Final Energy:  -494.78197863796208

   => Energetics <=

    Nuclear Repulsion Energy =            510.9199631598585256
    One-Electron Energy =               -1693.4621994479209661
    Two-Electron Energy =                 687.7602576501003568
    Total Energy =                       -494.7819786379620837
  Basis Set: (AUG-CC-PVTZ AUX)
    Blend: AUG-CC-PVTZ-RI
    Molecular point group: c1

    Geometry (in Angstrom), charge = 0, multiplicity = 1:

       Center              X                  Y                   Z               Mass
    ------------   -----------------  -----------------  -----------------  -----------------
         O            0.069466241123    -0.915943874449    -0.867389412058    15.994914619570
         O           -0.558249758877     2.416406125551     0.028247587942    15.994914619570
         O           -1.235770758877    -1.701462874449     0.914574587942    15.994914619570
         O            2.827098241123    -0.363290874449    -0.206587412058    15.994914619570
         C           -0.616563758877     1.027113125551     0.343333587942    12.000000000000
         C            0.564728241123     0.339335125551    -0.352847412058    12.000000000000
         C           -1.823259758877     0.278177125551    -0.221376412058    12.000000000000
         C           -1.236719558877    -1.129496574449    -0.379802012058    12.000000000000
         C            1.738131241123     0.121578125551     0.571844587942    12.000000000000
         H           -0.558339758877     0.876579125551     1.430252587942     1.007825032230
         H            0.882111241123     0.948987125551    -1.206684412058     1.007825032230
         H           -2.707400758877     0.298449125551     0.420376587942     1.007825032230
         H           -2.065552758877     0.695641125551    -1.203577412058     1.007825032230
         H           -1.751617758877    -1.759387874449    -1.101623412058     1.007825032230
         H            1.436598241123    -0.595521874449     1.348527587942     1.007825032230
         H            1.979746241123     1.082281125551     1.053144587942     1.007825032230
         H           -1.229480758877     2.865332125551     0.570179587942     1.007825032230
         H           -0.698078758877    -2.510462874449     0.835949587942     1.007825032230
         H            3.570057241123    -0.527341874449     0.397526587942     1.007825032230

  Basis Set: AUG-CC-PVTZ
    Blend: AUG-CC-PVTZ
  Basis Set: (AUG-CC-PVTZ AUX)
    Blend: AUG-CC-PVTZ-JKFIT
	 Reference Energy          =    -494.7819786379620837 [Eh]
	 Singles Energy            =      -0.0000000000000000 [Eh]
	 Same-Spin Energy          =      -0.4827221156606224 [Eh]
	 Opposite-Spin Energy      =      -1.5130036204523925 [Eh]
	 Correlation Energy        =      -1.9957257361130147 [Eh]
	 Total Energy              =    -496.7777043740750855 [Eh]

	 ================> DF-SCS-MP2 Energies <==================
	-----------------------------------------------------------
	 SCS Same-Spin Scale       =       0.3333333333333333 [-]
	 SCS Opposite-Spin Scale   =       1.2000000000000000 [-]
	 SCS Same-Spin Energy      =      -0.1609073718868741 [Eh]
	 SCS Opposite-Spin Energy  =      -1.8156043445428709 [Eh]
	 SCS Correlation Energy    =      -1.9765117164297450 [Eh]
	 SCS Total Energy          =    -496.7584903543918244 [Eh]
	-----------------------------------------------------------

  Dipole Moment: [D]
     X:    -0.9865      Y:     0.0913      Z:     2.2657     Total:     2.4728

*** Psi4 exiting successfully. Buy a developer a beer!
