                               Psi4 1.3.2 release

  ==> Input File <==

--------------------------------------------------------------------------
#psi4
#
memory 32 gb

molecule  {
0 1
  O       -0.0768340     1.0301030     0.6945190
  O        0.0027630    -2.4368280    -0.0631460
  O       -1.8013270     1.3609940    -0.8558510
  O        2.7706710     0.8423760     0.1830720
  C       -0.3978190    -1.0935740    -0.3143580
  C        0.6336520    -0.1707830     0.3242940
  C       -1.7166165    -0.6415182     0.4093957
  C       -1.4616990     0.8497080     0.4211840
  C        1.7909010     0.1493410    -0.5832570
  H       -0.4628000    -0.8966240    -1.3943000
  H        1.0128680    -0.6537370     1.2378340
  H       -2.6003960    -0.9046920    -0.1672120
  H       -1.7107100    -1.0642920     1.3790340
  H       -2.0056690     1.3805330     1.2112860
  H        1.4142140     0.7608160    -1.4169540
  H        2.1823060    -0.7975400    -0.9866360
  H       -0.6472830    -3.0203740    -0.5025550
  H       -1.5565300     2.3068120    -0.8531920
  H        3.4888480     1.0945290    -0.4213450
units angstrom
no_reorient  #important for SAPT in psi4, default
symmetry c1  #important for SAPT in psi4, default
}

set PROPERTIES_ORIGIN ["COM"]
properties('MP2/aug-cc-pvtz', properties = ['dipole'])
--------------------------------------------------------------------------

    Molecular point group: c1
  Charge       = 0
  Multiplicity = 1
  Basis Set: AUG-CC-PVTZ
    Blend: AUG-CC-PVTZ
  Basis Set: (AUG-CC-PVTZ AUX)
    Blend: AUG-CC-PVTZ-JKFIT

    Orbital Energies [Eh]
    ---------------------

    Doubly Occupied:

       1A    -20.572103     2A    -20.569555     3A    -20.558418
       4A    -20.557932     5A    -11.336855     6A    -11.290880
       7A    -11.276700     8A    -11.275159     9A    -11.229346
      10A     -1.414466    11A     -1.369239    12A     -1.356850
      13A     -1.334917    14A     -1.057647    15A     -1.025663
      16A     -0.896371    17A     -0.824245    18A     -0.791968
      19A     -0.744295    20A     -0.700184    21A     -0.682038
      22A     -0.673103    23A     -0.642275    24A     -0.629798
      25A     -0.613283    26A     -0.575128    27A     -0.567923
      28A     -0.554619    29A     -0.543897    30A     -0.519602
      31A     -0.507162    32A     -0.484022    33A     -0.463318
      34A     -0.446962    35A     -0.434985    36A     -0.428286

  @DF-RHF Final Energy:  -494.77943766660917

   => Energetics <=

    Nuclear Repulsion Energy =            508.5519167804453105
    One-Electron Energy =               -1688.7643175708283252
    Two-Electron Energy =                 685.4329631237739022
    Total Energy =                       -494.7794376666091694
  Basis Set: (AUG-CC-PVTZ AUX)
    Blend: AUG-CC-PVTZ-RI
    Molecular point group: c1

    Geometry (in Angstrom), charge = 0, multiplicity = 1:

       Center              X                  Y                   Z               Mass
    ------------   -----------------  -----------------  -----------------  -----------------
         O           -0.073915551173     1.029717026526     0.690820586792    15.994914619570
         O            0.005681448827    -2.437213973474    -0.066844413208    15.994914619570
         O           -1.798408551173     1.360608026526    -0.859549413208    15.994914619570
         O            2.773589448827     0.841990026526     0.179373586792    15.994914619570
         C           -0.394900551173    -1.093959973474    -0.318056413208    12.000000000000
         C            0.636570448827    -0.171168973474     0.320595586792    12.000000000000
         C           -1.713698051173    -0.641904173474     0.405697286792    12.000000000000
         C           -1.458780551173     0.849322026526     0.417485586792    12.000000000000
         C            1.793819448827     0.148955026526    -0.586955413208    12.000000000000
         H           -0.459881551173    -0.897009973474    -1.397998413208     1.007825032230
         H            1.015786448827    -0.654122973474     1.234135586792     1.007825032230
         H           -2.597477551173    -0.905077973474    -0.170910413208     1.007825032230
         H           -1.707791551173    -1.064677973474     1.375335586792     1.007825032230
         H           -2.002750551173     1.380147026526     1.207587586792     1.007825032230
         H            1.417132448827     0.760430026526    -1.420652413208     1.007825032230
         H            2.185224448827    -0.797925973474    -0.990334413208     1.007825032230
         H           -0.644364551173    -3.020759973474    -0.506253413208     1.007825032230
         H           -1.553611551173     2.306426026526    -0.856890413208     1.007825032230
         H            3.491766448827     1.094143026526    -0.425043413208     1.007825032230

  Basis Set: AUG-CC-PVTZ
    Blend: AUG-CC-PVTZ
  Basis Set: (AUG-CC-PVTZ AUX)
    Blend: AUG-CC-PVTZ-JKFIT
	 Reference Energy          =    -494.7794376666091694 [Eh]
	 Singles Energy            =      -0.0000000000000000 [Eh]
	 Same-Spin Energy          =      -0.4827094030027475 [Eh]
	 Opposite-Spin Energy      =      -1.5130351400847055 [Eh]
	 Correlation Energy        =      -1.9957445430874530 [Eh]
	 Total Energy              =    -496.7751822096965952 [Eh]

	 ================> DF-SCS-MP2 Energies <==================
	-----------------------------------------------------------
	 SCS Same-Spin Scale       =       0.3333333333333333 [-]
	 SCS Opposite-Spin Scale   =       1.2000000000000000 [-]
	 SCS Same-Spin Energy      =      -0.1609031343342491 [Eh]
	 SCS Opposite-Spin Energy  =      -1.8156421681016466 [Eh]
	 SCS Correlation Energy    =      -1.9765453024358957 [Eh]
	 SCS Total Energy          =    -496.7559829690450783 [Eh]
	-----------------------------------------------------------

  Dipole Moment: [D]
     X:    -1.1412      Y:    -0.5170      Z:    -1.8703     Total:     2.2511

*** Psi4 exiting successfully. Buy a developer a beer!
