                               Psi4 1.3.2 release

  ==> Input File <==

--------------------------------------------------------------------------
#psi4
#
memory 32 gb

molecule  {
0 1
  O       -0.0768340     1.0301030     0.6945190
  O        0.0027630    -2.4368280    -0.0631460
  O       -1.8013270     1.3609940    -0.8558510
  O        2.7706710     0.8423760     0.1830720
  C       -0.3978190    -1.0935740    -0.3143580
  C        0.6336520    -0.1707830     0.3242940
  C       -1.6840130    -0.6458300     0.3680790
  C       -1.4616990     0.8497080     0.4211840
  C        1.7909010     0.1493410    -0.5832570
  H       -0.4628000    -0.8966240    -1.3943000
  H        1.0128680    -0.6537370     1.2378340
  H       -2.6233726    -0.9416231    -0.1045876
  H       -1.7107100    -1.0642920     1.3790340
  H       -2.0056690     1.3805330     1.2112860
  H        1.4142140     0.7608160    -1.4169540
  H        2.1823060    -0.7975400    -0.9866360
  H       -0.6472830    -3.0203740    -0.5025550
  H       -1.5565300     2.3068120    -0.8531920
  H        3.4888480     1.0945290    -0.4213450
units angstrom
no_reorient  #important for SAPT in psi4, default
symmetry c1  #important for SAPT in psi4, default
}

set PROPERTIES_ORIGIN ["COM"]
properties('MP2/aug-cc-pvtz', properties = ['dipole'])
--------------------------------------------------------------------------

    Molecular point group: c1
  Charge       = 0
  Multiplicity = 1
  Basis Set: AUG-CC-PVTZ
    Blend: AUG-CC-PVTZ
  Basis Set: (AUG-CC-PVTZ AUX)
    Blend: AUG-CC-PVTZ-JKFIT

    Orbital Energies [Eh]
    ---------------------

    Doubly Occupied:

       1A    -20.572317     2A    -20.568885     3A    -20.558694
       4A    -20.558093     5A    -11.337658     6A    -11.289357
       7A    -11.277338     8A    -11.275366     9A    -11.230374
      10A     -1.415254    11A     -1.369876    12A     -1.357013
      13A     -1.335096    14A     -1.063032    15A     -1.025258
      16A     -0.897555    17A     -0.822549    18A     -0.794298
      19A     -0.743943    20A     -0.701080    21A     -0.682765
      22A     -0.675166    23A     -0.642166    24A     -0.629796
      25A     -0.616793    26A     -0.573259    27A     -0.563871
      28A     -0.555826    29A     -0.533575    30A     -0.520102
      31A     -0.507919    32A     -0.485190    33A     -0.462449
      34A     -0.447817    35A     -0.441608    36A     -0.429705

  @DF-RHF Final Energy:  -494.78118575060046

   => Energetics <=

    Nuclear Repulsion Energy =            509.2541769517009698
    One-Electron Energy =               -1690.1486360222011172
    Two-Electron Energy =                 686.1132733198995766
    Total Energy =                       -494.7811857506004571
  Basis Set: (AUG-CC-PVTZ AUX)
    Blend: AUG-CC-PVTZ-RI
    Molecular point group: c1

    Geometry (in Angstrom), charge = 0, multiplicity = 1:

       Center              X                  Y                   Z               Mass
    ------------   -----------------  -----------------  -----------------  -----------------
         O           -0.076661272113     1.030380632931     0.694048191682    15.994914619570
         O            0.002935727887    -2.436550367069    -0.063616808318    15.994914619570
         O           -1.801154272113     1.361271632931    -0.856321808318    15.994914619570
         O            2.770843727887     0.842653632931     0.182601191682    15.994914619570
         C           -0.397646272113    -1.093296367069    -0.314828808318    12.000000000000
         C            0.633824727887    -0.170505367069     0.323823191682    12.000000000000
         C           -1.683840272113    -0.645552367069     0.367608191682    12.000000000000
         C           -1.461526272113     0.849985632931     0.420713191682    12.000000000000
         C            1.791073727887     0.149618632931    -0.583727808318    12.000000000000
         H           -0.462627272113    -0.896346367069    -1.394770808318     1.007825032230
         H            1.013040727887    -0.653459367069     1.237363191682     1.007825032230
         H           -2.623199872113    -0.941345467069    -0.105058408318     1.007825032230
         H           -1.710537272113    -1.064014367069     1.378563191682     1.007825032230
         H           -2.005496272113     1.380810632931     1.210815191682     1.007825032230
         H            1.414386727887     0.761093632931    -1.417424808318     1.007825032230
         H            2.182478727887    -0.797262367069    -0.987106808318     1.007825032230
         H           -0.647110272113    -3.020096367069    -0.503025808318     1.007825032230
         H           -1.556357272113     2.307089632931    -0.853662808318     1.007825032230
         H            3.489020727887     1.094806632931    -0.421815808318     1.007825032230

  Basis Set: AUG-CC-PVTZ
    Blend: AUG-CC-PVTZ
  Basis Set: (AUG-CC-PVTZ AUX)
    Blend: AUG-CC-PVTZ-JKFIT
	 Reference Energy          =    -494.7811857506004571 [Eh]
	 Singles Energy            =      -0.0000000000000000 [Eh]
	 Same-Spin Energy          =      -0.4828215448319716 [Eh]
	 Opposite-Spin Energy      =      -1.5129173522780945 [Eh]
	 Correlation Energy        =      -1.9957388971100662 [Eh]
	 Total Energy              =    -496.7769246477105298 [Eh]

	 ================> DF-SCS-MP2 Energies <==================
	-----------------------------------------------------------
	 SCS Same-Spin Scale       =       0.3333333333333333 [-]
	 SCS Opposite-Spin Scale   =       1.2000000000000000 [-]
	 SCS Same-Spin Energy      =      -0.1609405149439905 [Eh]
	 SCS Opposite-Spin Energy  =      -1.8155008227337133 [Eh]
	 SCS Correlation Energy    =      -1.9764413376777039 [Eh]
	 SCS Total Energy          =    -496.7576270882781841 [Eh]
	-----------------------------------------------------------

  Dipole Moment: [D]
     X:    -1.1666      Y:    -0.4986      Z:    -1.8438     Total:     2.2382

*** Psi4 exiting successfully. Buy a developer a beer!
