                               Psi4 1.3.2 release

  ==> Input File <==

--------------------------------------------------------------------------
#psi4
#
memory 32 gb

molecule  {
0 1
  O       -0.0768340     1.0301030     0.6945190
  O        0.0027630    -2.4368280    -0.0631460
  O       -1.8013270     1.3609940    -0.8558510
  O        2.7706710     0.8423760     0.1830720
  C       -0.3978190    -1.0935740    -0.3143580
  C        0.6336520    -0.1707830     0.3242940
  C       -1.6741023    -0.6537572     0.3914410
  C       -1.4616990     0.8497080     0.4211840
  C        1.7909010     0.1493410    -0.5832570
  H       -0.4628000    -0.8966240    -1.3943000
  H        1.0128680    -0.6537370     1.2378340
  H       -2.6003960    -0.9046920    -0.1672120
  H       -1.7107100    -1.0642920     1.3790340
  H       -2.0056690     1.3805330     1.2112860
  H        1.4142140     0.7608160    -1.4169540
  H        2.1823060    -0.7975400    -0.9866360
  H       -0.6472830    -3.0203740    -0.5025550
  H       -1.5565300     2.3068120    -0.8531920
  H        3.4888480     1.0945290    -0.4213450
units angstrom
no_reorient  #important for SAPT in psi4, default
symmetry c1  #important for SAPT in psi4, default
}

set PROPERTIES_ORIGIN ["COM"]
properties('MP2/aug-cc-pvtz', properties = ['dipole'])
--------------------------------------------------------------------------

    Molecular point group: c1
  Charge       = 0
  Multiplicity = 1
  Basis Set: AUG-CC-PVTZ
    Blend: AUG-CC-PVTZ
  Basis Set: (AUG-CC-PVTZ AUX)
    Blend: AUG-CC-PVTZ-JKFIT

    Orbital Energies [Eh]
    ---------------------

    Doubly Occupied:

       1A    -20.571891     2A    -20.569692     3A    -20.557865
       4A    -20.557843     5A    -11.337394     6A    -11.288720
       7A    -11.276682     8A    -11.275077     9A    -11.230153
      10A     -1.415024    11A     -1.369753    12A     -1.356818
      13A     -1.335088    14A     -1.062993    15A     -1.024862
      16A     -0.897134    17A     -0.821887    18A     -0.793583
      19A     -0.744697    20A     -0.700843    21A     -0.682323
      22A     -0.673950    23A     -0.642190    24A     -0.628038
      25A     -0.617094    26A     -0.573890    27A     -0.565116
      28A     -0.557266    29A     -0.540620    30A     -0.519173
      31A     -0.503722    32A     -0.484104    33A     -0.462511
      34A     -0.447457    35A     -0.440823    36A     -0.429493

  @DF-RHF Final Energy:  -494.78101122178560

   => Energetics <=

    Nuclear Repulsion Energy =            509.3169542396075826
    One-Electron Energy =               -1690.2843925509159817
    Two-Electron Energy =                 686.1864270895227946
    Total Energy =                       -494.7810112217855476
  Basis Set: (AUG-CC-PVTZ AUX)
    Blend: AUG-CC-PVTZ-RI
    Molecular point group: c1

    Geometry (in Angstrom), charge = 0, multiplicity = 1:

       Center              X                  Y                   Z               Mass
    ------------   -----------------  -----------------  -----------------  -----------------
         O           -0.077721148355     1.030812582926     0.692427775819    15.994914619570
         O            0.001875851645    -2.436118417074    -0.065237224181    15.994914619570
         O           -1.802214148355     1.361703582926    -0.857942224181    15.994914619570
         O            2.769783851645     0.843085582926     0.180980775819    15.994914619570
         C           -0.398706148355    -1.092864417074    -0.316449224181    12.000000000000
         C            0.632764851645    -0.170073417074     0.322202775819    12.000000000000
         C           -1.674989448355    -0.653047617074     0.389349775819    12.000000000000
         C           -1.462586148355     0.850417582926     0.419092775819    12.000000000000
         C            1.790013851645     0.150050582926    -0.585348224181    12.000000000000
         H           -0.463687148355    -0.895914417074    -1.396391224181     1.007825032230
         H            1.011980851645    -0.653027417074     1.235742775819     1.007825032230
         H           -2.601283148355    -0.903982417074    -0.169303224181     1.007825032230
         H           -1.711597148355    -1.063582417074     1.376942775819     1.007825032230
         H           -2.006556148355     1.381242582926     1.209194775819     1.007825032230
         H            1.413326851645     0.761525582926    -1.419045224181     1.007825032230
         H            2.181418851645    -0.796830417074    -0.988727224181     1.007825032230
         H           -0.648170148355    -3.019664417074    -0.504646224181     1.007825032230
         H           -1.557417148355     2.307521582926    -0.855283224181     1.007825032230
         H            3.487960851645     1.095238582926    -0.423436224181     1.007825032230

  Basis Set: AUG-CC-PVTZ
    Blend: AUG-CC-PVTZ
  Basis Set: (AUG-CC-PVTZ AUX)
    Blend: AUG-CC-PVTZ-JKFIT
	 Reference Energy          =    -494.7810112217856044 [Eh]
	 Singles Energy            =      -0.0000000000000000 [Eh]
	 Same-Spin Energy          =      -0.4828189887757330 [Eh]
	 Opposite-Spin Energy      =      -1.5129494768790688 [Eh]
	 Correlation Energy        =      -1.9957684656548018 [Eh]
	 Total Energy              =    -496.7767796874404098 [Eh]

	 ================> DF-SCS-MP2 Energies <==================
	-----------------------------------------------------------
	 SCS Same-Spin Scale       =       0.3333333333333333 [-]
	 SCS Opposite-Spin Scale   =       1.2000000000000000 [-]
	 SCS Same-Spin Energy      =      -0.1609396629252443 [Eh]
	 SCS Opposite-Spin Energy  =      -1.8155393722548825 [Eh]
	 SCS Correlation Energy    =      -1.9764790351801269 [Eh]
	 SCS Total Energy          =    -496.7574902569657525 [Eh]
	-----------------------------------------------------------

  Dipole Moment: [D]
     X:    -1.1574      Y:    -0.4764      Z:    -1.8528     Total:     2.2359

*** Psi4 exiting successfully. Buy a developer a beer!
