                               Psi4 1.3.2 release

  ==> Input File <==

--------------------------------------------------------------------------
#psi4
#
memory 32 gb

molecule  {
0 1
  O       -0.0768340     1.0301030     0.6945190
  O        0.0027630    -2.4368280    -0.0631460
  O       -1.8013270     1.3609940    -0.8558510
  O        2.7706710     0.8423760     0.1830720
  C       -0.4334585    -1.1935253    -0.3076675
  C        0.6336520    -0.1707830     0.3242940
  C       -1.6840130    -0.6458300     0.3680790
  C       -1.4616990     0.8497080     0.4211840
  C        1.7909010     0.1493410    -0.5832570
  H       -0.4628000    -0.8966240    -1.3943000
  H        1.0128680    -0.6537370     1.2378340
  H       -2.6003960    -0.9046920    -0.1672120
  H       -1.7107100    -1.0642920     1.3790340
  H       -2.0056690     1.3805330     1.2112860
  H        1.4142140     0.7608160    -1.4169540
  H        2.1823060    -0.7975400    -0.9866360
  H       -0.6472830    -3.0203740    -0.5025550
  H       -1.5565300     2.3068120    -0.8531920
  H        3.4888480     1.0945290    -0.4213450
units angstrom
no_reorient  #important for SAPT in psi4, default
symmetry c1  #important for SAPT in psi4, default
}

set PROPERTIES_ORIGIN ["COM"]
properties('MP2/aug-cc-pvtz', properties = ['dipole'])
--------------------------------------------------------------------------

    Molecular point group: c1
  Charge       = 0
  Multiplicity = 1
  Basis Set: AUG-CC-PVTZ
    Blend: AUG-CC-PVTZ
  Basis Set: (AUG-CC-PVTZ AUX)
    Blend: AUG-CC-PVTZ-JKFIT

    Orbital Energies [Eh]
    ---------------------

    Doubly Occupied:

       1A    -20.583794     2A    -20.567610     3A    -20.556580
       4A    -20.556094     5A    -11.336816     6A    -11.291371
       7A    -11.275653     8A    -11.272975     9A    -11.228605
      10A     -1.417078    11A     -1.404004    12A     -1.355263
      13A     -1.332708    14A     -1.054311    15A     -1.017865
      16A     -0.894360    17A     -0.821155    18A     -0.791496
      19A     -0.746091    20A     -0.701003    21A     -0.692855
      22A     -0.672073    23A     -0.640465    24A     -0.629869
      25A     -0.627240    26A     -0.581208    27A     -0.571688
      28A     -0.562708    29A     -0.541475    30A     -0.515954
      31A     -0.498867    32A     -0.480613    33A     -0.446608
      34A     -0.443508    35A     -0.435776    36A     -0.422572

  @DF-RHF Final Energy:  -494.77104712963774

   => Energetics <=

    Nuclear Repulsion Energy =            508.5288949138101202
    One-Electron Energy =               -1688.6632616782421792
    Two-Electron Energy =                 685.3633196347943795
    Total Energy =                       -494.7710471296377364
  Basis Set: (AUG-CC-PVTZ AUX)
    Blend: AUG-CC-PVTZ-RI
    Molecular point group: c1

    Geometry (in Angstrom), charge = 0, multiplicity = 1:

       Center              X                  Y                   Z               Mass
    ------------   -----------------  -----------------  -----------------  -----------------
         O           -0.073643788020     1.039049987268     0.693920101052    15.994914619570
         O            0.005953211980    -2.427881012732    -0.063744898948    15.994914619570
         O           -1.798136788020     1.369940987268    -0.856449898948    15.994914619570
         O            2.773861211980     0.851322987268     0.182473101052    15.994914619570
         C           -0.430268288020    -1.184578312732    -0.308266398948    12.000000000000
         C            0.636842211980    -0.161836012732     0.323695101052    12.000000000000
         C           -1.680822788020    -0.636883012732     0.367480101052    12.000000000000
         C           -1.458508788020     0.858654987268     0.420585101052    12.000000000000
         C            1.794091211980     0.158287987268    -0.583855898948    12.000000000000
         H           -0.459609788020    -0.887677012732    -1.394898898948     1.007825032230
         H            1.016058211980    -0.644790012732     1.237235101052     1.007825032230
         H           -2.597205788020    -0.895745012732    -0.167810898948     1.007825032230
         H           -1.707519788020    -1.055345012732     1.378435101052     1.007825032230
         H           -2.002478788020     1.389479987268     1.210687101052     1.007825032230
         H            1.417404211980     0.769762987268    -1.417552898948     1.007825032230
         H            2.185496211980    -0.788593012732    -0.987234898948     1.007825032230
         H           -0.644092788020    -3.011427012732    -0.503153898948     1.007825032230
         H           -1.553339788020     2.315758987268    -0.853790898948     1.007825032230
         H            3.492038211980     1.103475987268    -0.421943898948     1.007825032230

  Basis Set: AUG-CC-PVTZ
    Blend: AUG-CC-PVTZ
  Basis Set: (AUG-CC-PVTZ AUX)
    Blend: AUG-CC-PVTZ-JKFIT
	 Reference Energy          =    -494.7710471296377364 [Eh]
	 Singles Energy            =      -0.0000000000000000 [Eh]
	 Same-Spin Energy          =      -0.4830740176926148 [Eh]
	 Opposite-Spin Energy      =      -1.5127582203046428 [Eh]
	 Correlation Energy        =      -1.9958322379972575 [Eh]
	 Total Energy              =    -496.7668793676349992 [Eh]

	 ================> DF-SCS-MP2 Energies <==================
	-----------------------------------------------------------
	 SCS Same-Spin Scale       =       0.3333333333333333 [-]
	 SCS Opposite-Spin Scale   =       1.2000000000000000 [-]
	 SCS Same-Spin Energy      =      -0.1610246725642049 [Eh]
	 SCS Opposite-Spin Energy  =      -1.8153098643655712 [Eh]
	 SCS Correlation Energy    =      -1.9763345369297762 [Eh]
	 SCS Total Energy          =    -496.7473816665674917 [Eh]
	-----------------------------------------------------------

  Dipole Moment: [D]
     X:    -1.1454      Y:    -0.8315      Z:    -1.8309     Total:     2.3142

*** Psi4 exiting successfully. Buy a developer a beer!
