                               Psi4 1.4a3.dev225

  ==> Input File <==

--------------------------------------------------------------------------
#psi4
#
memory 32 gb

molecule  {
0 1
  O        0.0779330    -0.9269250    -0.8850860
  O       -0.5497830     2.4054250     0.0105510
  O       -1.2273040    -1.7124440     0.8968780
  O        2.8355650    -0.3742720    -0.2242840
  C       -0.6080970     1.0161320     0.3256370
  C        0.5731950     0.3283540    -0.3705440
  C       -1.8147930     0.2671960    -0.2390730
  C       -1.2167759    -1.1680217    -0.4005985
  C        1.7465980     0.1105970     0.5541480
  H       -0.5498730     0.8655980     1.4125560
  H        0.8905780     0.9380060    -1.2243810
  H       -2.6989340     0.2874680     0.4026800
  H       -2.0570860     0.6846600    -1.2212740
  H       -1.7431510    -1.7703690    -1.1193200
  H        1.4450650    -0.6065030     1.3308310
  H        1.9882130     1.0713000     1.0354480
  H       -1.2210140     2.8543510     0.5524830
  H       -0.6896120    -2.5214440     0.8182530
  H        3.5785240    -0.5383230     0.3798300
units angstrom
no_reorient  #important for SAPT in psi4, default
symmetry c1  #important for SAPT in psi4, default
}

set PROPERTIES_ORIGIN ["COM"]
properties('MP2/aug-cc-pvtz', properties = ['dipole'])
--------------------------------------------------------------------------

    Molecular point group: c1
  Charge       = 0
  Multiplicity = 1
  Basis Set: AUG-CC-PVTZ
    Blend: AUG-CC-PVTZ
  Basis Set: (AUG-CC-PVTZ AUX)
    Blend: AUG-CC-PVTZ-JKFIT

    Orbital Energies [Eh]
    ---------------------

    Doubly Occupied:

       1A    -20.573070     2A    -20.569744     3A    -20.559713
       4A    -20.559141     5A    -11.336087     6A    -11.288610
       7A    -11.278298     8A    -11.276865     9A    -11.228100
      10A     -1.422276    11A     -1.369166    12A     -1.358635
      13A     -1.340458    14A     -1.055495    15A     -1.020895
      16A     -0.897886    17A     -0.821459    18A     -0.795836
      19A     -0.743024    20A     -0.701971    21A     -0.684247
      22A     -0.675682    23A     -0.647160    24A     -0.632818
      25A     -0.613286    26A     -0.575465    27A     -0.565449
      28A     -0.558033    29A     -0.531676    30A     -0.523534
      31A     -0.505273    32A     -0.477499    33A     -0.465211
      34A     -0.449216    35A     -0.443809    36A     -0.425150

  @DF-RHF Final Energy:  -494.78018446079841

   => Energetics <=

    Nuclear Repulsion Energy =            510.7269478528307332
    One-Electron Energy =               -1693.0737880476401642
    Two-Electron Energy =                 687.5666557340109648
    Total Energy =                       -494.7801844607984094
  Basis Set: (AUG-CC-PVTZ AUX)
    Blend: AUG-CC-PVTZ-RI
    Molecular point group: c1

    Geometry (in Angstrom), charge = 0, multiplicity = 1:

       Center              X                  Y                   Z               Mass
    ------------   -----------------  -----------------  -----------------  -----------------
         O            0.068438903003    -0.913478313088    -0.867111928988    15.994914619570
         O           -0.559277096997     2.418871686912     0.028525071012    15.994914619570
         O           -1.236798096997    -1.698997313088     0.914852071012    15.994914619570
         O            2.826070903003    -0.360825313088    -0.206309928988    15.994914619570
         C           -0.617591096997     1.029578686912     0.343611071012    12.000000000000
         C            0.563700903003     0.341800686912    -0.352569928988    12.000000000000
         C           -1.824287096997     0.280642686912    -0.221098928988    12.000000000000
         C           -1.226269996997    -1.154575013088    -0.382624428988    12.000000000000
         C            1.737103903003     0.124043686912     0.572122071012    12.000000000000
         H           -0.559367096997     0.879044686912     1.430530071012     1.007825032230
         H            0.881083903003     0.951452686912    -1.206406928988     1.007825032230
         H           -2.708428096997     0.300914686912     0.420654071012     1.007825032230
         H           -2.066580096997     0.698106686912    -1.203299928988     1.007825032230
         H           -1.752645096997    -1.756922313088    -1.101345928988     1.007825032230
         H            1.435570903003    -0.593056313088     1.348805071012     1.007825032230
         H            1.978718903003     1.084746686912     1.053422071012     1.007825032230
         H           -1.230508096997     2.867797686912     0.570457071012     1.007825032230
         H           -0.699106096997    -2.507997313088     0.836227071012     1.007825032230
         H            3.569029903003    -0.524876313088     0.397804071012     1.007825032230

  Basis Set: AUG-CC-PVTZ
    Blend: AUG-CC-PVTZ
  Basis Set: (AUG-CC-PVTZ AUX)
    Blend: AUG-CC-PVTZ-JKFIT
	 Reference Energy          =    -494.7801844607984094 [Eh]
	 Singles Energy            =      -0.0000000000000000 [Eh]
	 Same-Spin Energy          =      -0.4826246263487660 [Eh]
	 Opposite-Spin Energy      =      -1.5128285545110245 [Eh]
	 Correlation Energy        =      -1.9954531808597906 [Eh]
	 Total Energy              =    -496.7756376416581929 [Eh]

	 ================> DF-SCS-MP2 Energies <==================
	-----------------------------------------------------------
	 SCS Same-Spin Scale       =       0.3333333333333333 [-]
	 SCS Opposite-Spin Scale   =       1.2000000000000000 [-]
	 SCS Same-Spin Energy      =      -0.1608748754495887 [Eh]
	 SCS Opposite-Spin Energy  =      -1.8153942654132293 [Eh]
	 SCS Correlation Energy    =      -1.9762691408628179 [Eh]
	 SCS Total Energy          =    -496.7564536016612351 [Eh]
	-----------------------------------------------------------

  Dipole Moment: [D]
     X:    -0.9483      Y:     0.0046      Z:     2.2777     Total:     2.4672

*** Psi4 exiting successfully. Buy a developer a beer!
