                               Psi4 1.3.2 release

  ==> Input File <==

--------------------------------------------------------------------------
#psi4
#
memory 32 gb

molecule  {
0 1
  O       -0.0768340     1.0301030     0.6945190
  O        0.0027630    -2.4368280    -0.0631460
  O       -1.8013270     1.3609940    -0.8558510
  O        2.7706710     0.8423760     0.1830720
  C       -0.3978190    -1.0935740    -0.3143580
  C        0.6336520    -0.1707830     0.3242940
  C       -1.8528807    -0.5870445     0.4576779
  C       -1.4616990     0.8497080     0.4211840
  C        1.7909010     0.1493410    -0.5832570
  H       -0.4628000    -0.8966240    -1.3943000
  H        1.0128680    -0.6537370     1.2378340
  H       -2.6003960    -0.9046920    -0.1672120
  H       -1.7107100    -1.0642920     1.3790340
  H       -2.0056690     1.3805330     1.2112860
  H        1.4142140     0.7608160    -1.4169540
  H        2.1823060    -0.7975400    -0.9866360
  H       -0.6472830    -3.0203740    -0.5025550
  H       -1.5565300     2.3068120    -0.8531920
  H        3.4888480     1.0945290    -0.4213450
units angstrom
no_reorient  #important for SAPT in psi4, default
symmetry c1  #important for SAPT in psi4, default
}

set PROPERTIES_ORIGIN ["COM"]
properties('MP2/aug-cc-pvtz', properties = ['dipole'])
--------------------------------------------------------------------------

    Molecular point group: c1
  Charge       = 0
  Multiplicity = 1
  Basis Set: AUG-CC-PVTZ
    Blend: AUG-CC-PVTZ
  Basis Set: (AUG-CC-PVTZ AUX)
    Blend: AUG-CC-PVTZ-JKFIT

    Orbital Energies [Eh]
    ---------------------

    Doubly Occupied:

       1A    -20.574022     2A    -20.568988     3A    -20.560783
       4A    -20.558426     5A    -11.336365     6A    -11.296795
       7A    -11.277520     8A    -11.275878     9A    -11.230582
      10A     -1.413579    11A     -1.368937    12A     -1.357286
      13A     -1.334836    14A     -1.046415    15A     -1.029103
      16A     -0.895231    17A     -0.829982    18A     -0.789425
      19A     -0.743070    20A     -0.699434    21A     -0.682596
      22A     -0.671343    23A     -0.643501    24A     -0.636531
      25A     -0.606106    26A     -0.584452    27A     -0.572009
      28A     -0.551310    29A     -0.546568    30A     -0.520276
      31A     -0.514351    32A     -0.483392    33A     -0.464849
      34A     -0.447075    35A     -0.432623    36A     -0.400652

  @DF-RHF Final Energy:  -494.75251342354602

   => Energetics <=

    Nuclear Repulsion Energy =            506.3388602477537006
    One-Electron Energy =               -1684.2941614417095479
    Two-Electron Energy =                 683.2027877704098273
    Total Energy =                       -494.7525134235460200
  Basis Set: (AUG-CC-PVTZ AUX)
    Blend: AUG-CC-PVTZ-RI
    Molecular point group: c1

    Geometry (in Angstrom), charge = 0, multiplicity = 1:

       Center              X                  Y                   Z               Mass
    ------------   -----------------  -----------------  -----------------  -----------------
         O           -0.061718058204     1.024840891981     0.686498675424    15.994914619570
         O            0.017878941796    -2.442090108019    -0.071166324576    15.994914619570
         O           -1.786211058204     1.355731891981    -0.863871324576    15.994914619570
         O            2.785786941796     0.837113891981     0.175051675424    15.994914619570
         C           -0.382703058204    -1.098836108019    -0.322378324576    12.000000000000
         C            0.648767941796    -0.176045108019     0.316273675424    12.000000000000
         C           -1.837764758204    -0.592306608019     0.449657575424    12.000000000000
         C           -1.446583058204     0.844445891981     0.413163675424    12.000000000000
         C            1.806016941796     0.144078891981    -0.591277324576    12.000000000000
         H           -0.447684058204    -0.901886108019    -1.402320324576     1.007825032230
         H            1.027983941796    -0.658999108019     1.229813675424     1.007825032230
         H           -2.585280058204    -0.909954108019    -0.175232324576     1.007825032230
         H           -1.695594058204    -1.069554108019     1.371013675424     1.007825032230
         H           -1.990553058204     1.375270891981     1.203265675424     1.007825032230
         H            1.429329941796     0.755553891981    -1.424974324576     1.007825032230
         H            2.197421941796    -0.802802108019    -0.994656324576     1.007825032230
         H           -0.632167058204    -3.025636108019    -0.510575324576     1.007825032230
         H           -1.541414058204     2.301549891981    -0.861212324576     1.007825032230
         H            3.503963941796     1.089266891981    -0.429365324576     1.007825032230

  Basis Set: AUG-CC-PVTZ
    Blend: AUG-CC-PVTZ
  Basis Set: (AUG-CC-PVTZ AUX)
    Blend: AUG-CC-PVTZ-JKFIT
	 Reference Energy          =    -494.7525134235460200 [Eh]
	 Singles Energy            =      -0.0000000000000000 [Eh]
	 Same-Spin Energy          =      -0.4836915053637254 [Eh]
	 Opposite-Spin Energy      =      -1.5156167707681705 [Eh]
	 Correlation Energy        =      -1.9993082761318959 [Eh]
	 Total Energy              =    -496.7518216996779188 [Eh]

	 ================> DF-SCS-MP2 Energies <==================
	-----------------------------------------------------------
	 SCS Same-Spin Scale       =       0.3333333333333333 [-]
	 SCS Opposite-Spin Scale   =       1.2000000000000000 [-]
	 SCS Same-Spin Energy      =      -0.1612305017879085 [Eh]
	 SCS Opposite-Spin Energy  =      -1.8187401249218045 [Eh]
	 SCS Correlation Energy    =      -1.9799706267097130 [Eh]
	 SCS Total Energy          =    -496.7324840502557208 [Eh]
	-----------------------------------------------------------

  Dipole Moment: [D]
     X:    -1.0231      Y:    -0.6565      Z:    -1.9436     Total:     2.2924

*** Psi4 exiting successfully. Buy a developer a beer!
