                               Psi4 1.3.2 release

  ==> Input File <==

--------------------------------------------------------------------------
#psi4
#
memory 32 gb

molecule  {
0 1
  O       -0.0768340     1.0301030     0.6945190
  O        0.0027630    -2.4368280    -0.0631460
  O       -1.8013270     1.3609940    -0.8558510
  O        2.7706710     0.8423760     0.1830720
  C       -0.3978190    -1.0935740    -0.3143580
  C        0.6336520    -0.1707830     0.3242940
  C       -1.6180335    -0.6489843     0.2856900
  C       -1.4616990     0.8497080     0.4211840
  C        1.7909010     0.1493410    -0.5832570
  H       -0.4628000    -0.8966240    -1.3943000
  H        1.0128680    -0.6537370     1.2378340
  H       -2.6003960    -0.9046920    -0.1672120
  H       -1.7107100    -1.0642920     1.3790340
  H       -2.0056690     1.3805330     1.2112860
  H        1.4142140     0.7608160    -1.4169540
  H        2.1823060    -0.7975400    -0.9866360
  H       -0.6472830    -3.0203740    -0.5025550
  H       -1.5565300     2.3068120    -0.8531920
  H        3.4888480     1.0945290    -0.4213450
units angstrom
no_reorient  #important for SAPT in psi4, default
symmetry c1  #important for SAPT in psi4, default
}

set PROPERTIES_ORIGIN ["COM"]
properties('MP2/aug-cc-pvtz', properties = ['dipole'])
--------------------------------------------------------------------------

    Molecular point group: c1
  Charge       = 0
  Multiplicity = 1
  Basis Set: AUG-CC-PVTZ
    Blend: AUG-CC-PVTZ
  Basis Set: (AUG-CC-PVTZ AUX)
    Blend: AUG-CC-PVTZ-JKFIT

    Orbital Energies [Eh]
    ---------------------

    Doubly Occupied:

       1A    -20.573129     2A    -20.568650     3A    -20.558233
       4A    -20.558092     5A    -11.338931     6A    -11.284365
       7A    -11.277868     8A    -11.275451     9A    -11.234217
      10A     -1.417206    11A     -1.371523    12A     -1.357159
      13A     -1.335745    14A     -1.077931    15A     -1.024638
      16A     -0.900237    17A     -0.815644    18A     -0.800192
      19A     -0.743769    20A     -0.703847    21A     -0.685061
      22A     -0.677366    23A     -0.642763    24A     -0.627393
      25A     -0.624205    26A     -0.573290    27A     -0.564501
      28A     -0.560929    29A     -0.522028    30A     -0.514193
      31A     -0.503200    32A     -0.483478    33A     -0.460825
      34A     -0.453941    35A     -0.446357    36A     -0.429530

  @DF-RHF Final Energy:  -494.76872949170689

   => Energetics <=

    Nuclear Repulsion Energy =            511.0189820237237086
    One-Electron Energy =               -1693.6036507642475044
    Two-Electron Energy =                 687.8159392488167896
    Total Energy =                       -494.7687294917069494
  Basis Set: (AUG-CC-PVTZ AUX)
    Blend: AUG-CC-PVTZ-RI
    Molecular point group: c1

    Geometry (in Angstrom), charge = 0, multiplicity = 1:

       Center              X                  Y                   Z               Mass
    ------------   -----------------  -----------------  -----------------  -----------------
         O           -0.082740065971     1.030385343679     0.701893923779    15.994914619570
         O           -0.003143065971    -2.436545656321    -0.055771076221    15.994914619570
         O           -1.807233065971     1.361276343679    -0.848476076221    15.994914619570
         O            2.764764934029     0.842658343679     0.190446923779    15.994914619570
         C           -0.403725065971    -1.093291656321    -0.306983076221    12.000000000000
         C            0.627745934029    -0.170500656321     0.331668923779    12.000000000000
         C           -1.623939565971    -0.648701956321     0.293064923779    12.000000000000
         C           -1.467605065971     0.849990343679     0.428558923779    12.000000000000
         C            1.784994934029     0.149623343679    -0.575882076221    12.000000000000
         H           -0.468706065971    -0.896341656321    -1.386925076221     1.007825032230
         H            1.006961934029    -0.653454656321     1.245208923779     1.007825032230
         H           -2.606302065971    -0.904409656321    -0.159837076221     1.007825032230
         H           -1.716616065971    -1.064009656321     1.386408923779     1.007825032230
         H           -2.011575065971     1.380815343679     1.218660923779     1.007825032230
         H            1.408307934029     0.761098343679    -1.409579076221     1.007825032230
         H            2.176399934029    -0.797257656321    -0.979261076221     1.007825032230
         H           -0.653189065971    -3.020091656321    -0.495180076221     1.007825032230
         H           -1.562436065971     2.307094343679    -0.845817076221     1.007825032230
         H            3.482941934029     1.094811343679    -0.413970076221     1.007825032230

  Basis Set: AUG-CC-PVTZ
    Blend: AUG-CC-PVTZ
  Basis Set: (AUG-CC-PVTZ AUX)
    Blend: AUG-CC-PVTZ-JKFIT
	 Reference Energy          =    -494.7687294917068925 [Eh]
	 Singles Energy            =      -0.0000000000000000 [Eh]
	 Same-Spin Energy          =      -0.4838314668281569 [Eh]
	 Opposite-Spin Energy      =      -1.5141252081612029 [Eh]
	 Correlation Energy        =      -1.9979566749893598 [Eh]
	 Total Energy              =    -496.7666861666962745 [Eh]

	 ================> DF-SCS-MP2 Energies <==================
	-----------------------------------------------------------
	 SCS Same-Spin Scale       =       0.3333333333333333 [-]
	 SCS Opposite-Spin Scale   =       1.2000000000000000 [-]
	 SCS Same-Spin Energy      =      -0.1612771556093856 [Eh]
	 SCS Opposite-Spin Energy  =      -1.8169502497934433 [Eh]
	 SCS Correlation Energy    =      -1.9782274054028290 [Eh]
	 SCS Total Energy          =    -496.7469568971097260 [Eh]
	-----------------------------------------------------------

  Dipole Moment: [D]
     X:    -1.1822      Y:    -0.4091      Z:    -1.8633     Total:     2.2443

*** Psi4 exiting successfully. Buy a developer a beer!
