                               Psi4 1.3.2 release

  ==> Input File <==

--------------------------------------------------------------------------
#psi4
#
memory 32 gb

molecule  {
0 1
  O       -0.0768340     1.0301030     0.6945190
  O        0.0027630    -2.4368280    -0.0631460
  O       -1.7781497     1.4510323    -0.8221369
  O        2.7706710     0.8423760     0.1830720
  C       -0.3978190    -1.0935740    -0.3143580
  C        0.6336520    -0.1707830     0.3242940
  C       -1.6840130    -0.6458300     0.3680790
  C       -1.4616990     0.8497080     0.4211840
  C        1.7909010     0.1493410    -0.5832570
  H       -0.4628000    -0.8966240    -1.3943000
  H        1.0128680    -0.6537370     1.2378340
  H       -2.6003960    -0.9046920    -0.1672120
  H       -1.7107100    -1.0642920     1.3790340
  H       -2.0056690     1.3805330     1.2112860
  H        1.4142140     0.7608160    -1.4169540
  H        2.1823060    -0.7975400    -0.9866360
  H       -0.6472830    -3.0203740    -0.5025550
  H       -1.5565300     2.3068120    -0.8531920
  H        3.4888480     1.0945290    -0.4213450
units angstrom
no_reorient  #important for SAPT in psi4, default
symmetry c1  #important for SAPT in psi4, default
}

set PROPERTIES_ORIGIN ["COM"]
properties('MP2/aug-cc-pvtz', properties = ['dipole'])
--------------------------------------------------------------------------

    Molecular point group: c1
  Charge       = 0
  Multiplicity = 1
  Basis Set: AUG-CC-PVTZ
    Blend: AUG-CC-PVTZ
  Basis Set: (AUG-CC-PVTZ AUX)
    Blend: AUG-CC-PVTZ-JKFIT

    Orbital Energies [Eh]
    ---------------------

    Doubly Occupied:

       1A    -20.573596     2A    -20.557960     3A    -20.556900
       4A    -20.555595     5A    -11.339094     6A    -11.290308
       7A    -11.277132     8A    -11.275319     9A    -11.234108
      10A     -1.421519    11A     -1.372667    12A     -1.358439
      13A     -1.342007    14A     -1.065677    15A     -1.028420
      16A     -0.901737    17A     -0.827103    18A     -0.797144
      19A     -0.753040    20A     -0.704220    21A     -0.687706
      22A     -0.675037    23A     -0.641976    24A     -0.628888
      25A     -0.621011    26A     -0.572865    27A     -0.566392
      28A     -0.556692    29A     -0.541949    30A     -0.517735
      31A     -0.507828    32A     -0.484242    33A     -0.464124
      34A     -0.447595    35A     -0.440756    36A     -0.429306

  @DF-RHF Final Energy:  -494.77828115010357

   => Energetics <=

    Nuclear Repulsion Energy =            509.2734009812170939
    One-Electron Energy =               -1690.0711932009362499
    Two-Electron Energy =                 686.0195110696156462
    Total Energy =                       -494.7782811501035667
  Basis Set: (AUG-CC-PVTZ AUX)
    Blend: AUG-CC-PVTZ-RI
    Molecular point group: c1

    Geometry (in Angstrom), charge = 0, multiplicity = 1:

       Center              X                  Y                   Z               Mass
    ------------   -----------------  -----------------  -----------------  -----------------
         O           -0.079599370512     1.019360208838     0.690496445148    15.994914619570
         O           -0.000002370512    -2.447570791162    -0.067168554852    15.994914619570
         O           -1.780915070512     1.440289508838    -0.826159454852    15.994914619570
         O            2.767905629488     0.831633208838     0.179049445148    15.994914619570
         C           -0.400584370512    -1.104316791162    -0.318380554852    12.000000000000
         C            0.630886629488    -0.181525791162     0.320271445148    12.000000000000
         C           -1.686778370512    -0.656572791162     0.364056445148    12.000000000000
         C           -1.464464370512     0.838965208838     0.417161445148    12.000000000000
         C            1.788135629488     0.138598208838    -0.587279554852    12.000000000000
         H           -0.465565370512    -0.907366791162    -1.398322554852     1.007825032230
         H            1.010102629488    -0.664479791162     1.233811445148     1.007825032230
         H           -2.603161370512    -0.915434791162    -0.171234554852     1.007825032230
         H           -1.713475370512    -1.075034791162     1.375011445148     1.007825032230
         H           -2.008434370512     1.369790208838     1.207263445148     1.007825032230
         H            1.411448629488     0.750073208838    -1.420976554852     1.007825032230
         H            2.179540629488    -0.808282791162    -0.990658554852     1.007825032230
         H           -0.650048370512    -3.031116791162    -0.506577554852     1.007825032230
         H           -1.559295370512     2.296069208838    -0.857214554852     1.007825032230
         H            3.486082629488     1.083786208838    -0.425367554852     1.007825032230

  Basis Set: AUG-CC-PVTZ
    Blend: AUG-CC-PVTZ
  Basis Set: (AUG-CC-PVTZ AUX)
    Blend: AUG-CC-PVTZ-JKFIT
	 Reference Energy          =    -494.7782811501035667 [Eh]
	 Singles Energy            =      -0.0000000000000000 [Eh]
	 Same-Spin Energy          =      -0.4813777907268751 [Eh]
	 Opposite-Spin Energy      =      -1.5095393063947071 [Eh]
	 Correlation Energy        =      -1.9909170971215824 [Eh]
	 Total Energy              =    -496.7691982472251766 [Eh]

	 ================> DF-SCS-MP2 Energies <==================
	-----------------------------------------------------------
	 SCS Same-Spin Scale       =       0.3333333333333333 [-]
	 SCS Opposite-Spin Scale   =       1.2000000000000000 [-]
	 SCS Same-Spin Energy      =      -0.1604592635756250 [Eh]
	 SCS Opposite-Spin Energy  =      -1.8114471676736486 [Eh]
	 SCS Correlation Energy    =      -1.9719064312492736 [Eh]
	 SCS Total Energy          =    -496.7501875813528613 [Eh]
	-----------------------------------------------------------

  Dipole Moment: [D]
     X:    -1.1691      Y:    -0.6744      Z:    -1.8657     Total:     2.3027

*** Psi4 exiting successfully. Buy a developer a beer!
