                               Psi4 1.3.2 release

  ==> Input File <==

--------------------------------------------------------------------------
#psi4
#
memory 32 gb

molecule  {
0 1
  O       -0.0768340     1.0301030     0.6945190
  O        0.0027630    -2.4368280    -0.0631460
  O       -1.8013270     1.3609940    -0.8558510
  O        2.7706710     0.8423760     0.1830720
  C       -0.3978190    -1.0935740    -0.3143580
  C        0.7077520    -0.2184978     0.2646984
  C       -1.6840130    -0.6458300     0.3680790
  C       -1.4616990     0.8497080     0.4211840
  C        1.7909010     0.1493410    -0.5832570
  H       -0.4628000    -0.8966240    -1.3943000
  H        1.0128680    -0.6537370     1.2378340
  H       -2.6003960    -0.9046920    -0.1672120
  H       -1.7107100    -1.0642920     1.3790340
  H       -2.0056690     1.3805330     1.2112860
  H        1.4142140     0.7608160    -1.4169540
  H        2.1823060    -0.7975400    -0.9866360
  H       -0.6472830    -3.0203740    -0.5025550
  H       -1.5565300     2.3068120    -0.8531920
  H        3.4888480     1.0945290    -0.4213450
units angstrom
no_reorient  #important for SAPT in psi4, default
symmetry c1  #important for SAPT in psi4, default
}

set PROPERTIES_ORIGIN ["COM"]
properties('MP2/aug-cc-pvtz', properties = ['dipole'])
--------------------------------------------------------------------------

    Molecular point group: c1
  Charge       = 0
  Multiplicity = 1
  Basis Set: AUG-CC-PVTZ
    Blend: AUG-CC-PVTZ
  Basis Set: (AUG-CC-PVTZ AUX)
    Blend: AUG-CC-PVTZ-JKFIT

    Orbital Energies [Eh]
    ---------------------

    Doubly Occupied:

       1A    -20.573074     2A    -20.564860     3A    -20.561930
       4A    -20.547358     5A    -11.331803     6A    -11.292035
       7A    -11.280819     8A    -11.276723     9A    -11.230238
      10A     -1.400621    11A     -1.371393    12A     -1.361224
      13A     -1.316692    14A     -1.066294    15A     -1.036796
      16A     -0.902978    17A     -0.815967    18A     -0.793435
      19A     -0.738916    20A     -0.702063    21A     -0.682655
      22A     -0.670884    23A     -0.647229    24A     -0.626007
      25A     -0.616605    26A     -0.575236    27A     -0.557852
      28A     -0.550488    29A     -0.535836    30A     -0.519095
      31A     -0.505290    32A     -0.480959    33A     -0.465319
      34A     -0.449674    35A     -0.437773    36A     -0.432197

  @DF-RHF Final Energy:  -494.76856169180229

   => Energetics <=

    Nuclear Repulsion Energy =            508.7583107604945099
    One-Electron Energy =               -1689.2171055704777700
    Two-Electron Energy =                 685.6902331181811405
    Total Energy =                       -494.7685616918022333
  Basis Set: (AUG-CC-PVTZ AUX)
    Blend: AUG-CC-PVTZ-RI
    Molecular point group: c1

    Geometry (in Angstrom), charge = 0, multiplicity = 1:

       Center              X                  Y                   Z               Mass
    ------------   -----------------  -----------------  -----------------  -----------------
         O           -0.083466960795     1.034374112449     0.699853605514    15.994914619570
         O           -0.003869960795    -2.432556887551    -0.057811394486    15.994914619570
         O           -1.807959960795     1.365265112449    -0.850516394486    15.994914619570
         O            2.764038039205     0.846647112449     0.188406605514    15.994914619570
         C           -0.404451960795    -1.089302887551    -0.309023394486    12.000000000000
         C            0.701119039205    -0.214226687551     0.270033005514    12.000000000000
         C           -1.690645960795    -0.641558887551     0.373413605514    12.000000000000
         C           -1.468331960795     0.853979112449     0.426518605514    12.000000000000
         C            1.784268039205     0.153612112449    -0.577922394486    12.000000000000
         H           -0.469432960795    -0.892352887551    -1.388965394486     1.007825032230
         H            1.006235039205    -0.649465887551     1.243168605514     1.007825032230
         H           -2.607028960795    -0.900420887551    -0.161877394486     1.007825032230
         H           -1.717342960795    -1.060020887551     1.384368605514     1.007825032230
         H           -2.012301960795     1.384804112449     1.216620605514     1.007825032230
         H            1.407581039205     0.765087112449    -1.411619394486     1.007825032230
         H            2.175673039205    -0.793268887551    -0.981301394486     1.007825032230
         H           -0.653915960795    -3.016102887551    -0.497220394486     1.007825032230
         H           -1.563162960795     2.311083112449    -0.847857394486     1.007825032230
         H            3.482215039205     1.098800112449    -0.416010394486     1.007825032230

  Basis Set: AUG-CC-PVTZ
    Blend: AUG-CC-PVTZ
  Basis Set: (AUG-CC-PVTZ AUX)
    Blend: AUG-CC-PVTZ-JKFIT
	 Reference Energy          =    -494.7685616918022902 [Eh]
	 Singles Energy            =      -0.0000000000000000 [Eh]
	 Same-Spin Energy          =      -0.4839076010428659 [Eh]
	 Opposite-Spin Energy      =      -1.5152718281446447 [Eh]
	 Correlation Energy        =      -1.9991794291875107 [Eh]
	 Total Energy              =    -496.7677411209897969 [Eh]

	 ================> DF-SCS-MP2 Energies <==================
	-----------------------------------------------------------
	 SCS Same-Spin Scale       =       0.3333333333333333 [-]
	 SCS Opposite-Spin Scale   =       1.2000000000000000 [-]
	 SCS Same-Spin Energy      =      -0.1613025336809553 [Eh]
	 SCS Opposite-Spin Energy  =      -1.8183261937735735 [Eh]
	 SCS Correlation Energy    =      -1.9796287274545288 [Eh]
	 SCS Total Energy          =    -496.7481904192568436 [Eh]
	-----------------------------------------------------------

  Dipole Moment: [D]
     X:    -0.9148      Y:    -0.6693      Z:    -1.9755     Total:     2.2776

*** Psi4 exiting successfully. Buy a developer a beer!
