                               Psi4 1.3.2 release

  ==> Input File <==

--------------------------------------------------------------------------
#psi4
#
memory 32 gb

molecule  {
0 1
  O       -0.0768340     1.0301030     0.6945190
  O        0.0027630    -2.4368280    -0.0631460
  O       -1.8013270     1.3609940    -0.8558510
  O        2.7706710     0.8423760     0.1830720
  C       -0.3978190    -1.0935740    -0.3143580
  C        0.6336520    -0.1707830     0.3242940
  C       -1.6840130    -0.6458300     0.3680790
  C       -1.4910880     0.6520037     0.4141637
  C        1.7909010     0.1493410    -0.5832570
  H       -0.4628000    -0.8966240    -1.3943000
  H        1.0128680    -0.6537370     1.2378340
  H       -2.6003960    -0.9046920    -0.1672120
  H       -1.7107100    -1.0642920     1.3790340
  H       -2.0056690     1.3805330     1.2112860
  H        1.4142140     0.7608160    -1.4169540
  H        2.1823060    -0.7975400    -0.9866360
  H       -0.6472830    -3.0203740    -0.5025550
  H       -1.5565300     2.3068120    -0.8531920
  H        3.4888480     1.0945290    -0.4213450
units angstrom
no_reorient  #important for SAPT in psi4, default
symmetry c1  #important for SAPT in psi4, default
}

set PROPERTIES_ORIGIN ["COM"]
properties('MP2/aug-cc-pvtz', properties = ['dipole'])
--------------------------------------------------------------------------

    Molecular point group: c1
  Charge       = 0
  Multiplicity = 1
  Basis Set: AUG-CC-PVTZ
    Blend: AUG-CC-PVTZ
  Basis Set: (AUG-CC-PVTZ AUX)
    Blend: AUG-CC-PVTZ-JKFIT

    Orbital Energies [Eh]
    ---------------------

    Doubly Occupied:

       1A    -20.577878     2A    -20.558003     3A    -20.557682
       4A    -20.554419     5A    -11.345519     6A    -11.297133
       7A    -11.275443     8A    -11.274630     9A    -11.230915
      10A     -1.398926    11A     -1.371574    12A     -1.354646
      13A     -1.312069    14A     -1.113649    15A     -1.030602
      16A     -0.903808    17A     -0.813656    18A     -0.794543
      19A     -0.742997    20A     -0.708391    21A     -0.684090
      22A     -0.668565    23A     -0.642665    24A     -0.629884
      25A     -0.613535    26A     -0.572700    27A     -0.560754
      28A     -0.553605    29A     -0.546712    30A     -0.520146
      31A     -0.507045    32A     -0.488124    33A     -0.464528
      34A     -0.446964    35A     -0.430723    36A     -0.421640

  @DF-RHF Final Energy:  -494.72087485192753

   => Energetics <=

    Nuclear Repulsion Energy =            510.6759656989771656
    One-Electron Energy =               -1692.8573542501512748
    Two-Electron Energy =                 687.4605136992466896
    Total Energy =                       -494.7208748519275332
  Basis Set: (AUG-CC-PVTZ AUX)
    Blend: AUG-CC-PVTZ-RI
    Molecular point group: c1

    Geometry (in Angstrom), charge = 0, multiplicity = 1:

       Center              X                  Y                   Z               Mass
    ------------   -----------------  -----------------  -----------------  -----------------
         O           -0.074203292495     1.047800205815     0.695147403502    15.994914619570
         O            0.005393707505    -2.419130794185    -0.062517596498    15.994914619570
         O           -1.798696292495     1.378691205815    -0.855222596498    15.994914619570
         O            2.773301707505     0.860073205815     0.183700403502    15.994914619570
         C           -0.395188292495    -1.075876794185    -0.313729596498    12.000000000000
         C            0.636282707505    -0.153085794185     0.324922403502    12.000000000000
         C           -1.681382292495    -0.628132794185     0.368707403502    12.000000000000
         C           -1.488457292495     0.669700905815     0.414792103502    12.000000000000
         C            1.793531707505     0.167038205815    -0.582628596498    12.000000000000
         H           -0.460169292495    -0.878926794185    -1.393671596498     1.007825032230
         H            1.015498707505    -0.636039794185     1.238462403502     1.007825032230
         H           -2.597765292495    -0.886994794185    -0.166583596498     1.007825032230
         H           -1.708079292495    -1.046594794185     1.379662403502     1.007825032230
         H           -2.003038292495     1.398230205815     1.211914403502     1.007825032230
         H            1.416844707505     0.778513205815    -1.416325596498     1.007825032230
         H            2.184936707505    -0.779842794185    -0.986007596498     1.007825032230
         H           -0.644652292495    -3.002676794185    -0.501926596498     1.007825032230
         H           -1.553899292495     2.324509205815    -0.852563596498     1.007825032230
         H            3.491478707505     1.112226205815    -0.420716596498     1.007825032230

  Basis Set: AUG-CC-PVTZ
    Blend: AUG-CC-PVTZ
  Basis Set: (AUG-CC-PVTZ AUX)
    Blend: AUG-CC-PVTZ-JKFIT
	 Reference Energy          =    -494.7208748519275332 [Eh]
	 Singles Energy            =      -0.0000000000000000 [Eh]
	 Same-Spin Energy          =      -0.4867967067224400 [Eh]
	 Opposite-Spin Energy      =      -1.5198705047374208 [Eh]
	 Correlation Energy        =      -2.0066672114598609 [Eh]
	 Total Energy              =    -496.7275420633873750 [Eh]

	 ================> DF-SCS-MP2 Energies <==================
	-----------------------------------------------------------
	 SCS Same-Spin Scale       =       0.3333333333333333 [-]
	 SCS Opposite-Spin Scale   =       1.2000000000000000 [-]
	 SCS Same-Spin Energy      =      -0.1622655689074800 [Eh]
	 SCS Opposite-Spin Energy  =      -1.8238446056849049 [Eh]
	 SCS Correlation Energy    =      -1.9861101745923850 [Eh]
	 SCS Total Energy          =    -496.7069850265199307 [Eh]
	-----------------------------------------------------------

  Dipole Moment: [D]
     X:    -1.1963      Y:    -1.1856      Z:    -1.7519     Total:     2.4302

*** Psi4 exiting successfully. Buy a developer a beer!
