                               Psi4 1.3.2 release

  ==> Input File <==

--------------------------------------------------------------------------
#psi4
#
memory 32 gb

molecule  {
0 1
  O       -0.0768340     1.0301030     0.6945190
  O        0.0027630    -2.4368280    -0.0631460
  O       -1.8013270     1.3609940    -0.8558510
  O        2.7706710     0.8423760     0.1830720
  C       -0.3561548    -0.9397122    -0.3181541
  C        0.6336520    -0.1707830     0.3242940
  C       -1.6840130    -0.6458300     0.3680790
  C       -1.4616990     0.8497080     0.4211840
  C        1.7909010     0.1493410    -0.5832570
  H       -0.4628000    -0.8966240    -1.3943000
  H        1.0128680    -0.6537370     1.2378340
  H       -2.6003960    -0.9046920    -0.1672120
  H       -1.7107100    -1.0642920     1.3790340
  H       -2.0056690     1.3805330     1.2112860
  H        1.4142140     0.7608160    -1.4169540
  H        2.1823060    -0.7975400    -0.9866360
  H       -0.6472830    -3.0203740    -0.5025550
  H       -1.5565300     2.3068120    -0.8531920
  H        3.4888480     1.0945290    -0.4213450
units angstrom
no_reorient  #important for SAPT in psi4, default
symmetry c1  #important for SAPT in psi4, default
}

set PROPERTIES_ORIGIN ["COM"]
properties('MP2/aug-cc-pvtz', properties = ['dipole'])
--------------------------------------------------------------------------

    Molecular point group: c1
  Charge       = 0
  Multiplicity = 1
  Basis Set: AUG-CC-PVTZ
    Blend: AUG-CC-PVTZ
  Basis Set: (AUG-CC-PVTZ AUX)
    Blend: AUG-CC-PVTZ-JKFIT

    Orbital Energies [Eh]
    ---------------------

    Doubly Occupied:

       1A    -20.572229     2A    -20.561835     3A    -20.560801
       4A    -20.553187     5A    -11.339053     6A    -11.291880
       7A    -11.279031     8A    -11.276796     9A    -11.235158
      10A     -1.422443    11A     -1.360979    12A     -1.343106
      13A     -1.317016    14A     -1.081662    15A     -1.036537
      16A     -0.903666    17A     -0.825956    18A     -0.800065
      19A     -0.743613    20A     -0.705993    21A     -0.681984
      22A     -0.666506    23A     -0.641245    24A     -0.632924
      25A     -0.605055    26A     -0.575726    27A     -0.567138
      28A     -0.543801    29A     -0.539828    30A     -0.513738
      31A     -0.504791    32A     -0.486096    33A     -0.477370
      34A     -0.450177    35A     -0.443658    36A     -0.431642

  @DF-RHF Final Energy:  -494.75470943684212

   => Energetics <=

    Nuclear Repulsion Energy =            510.8489001766943716
    One-Electron Energy =               -1693.2618489661965668
    Two-Electron Energy =                 687.6582393526600754
    Total Energy =                       -494.7547094368421767
  Basis Set: (AUG-CC-PVTZ AUX)
    Blend: AUG-CC-PVTZ-RI
    Molecular point group: c1

    Geometry (in Angstrom), charge = 0, multiplicity = 1:

       Center              X                  Y                   Z               Mass
    ------------   -----------------  -----------------  -----------------  -----------------
         O           -0.080563517026     1.016330274367     0.694858793898    15.994914619570
         O           -0.000966517026    -2.450600725633    -0.062806206102    15.994914619570
         O           -1.805056517026     1.347221274367    -0.855511206102    15.994914619570
         O            2.766941482974     0.828603274367     0.183411793898    15.994914619570
         C           -0.359884317026    -0.953484925633    -0.317814306102    12.000000000000
         C            0.629922482974    -0.184555725633     0.324633793898    12.000000000000
         C           -1.687742517026    -0.659602725633     0.368418793898    12.000000000000
         C           -1.465428517026     0.835935274367     0.421523793898    12.000000000000
         C            1.787171482974     0.135568274367    -0.582917206102    12.000000000000
         H           -0.466529517026    -0.910396725633    -1.393960206102     1.007825032230
         H            1.009138482974    -0.667509725633     1.238173793898     1.007825032230
         H           -2.604125517026    -0.918464725633    -0.166872206102     1.007825032230
         H           -1.714439517026    -1.078064725633     1.379373793898     1.007825032230
         H           -2.009398517026     1.366760274367     1.211625793898     1.007825032230
         H            1.410484482974     0.747043274367    -1.416614206102     1.007825032230
         H            2.178576482974    -0.811312725633    -0.986296206102     1.007825032230
         H           -0.651012517026    -3.034146725633    -0.502215206102     1.007825032230
         H           -1.560259517026     2.293039274367    -0.852852206102     1.007825032230
         H            3.485118482974     1.080756274367    -0.421005206102     1.007825032230

  Basis Set: AUG-CC-PVTZ
    Blend: AUG-CC-PVTZ
  Basis Set: (AUG-CC-PVTZ AUX)
    Blend: AUG-CC-PVTZ-JKFIT
	 Reference Energy          =    -494.7547094368421199 [Eh]
	 Singles Energy            =      -0.0000000000000000 [Eh]
	 Same-Spin Energy          =      -0.4845468920770549 [Eh]
	 Opposite-Spin Energy      =      -1.5166765151163970 [Eh]
	 Correlation Energy        =      -2.0012234071934518 [Eh]
	 Total Energy              =    -496.7559328440355557 [Eh]

	 ================> DF-SCS-MP2 Energies <==================
	-----------------------------------------------------------
	 SCS Same-Spin Scale       =       0.3333333333333333 [-]
	 SCS Opposite-Spin Scale   =       1.2000000000000000 [-]
	 SCS Same-Spin Energy      =      -0.1615156306923516 [Eh]
	 SCS Opposite-Spin Energy  =      -1.8200118181396763 [Eh]
	 SCS Correlation Energy    =      -1.9815274488320278 [Eh]
	 SCS Total Energy          =    -496.7362368856741455 [Eh]
	-----------------------------------------------------------

  Dipole Moment: [D]
     X:    -1.1828      Y:     0.0438      Z:    -1.8651     Total:     2.2089

*** Psi4 exiting successfully. Buy a developer a beer!
