                               Psi4 1.3.2 release

  ==> Input File <==

--------------------------------------------------------------------------
#psi4
#
memory 32 gb

molecule  {
0 1
  O       -0.0768340     1.0301030     0.6945190
  O        0.0027630    -2.4368280    -0.0631460
  O       -1.7956835     1.3837545    -0.8479999
  O        2.7706710     0.8423760     0.1830720
  C       -0.3978190    -1.0935740    -0.3143580
  C        0.6336520    -0.1707830     0.3242940
  C       -1.6840130    -0.6458300     0.3680790
  C       -1.4616990     0.8497080     0.4211840
  C        1.7909010     0.1493410    -0.5832570
  H       -0.4628000    -0.8966240    -1.3943000
  H        1.0128680    -0.6537370     1.2378340
  H       -2.6003960    -0.9046920    -0.1672120
  H       -1.7107100    -1.0642920     1.3790340
  H       -2.0056690     1.3805330     1.2112860
  H        1.4142140     0.7608160    -1.4169540
  H        2.1823060    -0.7975400    -0.9866360
  H       -0.6472830    -3.0203740    -0.5025550
  H       -1.5565300     2.3068120    -0.8531920
  H        3.4888480     1.0945290    -0.4213450
units angstrom
no_reorient  #important for SAPT in psi4, default
symmetry c1  #important for SAPT in psi4, default
}

set PROPERTIES_ORIGIN ["COM"]
properties('MP2/aug-cc-pvtz', properties = ['dipole'])
--------------------------------------------------------------------------

    Molecular point group: c1
  Charge       = 0
  Multiplicity = 1
  Basis Set: AUG-CC-PVTZ
    Blend: AUG-CC-PVTZ
  Basis Set: (AUG-CC-PVTZ AUX)
    Blend: AUG-CC-PVTZ-JKFIT

    Orbital Energies [Eh]
    ---------------------

    Doubly Occupied:

       1A    -20.572605     2A    -20.565928     3A    -20.557948
       4A    -20.557937     5A    -11.337552     6A    -11.289166
       7A    -11.277004     8A    -11.275227     9A    -11.231244
      10A     -1.416429    11A     -1.370465    12A     -1.357193
      13A     -1.336840    14A     -1.063882    15A     -1.025966
      16A     -0.898318    17A     -0.822301    18A     -0.794947
      19A     -0.746261    20A     -0.701878    21A     -0.684185
      22A     -0.674733    23A     -0.642208    24A     -0.628628
      25A     -0.617838    26A     -0.573434    27A     -0.565639
      28A     -0.556385    29A     -0.537755    30A     -0.519378
      31A     -0.506639    32A     -0.484488    33A     -0.463020
      34A     -0.447571    35A     -0.441292    36A     -0.429566

  @DF-RHF Final Energy:  -494.78305338840784

   => Energetics <=

    Nuclear Repulsion Energy =            509.3186628483517779
    One-Electron Energy =               -1690.2597302083688646
    Two-Electron Energy =                 686.1580139716091935
    Total Energy =                       -494.7830533884078932
  Basis Set: (AUG-CC-PVTZ AUX)
    Blend: AUG-CC-PVTZ-RI
    Molecular point group: c1

    Geometry (in Angstrom), charge = 0, multiplicity = 1:

       Center              X                  Y                   Z               Mass
    ------------   -----------------  -----------------  -----------------  -----------------
         O           -0.077507351947     1.027387356781     0.693582249488    15.994914619570
         O            0.002089648053    -2.439543643219    -0.064082750512    15.994914619570
         O           -1.796356851947     1.381038856781    -0.848936650512    15.994914619570
         O            2.769997648053     0.839660356781     0.182135249488    15.994914619570
         C           -0.398492351947    -1.096289643219    -0.315294750512    12.000000000000
         C            0.632978648053    -0.173498643219     0.323357249488    12.000000000000
         C           -1.684686351947    -0.648545643219     0.367142249488    12.000000000000
         C           -1.462372351947     0.846992356781     0.420247249488    12.000000000000
         C            1.790227648053     0.146625356781    -0.584193750512    12.000000000000
         H           -0.463473351947    -0.899339643219    -1.395236750512     1.007825032230
         H            1.012194648053    -0.656452643219     1.236897249488     1.007825032230
         H           -2.601069351947    -0.907407643219    -0.168148750512     1.007825032230
         H           -1.711383351947    -1.067007643219     1.378097249488     1.007825032230
         H           -2.006342351947     1.377817356781     1.210349249488     1.007825032230
         H            1.413540648053     0.758100356781    -1.417890750512     1.007825032230
         H            2.181632648053    -0.800255643219    -0.987572750512     1.007825032230
         H           -0.647956351947    -3.023089643219    -0.503491750512     1.007825032230
         H           -1.557203351947     2.304096356781    -0.854128750512     1.007825032230
         H            3.488174648053     1.091813356781    -0.422281750512     1.007825032230

  Basis Set: AUG-CC-PVTZ
    Blend: AUG-CC-PVTZ
  Basis Set: (AUG-CC-PVTZ AUX)
    Blend: AUG-CC-PVTZ-JKFIT
	 Reference Energy          =    -494.7830533884078363 [Eh]
	 Singles Energy            =      -0.0000000000000000 [Eh]
	 Same-Spin Energy          =      -0.4824641010648895 [Eh]
	 Opposite-Spin Energy      =      -1.5120531861076758 [Eh]
	 Correlation Energy        =      -1.9945172871725654 [Eh]
	 Total Energy              =    -496.7775706755804208 [Eh]

	 ================> DF-SCS-MP2 Energies <==================
	-----------------------------------------------------------
	 SCS Same-Spin Scale       =       0.3333333333333333 [-]
	 SCS Opposite-Spin Scale   =       1.2000000000000000 [-]
	 SCS Same-Spin Energy      =      -0.1608213670216298 [Eh]
	 SCS Opposite-Spin Energy  =      -1.8144638233292110 [Eh]
	 SCS Correlation Energy    =      -1.9752851903508408 [Eh]
	 SCS Total Energy          =    -496.7583385787586963 [Eh]
	-----------------------------------------------------------

  Dipole Moment: [D]
     X:    -1.1637      Y:    -0.5285      Z:    -1.8633     Total:     2.2595

*** Psi4 exiting successfully. Buy a developer a beer!
