                               Psi4 1.3.2 release

  ==> Input File <==

--------------------------------------------------------------------------
#psi4
#
memory 32 gb

molecule  {
0 1
  O       -0.0768340     1.0301030     0.6945190
  O        0.0027630    -2.4368280    -0.0631460
  O       -1.8013270     1.3609940    -0.8558510
  O        2.7706710     0.8423760     0.1830720
  C       -0.3978190    -1.0935740    -0.3143580
  C        0.6336520    -0.1707830     0.3242940
  C       -1.6638028    -0.6618183     0.4145879
  C       -1.4616990     0.8497080     0.4211840
  C        1.7909010     0.1493410    -0.5832570
  H       -0.4628000    -0.8966240    -1.3943000
  H        1.0128680    -0.6537370     1.2378340
  H       -2.6003960    -0.9046920    -0.1672120
  H       -1.7107100    -1.0642920     1.3790340
  H       -2.0056690     1.3805330     1.2112860
  H        1.4142140     0.7608160    -1.4169540
  H        2.1823060    -0.7975400    -0.9866360
  H       -0.6472830    -3.0203740    -0.5025550
  H       -1.5565300     2.3068120    -0.8531920
  H        3.4888480     1.0945290    -0.4213450
units angstrom
no_reorient  #important for SAPT in psi4, default
symmetry c1  #important for SAPT in psi4, default
}

set PROPERTIES_ORIGIN ["COM"]
properties('MP2/aug-cc-pvtz', properties = ['dipole'])
--------------------------------------------------------------------------

    Molecular point group: c1
  Charge       = 0
  Multiplicity = 1
  Basis Set: AUG-CC-PVTZ
    Blend: AUG-CC-PVTZ
  Basis Set: (AUG-CC-PVTZ AUX)
    Blend: AUG-CC-PVTZ-JKFIT

    Orbital Energies [Eh]
    ---------------------

    Doubly Occupied:

       1A    -20.571506     2A    -20.570282     3A    -20.557799
       4A    -20.557418     5A    -11.337720     6A    -11.288749
       7A    -11.276433     8A    -11.274968     9A    -11.230165
      10A     -1.414889    11A     -1.369681    12A     -1.356754
      13A     -1.335134    14A     -1.062743    15A     -1.024523
      16A     -0.896855    17A     -0.822952    18A     -0.792911
      19A     -0.745500    20A     -0.700528    21A     -0.682105
      22A     -0.673325    23A     -0.642130    24A     -0.627875
      25A     -0.617324    26A     -0.574500    27A     -0.565445
      28A     -0.558582    29A     -0.543713    30A     -0.518719
      31A     -0.501111    32A     -0.483317    33A     -0.462326
      34A     -0.447318    35A     -0.440039    36A     -0.429366

  @DF-RHF Final Energy:  -494.77855010664081

   => Energetics <=

    Nuclear Repulsion Energy =            509.2813169935993187
    One-Electron Energy =               -1690.2103243190631474
    Two-Electron Energy =                 686.1504572188229076
    Total Energy =                       -494.7785501066408642
  Basis Set: (AUG-CC-PVTZ AUX)
    Blend: AUG-CC-PVTZ-RI
    Molecular point group: c1

    Geometry (in Angstrom), charge = 0, multiplicity = 1:

       Center              X                  Y                   Z               Mass
    ------------   -----------------  -----------------  -----------------  -----------------
         O           -0.078643093215     1.031534160644     0.690355814511    15.994914619570
         O            0.000953906785    -2.435396839356    -0.067309185489    15.994914619570
         O           -1.803136093215     1.362425160644    -0.860014185489    15.994914619570
         O            2.768861906785     0.843807160644     0.178908814511    15.994914619570
         C           -0.399628093215    -1.092142839356    -0.318521185489    12.000000000000
         C            0.631842906785    -0.169351839356     0.320130814511    12.000000000000
         C           -1.665611893215    -0.660387139356     0.410424714511    12.000000000000
         C           -1.463508093215     0.851139160644     0.417020814511    12.000000000000
         C            1.789091906785     0.150772160644    -0.587420185489    12.000000000000
         H           -0.464609093215    -0.895192839356    -1.398463185489     1.007825032230
         H            1.011058906785    -0.652305839356     1.233670814511     1.007825032230
         H           -2.602205093215    -0.903260839356    -0.171375185489     1.007825032230
         H           -1.712519093215    -1.062860839356     1.374870814511     1.007825032230
         H           -2.007478093215     1.381964160644     1.207122814511     1.007825032230
         H            1.412404906785     0.762247160644    -1.421117185489     1.007825032230
         H            2.180496906785    -0.796108839356    -0.990799185489     1.007825032230
         H           -0.649092093215    -3.018942839356    -0.506718185489     1.007825032230
         H           -1.558339093215     2.308243160644    -0.857355185489     1.007825032230
         H            3.487038906785     1.095960160644    -0.425508185489     1.007825032230

  Basis Set: AUG-CC-PVTZ
    Blend: AUG-CC-PVTZ
  Basis Set: (AUG-CC-PVTZ AUX)
    Blend: AUG-CC-PVTZ-JKFIT
	 Reference Energy          =    -494.7785501066408074 [Eh]
	 Singles Energy            =      -0.0000000000000000 [Eh]
	 Same-Spin Energy          =      -0.4828083035568121 [Eh]
	 Opposite-Spin Energy      =      -1.5129908191711661 [Eh]
	 Correlation Energy        =      -1.9957991227279783 [Eh]
	 Total Energy              =    -496.7743492293687950 [Eh]

	 ================> DF-SCS-MP2 Energies <==================
	-----------------------------------------------------------
	 SCS Same-Spin Scale       =       0.3333333333333333 [-]
	 SCS Opposite-Spin Scale   =       1.2000000000000000 [-]
	 SCS Same-Spin Energy      =      -0.1609361011856040 [Eh]
	 SCS Opposite-Spin Energy  =      -1.8155889830053993 [Eh]
	 SCS Correlation Energy    =      -1.9765250841910034 [Eh]
	 SCS Total Energy          =    -496.7550751908318034 [Eh]
	-----------------------------------------------------------

  Dipole Moment: [D]
     X:    -1.1507      Y:    -0.4673      Z:    -1.8450     Total:     2.2241

*** Psi4 exiting successfully. Buy a developer a beer!
