                               Psi4 1.3.2 release

  ==> Input File <==

--------------------------------------------------------------------------
#psi4
#
memory 32 gb

molecule  {
0 1
  O       -0.0768340     1.0301030     0.6945190
  O       -0.1187963    -2.4488330     0.0222786
  O       -1.8013270     1.3609940    -0.8558510
  O        2.7706710     0.8423760     0.1830720
  C       -0.3978190    -1.0935740    -0.3143580
  C        0.6336520    -0.1707830     0.3242940
  C       -1.6840130    -0.6458300     0.3680790
  C       -1.4616990     0.8497080     0.4211840
  C        1.7909010     0.1493410    -0.5832570
  H       -0.4628000    -0.8966240    -1.3943000
  H        1.0128680    -0.6537370     1.2378340
  H       -2.6003960    -0.9046920    -0.1672120
  H       -1.7107100    -1.0642920     1.3790340
  H       -2.0056690     1.3805330     1.2112860
  H        1.4142140     0.7608160    -1.4169540
  H        2.1823060    -0.7975400    -0.9866360
  H       -0.6472830    -3.0203740    -0.5025550
  H       -1.5565300     2.3068120    -0.8531920
  H        3.4888480     1.0945290    -0.4213450
units angstrom
no_reorient  #important for SAPT in psi4, default
symmetry c1  #important for SAPT in psi4, default
}

set PROPERTIES_ORIGIN ["COM"]
properties('MP2/aug-cc-pvtz', properties = ['dipole'])
--------------------------------------------------------------------------

    Molecular point group: c1
  Charge       = 0
  Multiplicity = 1
  Basis Set: AUG-CC-PVTZ
    Blend: AUG-CC-PVTZ
  Basis Set: (AUG-CC-PVTZ AUX)
    Blend: AUG-CC-PVTZ-JKFIT

    Orbital Energies [Eh]
    ---------------------

    Doubly Occupied:

       1A    -20.568310     2A    -20.566770     3A    -20.559266
       4A    -20.558553     5A    -11.334661     6A    -11.289760
       7A    -11.278466     8A    -11.277026     9A    -11.226017
      10A     -1.414947    11A     -1.376274    12A     -1.358217
      13A     -1.335046    14A     -1.063948    15A     -1.025201
      16A     -0.899165    17A     -0.820425    18A     -0.794534
      19A     -0.748171    20A     -0.702869    21A     -0.690614
      22A     -0.674555    23A     -0.644476    24A     -0.628147
      25A     -0.611010    26A     -0.572637    27A     -0.565751
      28A     -0.554898    29A     -0.537282    30A     -0.519142
      31A     -0.507368    32A     -0.487574    33A     -0.464653
      34A     -0.448874    35A     -0.436498    36A     -0.429430

  @DF-RHF Final Energy:  -494.78153296292061

   => Energetics <=

    Nuclear Repulsion Energy =            509.4904653535402872
    One-Electron Energy =               -1690.6029253596354920
    Two-Electron Energy =                 686.3309270431747109
    Total Energy =                       -494.7815329629205507
  Basis Set: (AUG-CC-PVTZ AUX)
    Blend: AUG-CC-PVTZ-RI
    Molecular point group: c1

    Geometry (in Angstrom), charge = 0, multiplicity = 1:

       Center              X                  Y                   Z               Mass
    ------------   -----------------  -----------------  -----------------  -----------------
         O           -0.062330344163     1.031535349310     0.684326685826    15.994914619570
         O           -0.104292644163    -2.447400650690     0.012086285826    15.994914619570
         O           -1.786823344163     1.362426349310    -0.866043314174    15.994914619570
         O            2.785174655837     0.843808349310     0.172879685826    15.994914619570
         C           -0.383315344163    -1.092141650690    -0.324550314174    12.000000000000
         C            0.648155655837    -0.169350650690     0.314101685826    12.000000000000
         C           -1.669509344163    -0.644397650690     0.357886685826    12.000000000000
         C           -1.447195344163     0.851140349310     0.410991685826    12.000000000000
         C            1.805404655837     0.150773349310    -0.593449314174    12.000000000000
         H           -0.448296344163    -0.895191650690    -1.404492314174     1.007825032230
         H            1.027371655837    -0.652304650690     1.227641685826     1.007825032230
         H           -2.585892344163    -0.903259650690    -0.177404314174     1.007825032230
         H           -1.696206344163    -1.062859650690     1.368841685826     1.007825032230
         H           -1.991165344163     1.381965349310     1.201093685826     1.007825032230
         H            1.428717655837     0.762248349310    -1.427146314174     1.007825032230
         H            2.196809655837    -0.796107650690    -0.996828314174     1.007825032230
         H           -0.632779344163    -3.018941650690    -0.512747314174     1.007825032230
         H           -1.542026344163     2.308244349310    -0.863384314174     1.007825032230
         H            3.503351655837     1.095961349310    -0.431537314174     1.007825032230

  Basis Set: AUG-CC-PVTZ
    Blend: AUG-CC-PVTZ
  Basis Set: (AUG-CC-PVTZ AUX)
    Blend: AUG-CC-PVTZ-JKFIT
	 Reference Energy          =    -494.7815329629206076 [Eh]
	 Singles Energy            =      -0.0000000000000000 [Eh]
	 Same-Spin Energy          =      -0.4823893253755924 [Eh]
	 Opposite-Spin Energy      =      -1.5117541141493056 [Eh]
	 Correlation Energy        =      -1.9941434395248980 [Eh]
	 Total Energy              =    -496.7756764024455265 [Eh]

	 ================> DF-SCS-MP2 Energies <==================
	-----------------------------------------------------------
	 SCS Same-Spin Scale       =       0.3333333333333333 [-]
	 SCS Opposite-Spin Scale   =       1.2000000000000000 [-]
	 SCS Same-Spin Energy      =      -0.1607964417918641 [Eh]
	 SCS Opposite-Spin Energy  =      -1.8141049369791666 [Eh]
	 SCS Correlation Energy    =      -1.9749013787710308 [Eh]
	 SCS Total Energy          =    -496.7564343416916586 [Eh]
	-----------------------------------------------------------

  Dipole Moment: [D]
     X:    -0.8972      Y:    -0.4786      Z:    -2.0827     Total:     2.3177

*** Psi4 exiting successfully. Buy a developer a beer!
