                               Psi4 1.3.2 release

  ==> Input File <==

--------------------------------------------------------------------------
#psi4
#
memory 32 gb

molecule  {
0 1
  O       -0.0768340     1.0301030     0.6945190
  O        0.0027630    -2.4368280    -0.0631460
  O       -1.8068670     1.3380778    -0.8633131
  O        2.7706710     0.8423760     0.1830720
  C       -0.3978190    -1.0935740    -0.3143580
  C        0.6336520    -0.1707830     0.3242940
  C       -1.6840130    -0.6458300     0.3680790
  C       -1.4616990     0.8497080     0.4211840
  C        1.7909010     0.1493410    -0.5832570
  H       -0.4628000    -0.8966240    -1.3943000
  H        1.0128680    -0.6537370     1.2378340
  H       -2.6003960    -0.9046920    -0.1672120
  H       -1.7107100    -1.0642920     1.3790340
  H       -2.0056690     1.3805330     1.2112860
  H        1.4142140     0.7608160    -1.4169540
  H        2.1823060    -0.7975400    -0.9866360
  H       -0.6472830    -3.0203740    -0.5025550
  H       -1.5565300     2.3068120    -0.8531920
  H        3.4888480     1.0945290    -0.4213450
units angstrom
no_reorient  #important for SAPT in psi4, default
symmetry c1  #important for SAPT in psi4, default
}

set PROPERTIES_ORIGIN ["COM"]
properties('MP2/aug-cc-pvtz', properties = ['dipole'])
--------------------------------------------------------------------------

    Molecular point group: c1
  Charge       = 0
  Multiplicity = 1
  Basis Set: AUG-CC-PVTZ
    Blend: AUG-CC-PVTZ
  Basis Set: (AUG-CC-PVTZ AUX)
    Blend: AUG-CC-PVTZ-JKFIT

    Orbital Energies [Eh]
    ---------------------

    Doubly Occupied:

       1A    -20.572233     2A    -20.571978     3A    -20.558694
       4A    -20.557959     5A    -11.336891     6A    -11.288448
       7A    -11.276955     8A    -11.275195     9A    -11.229442
      10A     -1.414179    11A     -1.369296    12A     -1.356673
      13A     -1.333386    14A     -1.062773    15A     -1.024512
      16A     -0.896670    17A     -0.820453    18A     -0.793732
      19A     -0.741592    20A     -0.700587    21A     -0.681071
      22A     -0.674597    23A     -0.642445    24A     -0.628418
      25A     -0.615911    26A     -0.573553    27A     -0.564931
      28A     -0.556077    29A     -0.534746    30A     -0.520391
      31A     -0.505870    32A     -0.484433    33A     -0.462297
      34A     -0.447568    35A     -0.441621    36A     -0.429583

  @DF-RHF Final Energy:  -494.77913514997965

   => Energetics <=

    Nuclear Repulsion Energy =            509.3971946170236151
    One-Electron Energy =               -1690.4623401008761903
    Two-Electron Energy =                 686.2860103338729232
    Total Energy =                       -494.7791351499796519
  Basis Set: (AUG-CC-PVTZ AUX)
    Blend: AUG-CC-PVTZ-RI
    Molecular point group: c1

    Geometry (in Angstrom), charge = 0, multiplicity = 1:

       Center              X                  Y                   Z               Mass
    ------------   -----------------  -----------------  -----------------  -----------------
         O           -0.076173009727     1.032837202471     0.695409320555    15.994914619570
         O            0.003423990273    -2.434093797529    -0.062255679445    15.994914619570
         O           -1.806206009727     1.340812002471    -0.862422779445    15.994914619570
         O            2.771331990273     0.845110202471     0.183962320555    15.994914619570
         C           -0.397158009727    -1.090839797529    -0.313467679445    12.000000000000
         C            0.634312990273    -0.168048797529     0.325184320555    12.000000000000
         C           -1.683352009727    -0.643095797529     0.368969320555    12.000000000000
         C           -1.461038009727     0.852442202471     0.422074320555    12.000000000000
         C            1.791561990273     0.152075202471    -0.582366679445    12.000000000000
         H           -0.462139009727    -0.893889797529    -1.393409679445     1.007825032230
         H            1.013528990273    -0.651002797529     1.238724320555     1.007825032230
         H           -2.599735009727    -0.901957797529    -0.166321679445     1.007825032230
         H           -1.710049009727    -1.061557797529     1.379924320555     1.007825032230
         H           -2.005008009727     1.383267202471     1.212176320555     1.007825032230
         H            1.414874990273     0.763550202471    -1.416063679445     1.007825032230
         H            2.182966990273    -0.794805797529    -0.985745679445     1.007825032230
         H           -0.646622009727    -3.017639797529    -0.501664679445     1.007825032230
         H           -1.555869009727     2.309546202471    -0.852301679445     1.007825032230
         H            3.489508990273     1.097263202471    -0.420454679445     1.007825032230

  Basis Set: AUG-CC-PVTZ
    Blend: AUG-CC-PVTZ
  Basis Set: (AUG-CC-PVTZ AUX)
    Blend: AUG-CC-PVTZ-JKFIT
	 Reference Energy          =    -494.7791351499796519 [Eh]
	 Singles Energy            =      -0.0000000000000000 [Eh]
	 Same-Spin Energy          =      -0.4832685404380140 [Eh]
	 Opposite-Spin Energy      =      -1.5139799822957611 [Eh]
	 Correlation Energy        =      -1.9972485227337753 [Eh]
	 Total Energy              =    -496.7763836727134503 [Eh]

	 ================> DF-SCS-MP2 Energies <==================
	-----------------------------------------------------------
	 SCS Same-Spin Scale       =       0.3333333333333333 [-]
	 SCS Opposite-Spin Scale   =       1.2000000000000000 [-]
	 SCS Same-Spin Energy      =      -0.1610895134793380 [Eh]
	 SCS Opposite-Spin Energy  =      -1.8167759787549134 [Eh]
	 SCS Correlation Energy    =      -1.9778654922342513 [Eh]
	 SCS Total Energy          =    -496.7570006422138817 [Eh]
	-----------------------------------------------------------

  Dipole Moment: [D]
     X:    -1.1594      Y:    -0.4398      Z:    -1.8613     Total:     2.2365

*** Psi4 exiting successfully. Buy a developer a beer!
