                               Psi4 1.3.2 release

  ==> Input File <==

--------------------------------------------------------------------------
#psi4
#
memory 32 gb

molecule  {
0 1
  O       -0.0768340     1.0301030     0.6945190
  O        0.0027630    -2.4368280    -0.0631460
  O       -1.8228497     1.2684648    -0.8833435
  O        2.7706710     0.8423760     0.1830720
  C       -0.3978190    -1.0935740    -0.3143580
  C        0.6336520    -0.1707830     0.3242940
  C       -1.6840130    -0.6458300     0.3680790
  C       -1.4616990     0.8497080     0.4211840
  C        1.7909010     0.1493410    -0.5832570
  H       -0.4628000    -0.8966240    -1.3943000
  H        1.0128680    -0.6537370     1.2378340
  H       -2.6003960    -0.9046920    -0.1672120
  H       -1.7107100    -1.0642920     1.3790340
  H       -2.0056690     1.3805330     1.2112860
  H        1.4142140     0.7608160    -1.4169540
  H        2.1823060    -0.7975400    -0.9866360
  H       -0.6472830    -3.0203740    -0.5025550
  H       -1.5565300     2.3068120    -0.8531920
  H        3.4888480     1.0945290    -0.4213450
units angstrom
no_reorient  #important for SAPT in psi4, default
symmetry c1  #important for SAPT in psi4, default
}

set PROPERTIES_ORIGIN ["COM"]
properties('MP2/aug-cc-pvtz', properties = ['dipole'])
--------------------------------------------------------------------------

    Molecular point group: c1
  Charge       = 0
  Multiplicity = 1
  Basis Set: AUG-CC-PVTZ
    Blend: AUG-CC-PVTZ
  Basis Set: (AUG-CC-PVTZ AUX)
    Blend: AUG-CC-PVTZ-JKFIT

    Orbital Energies [Eh]
    ---------------------

    Doubly Occupied:

       1A    -20.580823     2A    -20.571091     3A    -20.559925
       4A    -20.558005     5A    -11.336385     6A    -11.287439
       7A    -11.276941     8A    -11.275189     9A    -11.226923
      10A     -1.412038    11A     -1.367874    12A     -1.356207
      13A     -1.328830    14A     -1.061244    15A     -1.022551
      16A     -0.894897    17A     -0.819031    18A     -0.792487
      19A     -0.735392    20A     -0.699098    21A     -0.675834
      22A     -0.674254    23A     -0.642847    24A     -0.628054
      25A     -0.613533    26A     -0.573285    27A     -0.563526
      28A     -0.555551    29A     -0.530078    30A     -0.521742
      31A     -0.504868    32A     -0.483688    33A     -0.461225
      34A     -0.447586    35A     -0.442028    36A     -0.429385

  @DF-RHF Final Energy:  -494.76545864247691

   => Energetics <=

    Nuclear Repulsion Energy =            509.5857415602771425
    One-Electron Energy =               -1690.8826880063345470
    Two-Electron Energy =                 686.5314878035806032
    Total Energy =                       -494.7654586424769150
  Basis Set: (AUG-CC-PVTZ AUX)
    Blend: AUG-CC-PVTZ-RI
    Molecular point group: c1

    Geometry (in Angstrom), charge = 0, multiplicity = 1:

       Center              X                  Y                   Z               Mass
    ------------   -----------------  -----------------  -----------------  -----------------
         O           -0.074266058290     1.041142971235     0.697799217136    15.994914619570
         O            0.005330941710    -2.425788028765    -0.059865782864    15.994914619570
         O           -1.820281758290     1.279504771235    -0.880063282864    15.994914619570
         O            2.773238941710     0.853415971235     0.186352217136    15.994914619570
         C           -0.395251058290    -1.082534028765    -0.311077782864    12.000000000000
         C            0.636219941710    -0.159743028765     0.327574217136    12.000000000000
         C           -1.681445058290    -0.634790028765     0.371359217136    12.000000000000
         C           -1.459131058290     0.860747971235     0.424464217136    12.000000000000
         C            1.793468941710     0.160380971235    -0.579976782864    12.000000000000
         H           -0.460232058290    -0.885584028765    -1.391019782864     1.007825032230
         H            1.015435941710    -0.642697028765     1.241114217136     1.007825032230
         H           -2.597828058290    -0.893652028765    -0.163931782864     1.007825032230
         H           -1.708142058290    -1.053252028765     1.382314217136     1.007825032230
         H           -2.003101058290     1.391572971235     1.214566217136     1.007825032230
         H            1.416781941710     0.771855971235    -1.413673782864     1.007825032230
         H            2.184873941710    -0.786500028765    -0.983355782864     1.007825032230
         H           -0.644715058290    -3.009334028765    -0.499274782864     1.007825032230
         H           -1.553962058290     2.317851971235    -0.849911782864     1.007825032230
         H            3.491415941710     1.105568971235    -0.418064782864     1.007825032230

  Basis Set: AUG-CC-PVTZ
    Blend: AUG-CC-PVTZ
  Basis Set: (AUG-CC-PVTZ AUX)
    Blend: AUG-CC-PVTZ-JKFIT
	 Reference Energy          =    -494.7654586424769150 [Eh]
	 Singles Energy            =      -0.0000000000000000 [Eh]
	 Same-Spin Energy          =      -0.4845720850413951 [Eh]
	 Opposite-Spin Energy      =      -1.5172164760491083 [Eh]
	 Correlation Energy        =      -2.0017885610905033 [Eh]
	 Total Energy              =    -496.7672472035674218 [Eh]

	 ================> DF-SCS-MP2 Energies <==================
	-----------------------------------------------------------
	 SCS Same-Spin Scale       =       0.3333333333333333 [-]
	 SCS Opposite-Spin Scale   =       1.2000000000000000 [-]
	 SCS Same-Spin Energy      =      -0.1615240283471317 [Eh]
	 SCS Opposite-Spin Energy  =      -1.8206597712589299 [Eh]
	 SCS Correlation Energy    =      -1.9821837996060616 [Eh]
	 SCS Total Energy          =    -496.7476424420829630 [Eh]
	-----------------------------------------------------------

  Dipole Moment: [D]
     X:    -1.1520      Y:    -0.3200      Z:    -1.8568     Total:     2.2085

*** Psi4 exiting successfully. Buy a developer a beer!
