                               Psi4 1.3.2 release

  ==> Input File <==

--------------------------------------------------------------------------
#psi4
#
memory 32 gb

molecule  {
0 1
  O       -0.0768340     1.0301030     0.6945190
  O        0.0027630    -2.4368280    -0.0631460
  O       -1.8013270     1.3609940    -0.8558510
  O        2.7706710     0.8423760     0.1830720
  C       -0.3978190    -1.0935740    -0.3143580
  C        0.6336520    -0.1707830     0.3242940
  C       -1.6840130    -0.6458300     0.3680790
  C       -1.3292211     0.8187529     0.5022322
  C        1.7909010     0.1493410    -0.5832570
  H       -0.4628000    -0.8966240    -1.3943000
  H        1.0128680    -0.6537370     1.2378340
  H       -2.6003960    -0.9046920    -0.1672120
  H       -1.7107100    -1.0642920     1.3790340
  H       -2.0056690     1.3805330     1.2112860
  H        1.4142140     0.7608160    -1.4169540
  H        2.1823060    -0.7975400    -0.9866360
  H       -0.6472830    -3.0203740    -0.5025550
  H       -1.5565300     2.3068120    -0.8531920
  H        3.4888480     1.0945290    -0.4213450
units angstrom
no_reorient  #important for SAPT in psi4, default
symmetry c1  #important for SAPT in psi4, default
}

set PROPERTIES_ORIGIN ["COM"]
properties('MP2/aug-cc-pvtz', properties = ['dipole'])
--------------------------------------------------------------------------

    Molecular point group: c1
  Charge       = 0
  Multiplicity = 1
  Basis Set: AUG-CC-PVTZ
    Blend: AUG-CC-PVTZ
  Basis Set: (AUG-CC-PVTZ AUX)
    Blend: AUG-CC-PVTZ-JKFIT

    Orbital Energies [Eh]
    ---------------------

    Doubly Occupied:

       1A    -20.582027     2A    -20.574581     3A    -20.564275
       4A    -20.540618     5A    -11.338455     6A    -11.292496
       7A    -11.289969     8A    -11.282868     9A    -11.230425
      10A     -1.461525    11A     -1.372209    12A     -1.361750
      13A     -1.306008    14A     -1.076019    15A     -1.034283
      16A     -0.898930    17A     -0.834594    18A     -0.796352
      19A     -0.740802    20A     -0.710358    21A     -0.689031
      22A     -0.671361    23A     -0.645631    24A     -0.642251
      25A     -0.608585    26A     -0.584757    27A     -0.566688
      28A     -0.564762    29A     -0.538945    30A     -0.520389
      31A     -0.501594    32A     -0.481899    33A     -0.463367
      34A     -0.453103    35A     -0.433984    36A     -0.431839

  @DF-RHF Final Energy:  -494.76106875497908

   => Energetics <=

    Nuclear Repulsion Energy =            510.9829784768311924
    One-Electron Energy =               -1693.3146360797161378
    Two-Electron Energy =                 687.5705888479058103
    Total Energy =                       -494.7610687549790782
  Basis Set: (AUG-CC-PVTZ AUX)
    Blend: AUG-CC-PVTZ-RI
    Molecular point group: c1

    Geometry (in Angstrom), charge = 0, multiplicity = 1:

       Center              X                  Y                   Z               Mass
    ------------   -----------------  -----------------  -----------------  -----------------
         O           -0.088692574160     1.032873892120     0.687264078979    15.994914619570
         O           -0.009095574160    -2.434057107880    -0.070400921021    15.994914619570
         O           -1.813185574160     1.363764892120    -0.863105921021    15.994914619570
         O            2.758812425840     0.845146892120     0.175817078979    15.994914619570
         C           -0.409677574160    -1.090803107880    -0.321612921021    12.000000000000
         C            0.621793425840    -0.168012107880     0.317039078979    12.000000000000
         C           -1.695871574160    -0.643059107880     0.360824078979    12.000000000000
         C           -1.341079674160     0.821523792120     0.494977278979    12.000000000000
         C            1.779042425840     0.152111892120    -0.590511921021    12.000000000000
         H           -0.474658574160    -0.893853107880    -1.401554921021     1.007825032230
         H            1.001009425840    -0.650966107880     1.230579078979     1.007825032230
         H           -2.612254574160    -0.901921107880    -0.174466921021     1.007825032230
         H           -1.722568574160    -1.061521107880     1.371779078979     1.007825032230
         H           -2.017527574160     1.383303892120     1.204031078979     1.007825032230
         H            1.402355425840     0.763586892120    -1.424208921021     1.007825032230
         H            2.170447425840    -0.794769107880    -0.993890921021     1.007825032230
         H           -0.659141574160    -3.017603107880    -0.509809921021     1.007825032230
         H           -1.568388574160     2.309582892120    -0.860446921021     1.007825032230
         H            3.476989425840     1.097299892120    -0.428599921021     1.007825032230

  Basis Set: AUG-CC-PVTZ
    Blend: AUG-CC-PVTZ
  Basis Set: (AUG-CC-PVTZ AUX)
    Blend: AUG-CC-PVTZ-JKFIT
	 Reference Energy          =    -494.7610687549790782 [Eh]
	 Singles Energy            =      -0.0000000000000000 [Eh]
	 Same-Spin Energy          =      -0.4837474488956793 [Eh]
	 Opposite-Spin Energy      =      -1.5141497028589455 [Eh]
	 Correlation Energy        =      -1.9978971517546249 [Eh]
	 Total Energy              =    -496.7589659067336925 [Eh]

	 ================> DF-SCS-MP2 Energies <==================
	-----------------------------------------------------------
	 SCS Same-Spin Scale       =       0.3333333333333333 [-]
	 SCS Opposite-Spin Scale   =       1.2000000000000000 [-]
	 SCS Same-Spin Energy      =      -0.1612491496318931 [Eh]
	 SCS Opposite-Spin Energy  =      -1.8169796434307344 [Eh]
	 SCS Correlation Energy    =      -1.9782287930626274 [Eh]
	 SCS Total Energy          =    -496.7392975480416908 [Eh]
	-----------------------------------------------------------

  Dipole Moment: [D]
     X:    -0.2629      Y:    -0.8740      Z:    -1.3884     Total:     1.6615

*** Psi4 exiting successfully. Buy a developer a beer!
