                               Psi4 1.3.2 release

  ==> Input File <==

--------------------------------------------------------------------------
#psi4
#
memory 32 gb

molecule  {
0 1
  O       -0.0768340     1.0301030     0.6945190
  O        0.0814447    -2.4206338    -0.1216840
  O       -1.8013270     1.3609940    -0.8558510
  O        2.7706710     0.8423760     0.1830720
  C       -0.3978190    -1.0935740    -0.3143580
  C        0.6336520    -0.1707830     0.3242940
  C       -1.6840130    -0.6458300     0.3680790
  C       -1.4616990     0.8497080     0.4211840
  C        1.7909010     0.1493410    -0.5832570
  H       -0.4628000    -0.8966240    -1.3943000
  H        1.0128680    -0.6537370     1.2378340
  H       -2.6003960    -0.9046920    -0.1672120
  H       -1.7107100    -1.0642920     1.3790340
  H       -2.0056690     1.3805330     1.2112860
  H        1.4142140     0.7608160    -1.4169540
  H        2.1823060    -0.7975400    -0.9866360
  H       -0.6472830    -3.0203740    -0.5025550
  H       -1.5565300     2.3068120    -0.8531920
  H        3.4888480     1.0945290    -0.4213450
units angstrom
no_reorient  #important for SAPT in psi4, default
symmetry c1  #important for SAPT in psi4, default
}

set PROPERTIES_ORIGIN ["COM"]
properties('MP2/aug-cc-pvtz', properties = ['dipole'])
--------------------------------------------------------------------------

    Molecular point group: c1
  Charge       = 0
  Multiplicity = 1
  Basis Set: AUG-CC-PVTZ
    Blend: AUG-CC-PVTZ
  Basis Set: (AUG-CC-PVTZ AUX)
    Blend: AUG-CC-PVTZ-JKFIT

    Orbital Energies [Eh]
    ---------------------

    Doubly Occupied:

       1A    -20.577173     2A    -20.569514     3A    -20.557892
       4A    -20.557032     5A    -11.338584     6A    -11.287913
       7A    -11.275770     8A    -11.273920     9A    -11.233203
      10A     -1.415210    11A     -1.364658    12A     -1.355688
      13A     -1.334803    14A     -1.062599    15A     -1.024882
      16A     -0.896049    17A     -0.820886    18A     -0.794113
      19A     -0.741496    20A     -0.700212    21A     -0.677408
      22A     -0.671734    23A     -0.640285    24A     -0.628621
      25A     -0.619949    26A     -0.573813    27A     -0.565245
      28A     -0.556889    29A     -0.535662    30A     -0.520206
      31A     -0.505580    32A     -0.482910    33A     -0.460777
      34A     -0.446572    35A     -0.443410    36A     -0.429147

  @DF-RHF Final Energy:  -494.77584406642364

   => Energetics <=

    Nuclear Repulsion Energy =            509.3301969114302779
    One-Electron Energy =               -1690.3324682813163236
    Two-Electron Energy =                 686.2264273034625148
    Total Energy =                       -494.7758440664235877
  Basis Set: (AUG-CC-PVTZ AUX)
    Blend: AUG-CC-PVTZ-RI
    Molecular point group: c1

    Geometry (in Angstrom), charge = 0, multiplicity = 1:

       Center              X                  Y                   Z               Mass
    ------------   -----------------  -----------------  -----------------  -----------------
         O           -0.086221793217     1.028170804835     0.701503363547    15.994914619570
         O            0.072056906783    -2.422565995165    -0.114699636453    15.994914619570
         O           -1.810714793217     1.359061804835    -0.848866636453    15.994914619570
         O            2.761283206783     0.840443804835     0.190056363547    15.994914619570
         C           -0.407206793217    -1.095506195165    -0.307373636453    12.000000000000
         C            0.624264206783    -0.172715195165     0.331278363547    12.000000000000
         C           -1.693400793217    -0.647762195165     0.375063363547    12.000000000000
         C           -1.471086793217     0.847775804835     0.428168363547    12.000000000000
         C            1.781513206783     0.147408804835    -0.576272636453    12.000000000000
         H           -0.472187793217    -0.898556195165    -1.387315636453     1.007825032230
         H            1.003480206783    -0.655669195165     1.244818363547     1.007825032230
         H           -2.609783793217    -0.906624195165    -0.160227636453     1.007825032230
         H           -1.720097793217    -1.066224195165     1.386018363547     1.007825032230
         H           -2.015056793217     1.378600804835     1.218270363547     1.007825032230
         H            1.404826206783     0.758883804835    -1.409969636453     1.007825032230
         H            2.172918206783    -0.799472195165    -0.979651636453     1.007825032230
         H           -0.656670793217    -3.022306195165    -0.495570636453     1.007825032230
         H           -1.565917793217     2.304879804835    -0.846207636453     1.007825032230
         H            3.479460206783     1.092596804835    -0.414360636453     1.007825032230

  Basis Set: AUG-CC-PVTZ
    Blend: AUG-CC-PVTZ
  Basis Set: (AUG-CC-PVTZ AUX)
    Blend: AUG-CC-PVTZ-JKFIT
	 Reference Energy          =    -494.7758440664236446 [Eh]
	 Singles Energy            =      -0.0000000000000000 [Eh]
	 Same-Spin Energy          =      -0.4834942638127321 [Eh]
	 Opposite-Spin Energy      =      -1.5145875122740022 [Eh]
	 Correlation Energy        =      -1.9980817760867344 [Eh]
	 Total Energy              =    -496.7739258425103799 [Eh]

	 ================> DF-SCS-MP2 Energies <==================
	-----------------------------------------------------------
	 SCS Same-Spin Scale       =       0.3333333333333333 [-]
	 SCS Opposite-Spin Scale   =       1.2000000000000000 [-]
	 SCS Same-Spin Energy      =      -0.1611647546042440 [Eh]
	 SCS Opposite-Spin Energy  =      -1.8175050147288025 [Eh]
	 SCS Correlation Energy    =      -1.9786697693330466 [Eh]
	 SCS Total Energy          =    -496.7545138357567112 [Eh]
	-----------------------------------------------------------

  Dipole Moment: [D]
     X:    -1.3161      Y:    -0.5084      Z:    -1.7143     Total:     2.2202

*** Psi4 exiting successfully. Buy a developer a beer!
