                               Psi4 1.3.2 release

  ==> Input File <==

--------------------------------------------------------------------------
#psi4
#
memory 32 gb

molecule  {
0 1
  O       -0.0768340     1.0301030     0.6945190
  O        0.0027630    -2.4368280    -0.0631460
  O       -1.8013270     1.3609940    -0.8558510
  O        2.7706710     0.8423760     0.1830720
  C       -0.3978190    -1.0935740    -0.3143580
  C        0.6336520    -0.1707830     0.3242940
  C       -1.6840130    -0.6458300     0.3680790
  C       -1.5966127     0.8642776     0.3395540
  C        1.7909010     0.1493410    -0.5832570
  H       -0.4628000    -0.8966240    -1.3943000
  H        1.0128680    -0.6537370     1.2378340
  H       -2.6003960    -0.9046920    -0.1672120
  H       -1.7107100    -1.0642920     1.3790340
  H       -2.0056690     1.3805330     1.2112860
  H        1.4142140     0.7608160    -1.4169540
  H        2.1823060    -0.7975400    -0.9866360
  H       -0.6472830    -3.0203740    -0.5025550
  H       -1.5565300     2.3068120    -0.8531920
  H        3.4888480     1.0945290    -0.4213450
units angstrom
no_reorient  #important for SAPT in psi4, default
symmetry c1  #important for SAPT in psi4, default
}

set PROPERTIES_ORIGIN ["COM"]
properties('MP2/aug-cc-pvtz', properties = ['dipole'])
--------------------------------------------------------------------------

    Molecular point group: c1
  Charge       = 0
  Multiplicity = 1
  Basis Set: AUG-CC-PVTZ
    Blend: AUG-CC-PVTZ
  Basis Set: (AUG-CC-PVTZ AUX)
    Blend: AUG-CC-PVTZ-JKFIT

    Orbital Energies [Eh]
    ---------------------

    Doubly Occupied:

       1A    -20.593046     2A    -20.570617     3A    -20.551903
       4A    -20.532435     5A    -11.344167     6A    -11.286037
       7A    -11.268168     8A    -11.264536     9A    -11.233252
      10A     -1.442757    11A     -1.369902    12A     -1.351070
      13A     -1.311890    14A     -1.057961    15A     -1.014871
      16A     -0.898670    17A     -0.823430    18A     -0.787537
      19A     -0.763747    20A     -0.694915    21A     -0.689179
      22A     -0.667400    23A     -0.643238    24A     -0.632553
      25A     -0.622708    26A     -0.573633    27A     -0.563926
      28A     -0.551638    29A     -0.539110    30A     -0.515013
      31A     -0.492491    32A     -0.482042    33A     -0.444803
      34A     -0.440008    35A     -0.438527    36A     -0.414767

  @DF-RHF Final Energy:  -494.76151129392770

   => Energetics <=

    Nuclear Repulsion Energy =            508.0736690675466889
    One-Electron Energy =               -1687.9264681965955788
    Two-Electron Energy =                 685.0912878351211930
    Total Energy =                       -494.7615112939276969
  Basis Set: (AUG-CC-PVTZ AUX)
    Blend: AUG-CC-PVTZ-RI
    Molecular point group: c1

    Geometry (in Angstrom), charge = 0, multiplicity = 1:

       Center              X                  Y                   Z               Mass
    ------------   -----------------  -----------------  -----------------  -----------------
         O           -0.064757401452     1.028798814380     0.701825982991    15.994914619570
         O            0.014839598548    -2.438132185620    -0.055839017009    15.994914619570
         O           -1.789250401452     1.359689814380    -0.848544017009    15.994914619570
         O            2.782747598548     0.841071814380     0.190378982991    15.994914619570
         C           -0.385742401452    -1.094878185620    -0.307051017009    12.000000000000
         C            0.645728598548    -0.172087185620     0.331600982991    12.000000000000
         C           -1.671936401452    -0.647134185620     0.375385982991    12.000000000000
         C           -1.584536101452     0.862973414380     0.346860982991    12.000000000000
         C            1.802977598548     0.148036814380    -0.575950017009    12.000000000000
         H           -0.450723401452    -0.897928185620    -1.386993017009     1.007825032230
         H            1.024944598548    -0.655041185620     1.245140982991     1.007825032230
         H           -2.588319401452    -0.905996185620    -0.159905017009     1.007825032230
         H           -1.698633401452    -1.065596185620     1.386340982991     1.007825032230
         H           -1.993592401452     1.379228814380     1.218592982991     1.007825032230
         H            1.426290598548     0.759511814380    -1.409647017009     1.007825032230
         H            2.194382598548    -0.798844185620    -0.979329017009     1.007825032230
         H           -0.635206401452    -3.021678185620    -0.495248017009     1.007825032230
         H           -1.544453401452     2.305507814380    -0.845885017009     1.007825032230
         H            3.500924598548     1.093224814380    -0.414038017009     1.007825032230

  Basis Set: AUG-CC-PVTZ
    Blend: AUG-CC-PVTZ
  Basis Set: (AUG-CC-PVTZ AUX)
    Blend: AUG-CC-PVTZ-JKFIT
	 Reference Energy          =    -494.7615112939276969 [Eh]
	 Singles Energy            =      -0.0000000000000000 [Eh]
	 Same-Spin Energy          =      -0.4841667864015535 [Eh]
	 Opposite-Spin Energy      =      -1.5149680175486731 [Eh]
	 Correlation Energy        =      -1.9991348039502266 [Eh]
	 Total Energy              =    -496.7606460978778955 [Eh]

	 ================> DF-SCS-MP2 Energies <==================
	-----------------------------------------------------------
	 SCS Same-Spin Scale       =       0.3333333333333333 [-]
	 SCS Opposite-Spin Scale   =       1.2000000000000000 [-]
	 SCS Same-Spin Energy      =      -0.1613889288005178 [Eh]
	 SCS Opposite-Spin Energy  =      -1.8179616210584075 [Eh]
	 SCS Correlation Energy    =      -1.9793505498589254 [Eh]
	 SCS Total Energy          =    -496.7408618437866039 [Eh]
	-----------------------------------------------------------

  Dipole Moment: [D]
     X:    -1.9581      Y:    -0.1602      Z:    -2.3325     Total:     3.0496

*** Psi4 exiting successfully. Buy a developer a beer!
