                               Psi4 1.3.2 release

  ==> Input File <==

--------------------------------------------------------------------------
#psi4
#
memory 32 gb

molecule  {
0 1
  O       -0.0768340     1.0301030     0.6945190
  O        0.0027630    -2.4368280    -0.0631460
  O       -1.8013270     1.3609940    -0.8558510
  O        2.7706710     0.8423760     0.1830720
  C       -0.3978190    -1.0935740    -0.3143580
  C        0.6336520    -0.1707830     0.3242940
  C       -1.6840130    -0.6458300     0.3680790
  C       -1.4616990     0.8497080     0.4211840
  C        1.7909010     0.1493410    -0.5832570
  H       -0.4628000    -0.8966240    -1.3943000
  H        1.0128680    -0.6537370     1.2378340
  H       -2.6003960    -0.9046920    -0.1672120
  H       -1.7107100    -1.0642920     1.3790340
  H       -2.0056690     1.3805330     1.2112860
  H        1.4142140     0.7608160    -1.4169540
  H        2.1823060    -0.7975400    -0.9866360
  H       -0.6472830    -3.0203740    -0.5025550
  H       -1.5565300     2.3068120    -0.8531920
  H        3.4888480     1.0945290    -0.4213450
units angstrom
no_reorient  #important for SAPT in psi4, default
symmetry c1  #important for SAPT in psi4, default
}

set PROPERTIES_ORIGIN ["COM"]
properties('MP2/aug-cc-pvtz', properties = ['dipole'])
--------------------------------------------------------------------------

    Molecular point group: c1
  Charge       = 0
  Multiplicity = 1
  Basis Set: AUG-CC-PVTZ
    Blend: AUG-CC-PVTZ
  Basis Set: (AUG-CC-PVTZ AUX)
    Blend: AUG-CC-PVTZ-JKFIT

    Orbital Energies [Eh]
    ---------------------

    Doubly Occupied:

       1A    -20.572288     2A    -20.569140     3A    -20.558309
       4A    -20.557951     5A    -11.337187     6A    -11.288802
       7A    -11.276975     8A    -11.275208     9A    -11.230331
      10A     -1.415208    11A     -1.369854    12A     -1.356908
      13A     -1.335089    14A     -1.063319    15A     -1.025223
      16A     -0.897440    17A     -0.821265    18A     -0.794304
      19A     -0.743902    20A     -0.701202    21A     -0.682699
      22A     -0.674659    23A     -0.642321    24A     -0.628527
      25A     -0.616847    26A     -0.573524    27A     -0.565306
      28A     -0.556238    29A     -0.536270    30A     -0.519893
      31A     -0.506249    32A     -0.484491    33A     -0.462657
      34A     -0.447568    35A     -0.441461    36A     -0.429589

  @DF-RHF Final Energy:  -494.78170030024864

   => Energetics <=

    Nuclear Repulsion Energy =            509.3531497013750595
    One-Electron Energy =               -1690.3532903584675751
    Two-Electron Energy =                 686.2184403568438711
    Total Energy =                       -494.7817003002486445
  Basis Set: (AUG-CC-PVTZ AUX)
    Blend: AUG-CC-PVTZ-RI
    Molecular point group: c1

    Geometry (in Angstrom), charge = 0, multiplicity = 1:

       Center              X                  Y                   Z               Mass
    ------------   -----------------  -----------------  -----------------  -----------------
         O           -0.076834006365     1.030102991072     0.694518991492    15.994914619570
         O            0.002762993635    -2.436828008928    -0.063146008508    15.994914619570
         O           -1.801327006365     1.360993991072    -0.855851008508    15.994914619570
         O            2.770670993635     0.842375991072     0.183071991492    15.994914619570
         C           -0.397819006365    -1.093574008928    -0.314358008508    12.000000000000
         C            0.633651993635    -0.170783008928     0.324293991492    12.000000000000
         C           -1.684013006365    -0.645830008928     0.368078991492    12.000000000000
         C           -1.461699006365     0.849707991072     0.421183991492    12.000000000000
         C            1.790900993635     0.149340991072    -0.583257008508    12.000000000000
         H           -0.462800006365    -0.896624008928    -1.394300008508     1.007825032230
         H            1.012867993635    -0.653737008928     1.237833991492     1.007825032230
         H           -2.600396006365    -0.904692008928    -0.167212008508     1.007825032230
         H           -1.710710006365    -1.064292008928     1.379033991492     1.007825032230
         H           -2.005669006365     1.380532991072     1.211285991492     1.007825032230
         H            1.414213993635     0.760815991072    -1.416954008508     1.007825032230
         H            2.182305993635    -0.797540008928    -0.986636008508     1.007825032230
         H           -0.647283006365    -3.020374008928    -0.502555008508     1.007825032230
         H           -1.556530006365     2.306811991072    -0.853192008508     1.007825032230
         H            3.488847993635     1.094528991072    -0.421345008508     1.007825032230

  Basis Set: AUG-CC-PVTZ
    Blend: AUG-CC-PVTZ
  Basis Set: (AUG-CC-PVTZ AUX)
    Blend: AUG-CC-PVTZ-JKFIT
	 Reference Energy          =    -494.7817003002486445 [Eh]
	 Singles Energy            =      -0.0000000000000000 [Eh]
	 Same-Spin Energy          =      -0.4828592535059922 [Eh]
	 Opposite-Spin Energy      =      -1.5129925828819437 [Eh]
	 Correlation Energy        =      -1.9958518363879358 [Eh]
	 Total Energy              =    -496.7775521366365865 [Eh]

	 ================> DF-SCS-MP2 Energies <==================
	-----------------------------------------------------------
	 SCS Same-Spin Scale       =       0.3333333333333333 [-]
	 SCS Opposite-Spin Scale   =       1.2000000000000000 [-]
	 SCS Same-Spin Energy      =      -0.1609530845019974 [Eh]
	 SCS Opposite-Spin Energy  =      -1.8155910994583324 [Eh]
	 SCS Correlation Energy    =      -1.9765441839603297 [Eh]
	 SCS Total Energy          =    -496.7582444842090013 [Eh]
	-----------------------------------------------------------

  Dipole Moment: [D]
     X:    -1.1616      Y:    -0.4833      Z:    -1.8623     Total:     2.2475

*** Psi4 exiting successfully. Buy a developer a beer!
