                               Psi4 1.4a3.dev225

  ==> Input File <==

--------------------------------------------------------------------------
#psi4
#
memory 32 gb

molecule  {
0 1
  O        0.0779330    -0.9269250    -0.8850860
  O       -0.5497830     2.4054250     0.0105510
  O       -1.2273040    -1.7124440     0.8968780
  O        2.8355650    -0.3742720    -0.2242840
  C       -0.6080970     1.0161320     0.3256370
  C        0.5731950     0.3283540    -0.3705440
  C       -1.8305836     0.2573956    -0.2464627
  C       -1.2359040    -1.1221150    -0.3954320
  C        1.7465980     0.1105970     0.5541480
  H       -0.5498730     0.8655980     1.4125560
  H        0.8905780     0.9380060    -1.2243810
  H       -2.6989340     0.2874680     0.4026800
  H       -2.0570860     0.6846600    -1.2212740
  H       -1.7431510    -1.7703690    -1.1193200
  H        1.4450650    -0.6065030     1.3308310
  H        1.9882130     1.0713000     1.0354480
  H       -1.2210140     2.8543510     0.5524830
  H       -0.6896120    -2.5214440     0.8182530
  H        3.5785240    -0.5383230     0.3798300
units angstrom
no_reorient  #important for SAPT in psi4, default
symmetry c1  #important for SAPT in psi4, default
}

set PROPERTIES_ORIGIN ["COM"]
properties('MP2/aug-cc-pvtz', properties = ['dipole'])
--------------------------------------------------------------------------

    Molecular point group: c1
  Charge       = 0
  Multiplicity = 1
  Basis Set: AUG-CC-PVTZ
    Blend: AUG-CC-PVTZ
  Basis Set: (AUG-CC-PVTZ AUX)
    Blend: AUG-CC-PVTZ-JKFIT

    Orbital Energies [Eh]
    ---------------------

    Doubly Occupied:

       1A    -20.571031     2A    -20.569507     3A    -20.559805
       4A    -20.558968     5A    -11.336362     6A    -11.291135
       7A    -11.277665     8A    -11.276564     9A    -11.228973
      10A     -1.417594    11A     -1.369425    12A     -1.357878
      13A     -1.335856    14A     -1.058522    15A     -1.025789
      16A     -0.897796    17A     -0.821631    18A     -0.794692
      19A     -0.742274    20A     -0.702654    21A     -0.682786
      22A     -0.675427    23A     -0.645561    24A     -0.629842
      25A     -0.611368    26A     -0.574651    27A     -0.565019
      28A     -0.557166    29A     -0.535826    30A     -0.522494
      31A     -0.508415    32A     -0.483502    33A     -0.465400
      34A     -0.448327    35A     -0.441692    36A     -0.427043

  @DF-RHF Final Energy:  -494.78177655936270

   => Energetics <=

    Nuclear Repulsion Energy =            510.7442325353412684
    One-Electron Energy =               -1693.1147390187202291
    Two-Electron Energy =                 687.5887299240162065
    Total Energy =                       -494.7817765593626973
  Basis Set: (AUG-CC-PVTZ AUX)
    Blend: AUG-CC-PVTZ-RI
    Molecular point group: c1

    Geometry (in Angstrom), charge = 0, multiplicity = 1:

       Center              X                  Y                   Z               Mass
    ------------   -----------------  -----------------  -----------------  -----------------
         O            0.071564599978    -0.916710316361    -0.866912922453    15.994914619570
         O           -0.556151400022     2.415639683639     0.028724077547    15.994914619570
         O           -1.233672400022    -1.702229316361     0.915051077547    15.994914619570
         O            2.829196599978    -0.364057316361    -0.206110922453    15.994914619570
         C           -0.614465400022     1.026346683639     0.343810077547    12.000000000000
         C            0.566826599978     0.338568683639    -0.352370922453    12.000000000000
         C           -1.836952000022     0.267610283639    -0.228289622453    12.000000000000
         C           -1.242272400022    -1.111900316361    -0.377258922453    12.000000000000
         C            1.740229599978     0.120811683639     0.572321077547    12.000000000000
         H           -0.556241400022     0.875812683639     1.430729077547     1.007825032230
         H            0.884209599978     0.948220683639    -1.206207922453     1.007825032230
         H           -2.705302400022     0.297682683639     0.420853077547     1.007825032230
         H           -2.063454400022     0.694874683639    -1.203100922453     1.007825032230
         H           -1.749519400022    -1.760154316361    -1.101146922453     1.007825032230
         H            1.438696599978    -0.596288316361     1.349004077547     1.007825032230
         H            1.981844599978     1.081514683639     1.053621077547     1.007825032230
         H           -1.227382400022     2.864565683639     0.570656077547     1.007825032230
         H           -0.695980400022    -2.511229316361     0.836426077547     1.007825032230
         H            3.572155599978    -0.528108316361     0.398003077547     1.007825032230

  Basis Set: AUG-CC-PVTZ
    Blend: AUG-CC-PVTZ
  Basis Set: (AUG-CC-PVTZ AUX)
    Blend: AUG-CC-PVTZ-JKFIT
	 Reference Energy          =    -494.7817765593626973 [Eh]
	 Singles Energy            =      -0.0000000000000000 [Eh]
	 Same-Spin Energy          =      -0.4827827140445834 [Eh]
	 Opposite-Spin Energy      =      -1.5132246527937583 [Eh]
	 Correlation Energy        =      -1.9960073668383418 [Eh]
	 Total Energy              =    -496.7777839262010389 [Eh]

	 ================> DF-SCS-MP2 Energies <==================
	-----------------------------------------------------------
	 SCS Same-Spin Scale       =       0.3333333333333333 [-]
	 SCS Opposite-Spin Scale   =       1.2000000000000000 [-]
	 SCS Same-Spin Energy      =      -0.1609275713481945 [Eh]
	 SCS Opposite-Spin Energy  =      -1.8158695833525098 [Eh]
	 SCS Correlation Energy    =      -1.9767971547007044 [Eh]
	 SCS Total Energy          =    -496.7585737140634023 [Eh]
	-----------------------------------------------------------

  Dipole Moment: [D]
     X:    -1.0090      Y:     0.1695      Z:     2.2644     Total:     2.4848

*** Psi4 exiting successfully. Buy a developer a beer!
