                               Psi4 1.3.2 release

  ==> Input File <==

--------------------------------------------------------------------------
#psi4
#
memory 32 gb

molecule  {
0 1
  O       -0.0768340     1.0301030     0.6945190
  O       -0.0778703    -2.4464780    -0.0058319
  O       -1.8013270     1.3609940    -0.8558510
  O        2.7706710     0.8423760     0.1830720
  C       -0.3978190    -1.0935740    -0.3143580
  C        0.6336520    -0.1707830     0.3242940
  C       -1.6840130    -0.6458300     0.3680790
  C       -1.4616990     0.8497080     0.4211840
  C        1.7909010     0.1493410    -0.5832570
  H       -0.4628000    -0.8966240    -1.3943000
  H        1.0128680    -0.6537370     1.2378340
  H       -2.6003960    -0.9046920    -0.1672120
  H       -1.7107100    -1.0642920     1.3790340
  H       -2.0056690     1.3805330     1.2112860
  H        1.4142140     0.7608160    -1.4169540
  H        2.1823060    -0.7975400    -0.9866360
  H       -0.6472830    -3.0203740    -0.5025550
  H       -1.5565300     2.3068120    -0.8531920
  H        3.4888480     1.0945290    -0.4213450
units angstrom
no_reorient  #important for SAPT in psi4, default
symmetry c1  #important for SAPT in psi4, default
}

set PROPERTIES_ORIGIN ["COM"]
properties('MP2/aug-cc-pvtz', properties = ['dipole'])
--------------------------------------------------------------------------

    Molecular point group: c1
  Charge       = 0
  Multiplicity = 1
  Basis Set: AUG-CC-PVTZ
    Blend: AUG-CC-PVTZ
  Basis Set: (AUG-CC-PVTZ AUX)
    Blend: AUG-CC-PVTZ-JKFIT

    Orbital Energies [Eh]
    ---------------------

    Doubly Occupied:

       1A    -20.568626     2A    -20.568298     3A    -20.558844
       4A    -20.558529     5A    -11.335565     6A    -11.289523
       7A    -11.278026     8A    -11.276446     9A    -11.227446
      10A     -1.415076    11A     -1.374477    12A     -1.357825
      13A     -1.335125    14A     -1.063842    15A     -1.025274
      16A     -0.898682    17A     -0.820910    18A     -0.794470
      19A     -0.746737    20A     -0.702335    21A     -0.688470
      22A     -0.674747    23A     -0.643848    24A     -0.628298
      25A     -0.613096    26A     -0.572989    27A     -0.565573
      28A     -0.555378    29A     -0.536996    30A     -0.519392
      31A     -0.506975    32A     -0.486479    33A     -0.464114
      34A     -0.448469    35A     -0.438302    36A     -0.429667

  @DF-RHF Final Energy:  -494.78252169852760

   => Energetics <=

    Nuclear Repulsion Energy =            509.4330532582762885
    One-Electron Energy =               -1690.4934523918730065
    Two-Electron Energy =                 686.2778774350691720
    Total Energy =                       -494.7825216985276029
  Basis Set: (AUG-CC-PVTZ AUX)
    Blend: AUG-CC-PVTZ-RI
    Molecular point group: c1

    Geometry (in Angstrom), charge = 0, multiplicity = 1:

       Center              X                  Y                   Z               Mass
    ------------   -----------------  -----------------  -----------------  -----------------
         O           -0.067213367340     1.031254366082     0.687680647196    15.994914619570
         O           -0.068249667340    -2.445326633918    -0.012670252804    15.994914619570
         O           -1.791706367340     1.362145366082    -0.862689352804    15.994914619570
         O            2.780291632660     0.843527366082     0.176233647196    15.994914619570
         C           -0.388198367340    -1.092422633918    -0.321196352804    12.000000000000
         C            0.643272632660    -0.169631633918     0.317455647196    12.000000000000
         C           -1.674392367340    -0.644678633918     0.361240647196    12.000000000000
         C           -1.452078367340     0.850859366082     0.414345647196    12.000000000000
         C            1.800521632660     0.150492366082    -0.590095352804    12.000000000000
         H           -0.453179367340    -0.895472633918    -1.401138352804     1.007825032230
         H            1.022488632660    -0.652585633918     1.230995647196     1.007825032230
         H           -2.590775367340    -0.903540633918    -0.174050352804     1.007825032230
         H           -1.701089367340    -1.063140633918     1.372195647196     1.007825032230
         H           -1.996048367340     1.381684366082     1.204447647196     1.007825032230
         H            1.423834632660     0.761967366082    -1.423792352804     1.007825032230
         H            2.191926632660    -0.796388633918    -0.993474352804     1.007825032230
         H           -0.637662367340    -3.019222633918    -0.509393352804     1.007825032230
         H           -1.546909367340     2.307963366082    -0.860030352804     1.007825032230
         H            3.498468632660     1.095680366082    -0.428183352804     1.007825032230

  Basis Set: AUG-CC-PVTZ
    Blend: AUG-CC-PVTZ
  Basis Set: (AUG-CC-PVTZ AUX)
    Blend: AUG-CC-PVTZ-JKFIT
	 Reference Energy          =    -494.7825216985276029 [Eh]
	 Singles Energy            =      -0.0000000000000000 [Eh]
	 Same-Spin Energy          =      -0.4824789135646312 [Eh]
	 Opposite-Spin Energy      =      -1.5120132704577762 [Eh]
	 Correlation Energy        =      -1.9944921840224075 [Eh]
	 Total Energy              =    -496.7770138825500226 [Eh]

	 ================> DF-SCS-MP2 Energies <==================
	-----------------------------------------------------------
	 SCS Same-Spin Scale       =       0.3333333333333333 [-]
	 SCS Opposite-Spin Scale   =       1.2000000000000000 [-]
	 SCS Same-Spin Energy      =      -0.1608263045215437 [Eh]
	 SCS Opposite-Spin Energy  =      -1.8144159245493314 [Eh]
	 SCS Correlation Energy    =      -1.9752422290708751 [Eh]
	 SCS Total Energy          =    -496.7577639275984893 [Eh]
	-----------------------------------------------------------

  Dipole Moment: [D]
     X:    -0.9892      Y:    -0.4748      Z:    -2.0104     Total:     2.2903

*** Psi4 exiting successfully. Buy a developer a beer!
