                               Psi4 1.3.2 release

  ==> Input File <==

--------------------------------------------------------------------------
#psi4
#
memory 32 gb

molecule  {
0 1
  O       -0.0768340     1.0301030     0.6945190
  O        0.0027630    -2.4368280    -0.0631460
  O       -1.8013270     1.3609940    -0.8558510
  O        2.7706710     0.8423760     0.1830720
  C       -0.3898821    -1.0682261    -0.3155120
  C        0.6336520    -0.1707830     0.3242940
  C       -1.6840130    -0.6458300     0.3680790
  C       -1.4616990     0.8497080     0.4211840
  C        1.7909010     0.1493410    -0.5832570
  H       -0.4628000    -0.8966240    -1.3943000
  H        1.0128680    -0.6537370     1.2378340
  H       -2.6003960    -0.9046920    -0.1672120
  H       -1.7107100    -1.0642920     1.3790340
  H       -2.0056690     1.3805330     1.2112860
  H        1.4142140     0.7608160    -1.4169540
  H        2.1823060    -0.7975400    -0.9866360
  H       -0.6472830    -3.0203740    -0.5025550
  H       -1.5565300     2.3068120    -0.8531920
  H        3.4888480     1.0945290    -0.4213450
units angstrom
no_reorient  #important for SAPT in psi4, default
symmetry c1  #important for SAPT in psi4, default
}

set PROPERTIES_ORIGIN ["COM"]
properties('MP2/aug-cc-pvtz', properties = ['dipole'])
--------------------------------------------------------------------------

    Molecular point group: c1
  Charge       = 0
  Multiplicity = 1
  Basis Set: AUG-CC-PVTZ
    Blend: AUG-CC-PVTZ
  Basis Set: (AUG-CC-PVTZ AUX)
    Blend: AUG-CC-PVTZ-JKFIT

    Orbital Energies [Eh]
    ---------------------

    Doubly Occupied:

       1A    -20.569574     2A    -20.569332     3A    -20.558779
       4A    -20.558410     5A    -11.337371     6A    -11.288756
       7A    -11.277113     8A    -11.275760     9A    -11.230973
      10A     -1.416081    11A     -1.362185    12A     -1.356450
      13A     -1.335520    14A     -1.066011    15A     -1.027068
      16A     -0.898344    17A     -0.821782    18A     -0.795176
      19A     -0.743569    20A     -0.701709    21A     -0.679974
      22A     -0.675283    23A     -0.642638    24A     -0.629099
      25A     -0.614252    26A     -0.573687    27A     -0.565399
      28A     -0.551548    29A     -0.534686    30A     -0.520939
      31A     -0.508236    32A     -0.485323    33A     -0.466488
      34A     -0.448166    35A     -0.442078    36A     -0.430342

  @DF-RHF Final Energy:  -494.78065218679382

   => Energetics <=

    Nuclear Repulsion Energy =            509.5808030982611285
    One-Electron Energy =               -1690.8067092130154379
    Two-Electron Energy =                 686.4452539279604935
    Total Energy =                       -494.7806521867937590
  Basis Set: (AUG-CC-PVTZ AUX)
    Blend: AUG-CC-PVTZ-RI
    Molecular point group: c1

    Geometry (in Angstrom), charge = 0, multiplicity = 1:

       Center              X                  Y                   Z               Mass
    ------------   -----------------  -----------------  -----------------  -----------------
         O           -0.077544466500     1.027834010430     0.694622290134    15.994914619570
         O            0.002052533500    -2.439096989570    -0.063042709866    15.994914619570
         O           -1.802037466500     1.358725010430    -0.855747709866    15.994914619570
         O            2.769960533500     0.840107010430     0.183175290134    15.994914619570
         C           -0.390592566500    -1.070495089570    -0.315408709866    12.000000000000
         C            0.632941533500    -0.173051989570     0.324397290134    12.000000000000
         C           -1.684723466500    -0.648098989570     0.368182290134    12.000000000000
         C           -1.462409466500     0.847439010430     0.421287290134    12.000000000000
         C            1.790190533500     0.147072010430    -0.583153709866    12.000000000000
         H           -0.463510466500    -0.898892989570    -1.394196709866     1.007825032230
         H            1.012157533500    -0.656005989570     1.237937290134     1.007825032230
         H           -2.601106466500    -0.906960989570    -0.167108709866     1.007825032230
         H           -1.711420466500    -1.066560989570     1.379137290134     1.007825032230
         H           -2.006379466500     1.378264010430     1.211389290134     1.007825032230
         H            1.413503533500     0.758547010430    -1.416850709866     1.007825032230
         H            2.181595533500    -0.799808989570    -0.986532709866     1.007825032230
         H           -0.647993466500    -3.022642989570    -0.502451709866     1.007825032230
         H           -1.557240466500     2.304543010430    -0.853088709866     1.007825032230
         H            3.488137533500     1.092260010430    -0.421241709866     1.007825032230

  Basis Set: AUG-CC-PVTZ
    Blend: AUG-CC-PVTZ
  Basis Set: (AUG-CC-PVTZ AUX)
    Blend: AUG-CC-PVTZ-JKFIT
	 Reference Energy          =    -494.7806521867938159 [Eh]
	 Singles Energy            =      -0.0000000000000000 [Eh]
	 Same-Spin Energy          =      -0.4829724168415839 [Eh]
	 Opposite-Spin Energy      =      -1.5133383601563335 [Eh]
	 Correlation Energy        =      -1.9963107769979174 [Eh]
	 Total Energy              =    -496.7769629637917319 [Eh]

	 ================> DF-SCS-MP2 Energies <==================
	-----------------------------------------------------------
	 SCS Same-Spin Scale       =       0.3333333333333333 [-]
	 SCS Opposite-Spin Scale   =       1.2000000000000000 [-]
	 SCS Same-Spin Energy      =      -0.1609908056138613 [Eh]
	 SCS Opposite-Spin Energy  =      -1.8160060321876001 [Eh]
	 SCS Correlation Energy    =      -1.9769968378014615 [Eh]
	 SCS Total Energy          =    -496.7576490245952527 [Eh]
	-----------------------------------------------------------

  Dipole Moment: [D]
     X:    -1.1659      Y:    -0.3967      Z:    -1.8661     Total:     2.2358

*** Psi4 exiting successfully. Buy a developer a beer!
