                               Psi4 1.3.2 release

  ==> Input File <==

--------------------------------------------------------------------------
#psi4
#
memory 32 gb

molecule  {
0 1
  O       -0.0768340     1.0301030     0.6945190
  O        0.0027630    -2.4368280    -0.0631460
  O       -1.8013270     1.3609940    -0.8558510
  O        2.7706710     0.8423760     0.1830720
  C       -0.4122165    -1.1040519    -0.3341006
  C        0.6336520    -0.1707830     0.3242940
  C       -1.6840130    -0.6458300     0.3680790
  C       -1.4616990     0.8497080     0.4211840
  C        1.7909010     0.1493410    -0.5832570
  H       -0.4628000    -0.8966240    -1.3943000
  H        1.0128680    -0.6537370     1.2378340
  H       -2.6003960    -0.9046920    -0.1672120
  H       -1.7107100    -1.0642920     1.3790340
  H       -2.0056690     1.3805330     1.2112860
  H        1.4142140     0.7608160    -1.4169540
  H        2.1823060    -0.7975400    -0.9866360
  H       -0.6472830    -3.0203740    -0.5025550
  H       -1.5565300     2.3068120    -0.8531920
  H        3.4888480     1.0945290    -0.4213450
units angstrom
no_reorient  #important for SAPT in psi4, default
symmetry c1  #important for SAPT in psi4, default
}

set PROPERTIES_ORIGIN ["COM"]
properties('MP2/aug-cc-pvtz', properties = ['dipole'])
--------------------------------------------------------------------------

    Molecular point group: c1
  Charge       = 0
  Multiplicity = 1
  Basis Set: AUG-CC-PVTZ
    Blend: AUG-CC-PVTZ
  Basis Set: (AUG-CC-PVTZ AUX)
    Blend: AUG-CC-PVTZ-JKFIT

    Orbital Energies [Eh]
    ---------------------

    Doubly Occupied:

       1A    -20.573269     2A    -20.569168     3A    -20.557743
       4A    -20.557578     5A    -11.337098     6A    -11.288218
       7A    -11.277266     8A    -11.274675     9A    -11.230240
      10A     -1.414555    11A     -1.371225    12A     -1.356601
      13A     -1.334633    14A     -1.061384    15A     -1.023452
      16A     -0.896564    17A     -0.821093    18A     -0.794464
      19A     -0.743630    20A     -0.700639    21A     -0.682968
      22A     -0.674531    23A     -0.642186    24A     -0.628111
      25A     -0.617502    26A     -0.573382    27A     -0.565511
      28A     -0.557758    29A     -0.536673    30A     -0.519049
      31A     -0.504559    32A     -0.485271    33A     -0.459938
      34A     -0.447111    35A     -0.441448    36A     -0.430038

  @DF-RHF Final Energy:  -494.78094121057569

   => Energetics <=

    Nuclear Repulsion Energy =            509.0185344712406277
    One-Electron Energy =               -1689.6998893980853609
    Two-Electron Energy =                 685.9004137162689858
    Total Energy =                       -494.7809412105757474
  Basis Set: (AUG-CC-PVTZ AUX)
    Blend: AUG-CC-PVTZ-RI
    Molecular point group: c1

    Geometry (in Angstrom), charge = 0, multiplicity = 1:

       Center              X                  Y                   Z               Mass
    ------------   -----------------  -----------------  -----------------  -----------------
         O           -0.075545234956     1.031040905151     0.696286221804    15.994914619570
         O            0.004051765044    -2.435890094849    -0.061378778196    15.994914619570
         O           -1.800038234956     1.361931905151    -0.854083778196    15.994914619570
         O            2.771959765044     0.843313905151     0.184839221804    15.994914619570
         C           -0.410927734956    -1.103113994849    -0.332333378196    12.000000000000
         C            0.634940765044    -0.169845094849     0.326061221804    12.000000000000
         C           -1.682724234956    -0.644892094849     0.369846221804    12.000000000000
         C           -1.460410234956     0.850645905151     0.422951221804    12.000000000000
         C            1.792189765044     0.150278905151    -0.581489778196    12.000000000000
         H           -0.461511234956    -0.895686094849    -1.392532778196     1.007825032230
         H            1.014156765044    -0.652799094849     1.239601221804     1.007825032230
         H           -2.599107234956    -0.903754094849    -0.165444778196     1.007825032230
         H           -1.709421234956    -1.063354094849     1.380801221804     1.007825032230
         H           -2.004380234956     1.381470905151     1.213053221804     1.007825032230
         H            1.415502765044     0.761753905151    -1.415186778196     1.007825032230
         H            2.183594765044    -0.796602094849    -0.984868778196     1.007825032230
         H           -0.645994234956    -3.019436094849    -0.500787778196     1.007825032230
         H           -1.555241234956     2.307749905151    -0.851424778196     1.007825032230
         H            3.490136765044     1.095466905151    -0.419577778196     1.007825032230

  Basis Set: AUG-CC-PVTZ
    Blend: AUG-CC-PVTZ
  Basis Set: (AUG-CC-PVTZ AUX)
    Blend: AUG-CC-PVTZ-JKFIT
	 Reference Energy          =    -494.7809412105756905 [Eh]
	 Singles Energy            =      -0.0000000000000000 [Eh]
	 Same-Spin Energy          =      -0.4828216574010318 [Eh]
	 Opposite-Spin Energy      =      -1.5130717529178885 [Eh]
	 Correlation Energy        =      -1.9958934103189203 [Eh]
	 Total Energy              =    -496.7768346208945900 [Eh]

	 ================> DF-SCS-MP2 Energies <==================
	-----------------------------------------------------------
	 SCS Same-Spin Scale       =       0.3333333333333333 [-]
	 SCS Opposite-Spin Scale   =       1.2000000000000000 [-]
	 SCS Same-Spin Energy      =      -0.1609405524670106 [Eh]
	 SCS Opposite-Spin Energy  =      -1.8156861035014662 [Eh]
	 SCS Correlation Energy    =      -1.9766266559684769 [Eh]
	 SCS Total Energy          =    -496.7575678665441501 [Eh]
	-----------------------------------------------------------

  Dipole Moment: [D]
     X:    -1.1700      Y:    -0.5065      Z:    -1.8806     Total:     2.2720

*** Psi4 exiting successfully. Buy a developer a beer!
