                               Psi4 1.4a3.dev225

  ==> Input File <==

--------------------------------------------------------------------------
#psi4
#
memory 32 gb

molecule  {
0 1
  O        0.0779330    -0.9269250    -0.8850860
  O       -0.5497830     2.4054250     0.0105510
  O       -1.2273040    -1.7124440     0.8968780
  O        2.8355650    -0.3742720    -0.2242840
  C       -0.6080970     1.0161320     0.3256370
  C        0.5731950     0.3283540    -0.3705440
  C       -1.8147930     0.2671960    -0.2390730
  C       -1.2550321    -1.0762083    -0.3902655
  C        1.7465980     0.1105970     0.5541480
  H       -0.5498730     0.8655980     1.4125560
  H        0.8905780     0.9380060    -1.2243810
  H       -2.6989340     0.2874680     0.4026800
  H       -2.0570860     0.6846600    -1.2212740
  H       -1.7431510    -1.7703690    -1.1193200
  H        1.4450650    -0.6065030     1.3308310
  H        1.9882130     1.0713000     1.0354480
  H       -1.2210140     2.8543510     0.5524830
  H       -0.6896120    -2.5214440     0.8182530
  H        3.5785240    -0.5383230     0.3798300
units angstrom
no_reorient  #important for SAPT in psi4, default
symmetry c1  #important for SAPT in psi4, default
}

set PROPERTIES_ORIGIN ["COM"]
properties('MP2/aug-cc-pvtz', properties = ['dipole'])
--------------------------------------------------------------------------

    Molecular point group: c1
  Charge       = 0
  Multiplicity = 1
  Basis Set: AUG-CC-PVTZ
    Blend: AUG-CC-PVTZ
  Basis Set: (AUG-CC-PVTZ AUX)
    Blend: AUG-CC-PVTZ-JKFIT

    Orbital Energies [Eh]
    ---------------------

    Doubly Occupied:

       1A    -20.572142     2A    -20.565974     3A    -20.559574
       4A    -20.558806     5A    -11.337987     6A    -11.291978
       7A    -11.277181     8A    -11.276290     9A    -11.230077
      10A     -1.413339    11A     -1.370211    12A     -1.357208
      13A     -1.330762    14A     -1.069140    15A     -1.028357
      16A     -0.898774    17A     -0.819469    18A     -0.795186
      19A     -0.741918    20A     -0.704195    21A     -0.681735
      22A     -0.675775    23A     -0.644216    24A     -0.625430
      25A     -0.613730    26A     -0.573198    27A     -0.563856
      28A     -0.557307    29A     -0.537139    30A     -0.520474
      31A     -0.510911    32A     -0.486364    33A     -0.464525
      34A     -0.449127    35A     -0.441427    36A     -0.428901

  @DF-RHF Final Energy:  -494.77807652836475

   => Energetics <=

    Nuclear Repulsion Energy =            511.3583192019592047
    One-Electron Energy =               -1694.3274271253169445
    Two-Electron Energy =                 688.1910313949930469
    Total Energy =                       -494.7780765283647497
  Basis Set: (AUG-CC-PVTZ AUX)
    Blend: AUG-CC-PVTZ-RI
    Molecular point group: c1

    Geometry (in Angstrom), charge = 0, multiplicity = 1:

       Center              X                  Y                   Z               Mass
    ------------   -----------------  -----------------  -----------------  -----------------
         O            0.071863351468    -0.921696856924    -0.868036872553    15.994914619570
         O           -0.555852648532     2.410653143076     0.027600127447    15.994914619570
         O           -1.233373648532    -1.707215856924     0.913927127447    15.994914619570
         O            2.829495351468    -0.369043856924    -0.207234872553    15.994914619570
         C           -0.614166648532     1.021360143076     0.342686127447    12.000000000000
         C            0.567125351468     0.333582143076    -0.353494872553    12.000000000000
         C           -1.820862648532     0.272424143076    -0.222023872553    12.000000000000
         C           -1.261101748532    -1.070980156924    -0.373216372553    12.000000000000
         C            1.740528351468     0.115825143076     0.571197127447    12.000000000000
         H           -0.555942648532     0.870826143076     1.429605127447     1.007825032230
         H            0.884508351468     0.943234143076    -1.207331872553     1.007825032230
         H           -2.705003648532     0.292696143076     0.419729127447     1.007825032230
         H           -2.063155648532     0.689888143076    -1.204224872553     1.007825032230
         H           -1.749220648532    -1.765140856924    -1.102270872553     1.007825032230
         H            1.438995351468    -0.601274856924     1.347880127447     1.007825032230
         H            1.982143351468     1.076528143076     1.052497127447     1.007825032230
         H           -1.227083648532     2.859579143076     0.569532127447     1.007825032230
         H           -0.695681648532    -2.516215856924     0.835302127447     1.007825032230
         H            3.572454351468    -0.533094856924     0.396879127447     1.007825032230

  Basis Set: AUG-CC-PVTZ
    Blend: AUG-CC-PVTZ
  Basis Set: (AUG-CC-PVTZ AUX)
    Blend: AUG-CC-PVTZ-JKFIT
	 Reference Energy          =    -494.7780765283647497 [Eh]
	 Singles Energy            =      -0.0000000000000000 [Eh]
	 Same-Spin Energy          =      -0.4833363015846234 [Eh]
	 Opposite-Spin Energy      =      -1.5141062436378039 [Eh]
	 Correlation Energy        =      -1.9974425452224274 [Eh]
	 Total Energy              =    -496.7755190735871906 [Eh]

	 ================> DF-SCS-MP2 Energies <==================
	-----------------------------------------------------------
	 SCS Same-Spin Scale       =       0.3333333333333333 [-]
	 SCS Opposite-Spin Scale   =       1.2000000000000000 [-]
	 SCS Same-Spin Energy      =      -0.1611121005282078 [Eh]
	 SCS Opposite-Spin Energy  =      -1.8169274923653647 [Eh]
	 SCS Correlation Energy    =      -1.9780395928935726 [Eh]
	 SCS Total Energy          =    -496.7561161212583443 [Eh]
	-----------------------------------------------------------

  Dipole Moment: [D]
     X:    -1.0725      Y:     0.3031      Z:     2.2381     Total:     2.5002

*** Psi4 exiting successfully. Buy a developer a beer!
