                               Psi4 1.3.2 release

  ==> Input File <==

--------------------------------------------------------------------------
#psi4
#
memory 32 gb

molecule  {
0 1
  O       -0.1030988     1.1766624     0.6902786
  O        0.0027630    -2.4368280    -0.0631460
  O       -1.8013270     1.3609940    -0.8558510
  O        2.7706710     0.8423760     0.1830720
  C       -0.3978190    -1.0935740    -0.3143580
  C        0.6336520    -0.1707830     0.3242940
  C       -1.6840130    -0.6458300     0.3680790
  C       -1.4616990     0.8497080     0.4211840
  C        1.7909010     0.1493410    -0.5832570
  H       -0.4628000    -0.8966240    -1.3943000
  H        1.0128680    -0.6537370     1.2378340
  H       -2.6003960    -0.9046920    -0.1672120
  H       -1.7107100    -1.0642920     1.3790340
  H       -2.0056690     1.3805330     1.2112860
  H        1.4142140     0.7608160    -1.4169540
  H        2.1823060    -0.7975400    -0.9866360
  H       -0.6472830    -3.0203740    -0.5025550
  H       -1.5565300     2.3068120    -0.8531920
  H        3.4888480     1.0945290    -0.4213450
units angstrom
no_reorient  #important for SAPT in psi4, default
symmetry c1  #important for SAPT in psi4, default
}

set PROPERTIES_ORIGIN ["COM"]
properties('MP2/aug-cc-pvtz', properties = ['dipole'])
--------------------------------------------------------------------------

    Molecular point group: c1
  Charge       = 0
  Multiplicity = 1
  Basis Set: AUG-CC-PVTZ
    Blend: AUG-CC-PVTZ
  Basis Set: (AUG-CC-PVTZ AUX)
    Blend: AUG-CC-PVTZ-JKFIT

    Orbital Energies [Eh]
    ---------------------

    Doubly Occupied:

       1A    -20.577406     2A    -20.561787     3A    -20.560708
       4A    -20.560227     5A    -11.331031     6A    -11.295475
       7A    -11.290586     8A    -11.280343     9A    -11.233278
      10A     -1.400811    11A     -1.374463    12A     -1.358332
      13A     -1.311548    14A     -1.073309    15A     -1.020993
      16A     -0.895111    17A     -0.814241    18A     -0.797672
      19A     -0.739258    20A     -0.699910    21A     -0.684672
      22A     -0.668895    23A     -0.641454    24A     -0.621946
      25A     -0.616857    26A     -0.569048    27A     -0.563046
      28A     -0.553209    29A     -0.539051    30A     -0.516096
      31A     -0.502149    32A     -0.483097    33A     -0.467351
      34A     -0.450128    35A     -0.438326    36A     -0.435884

  @DF-RHF Final Energy:  -494.76384432784721

   => Energetics <=

    Nuclear Repulsion Energy =            506.0818714700341161
    One-Electron Energy =               -1683.8360305311286993
    Two-Electron Energy =                 682.9903147332472599
    Total Energy =                       -494.7638443278472096
  Basis Set: (AUG-CC-PVTZ AUX)
    Blend: AUG-CC-PVTZ-RI
    Molecular point group: c1

    Geometry (in Angstrom), charge = 0, multiplicity = 1:

       Center              X                  Y                   Z               Mass
    ------------   -----------------  -----------------  -----------------  -----------------
         O           -0.099965061872     1.159175880126     0.690784528341    15.994914619570
         O            0.005896738128    -2.454314519874    -0.062640071659    15.994914619570
         O           -1.798193261872     1.343507480126    -0.855345071659    15.994914619570
         O            2.773804738128     0.824889480126     0.183577928341    15.994914619570
         C           -0.394685261872    -1.111060519874    -0.313852071659    12.000000000000
         C            0.636785738128    -0.188269519874     0.324799928341    12.000000000000
         C           -1.680879261872    -0.663316519874     0.368584928341    12.000000000000
         C           -1.458565261872     0.832221480126     0.421689928341    12.000000000000
         C            1.794034738128     0.131854480126    -0.582751071659    12.000000000000
         H           -0.459666261872    -0.914110519874    -1.393794071659     1.007825032230
         H            1.016001738128    -0.671223519874     1.238339928341     1.007825032230
         H           -2.597262261872    -0.922178519874    -0.166706071659     1.007825032230
         H           -1.707576261872    -1.081778519874     1.379539928341     1.007825032230
         H           -2.002535261872     1.363046480126     1.211791928341     1.007825032230
         H            1.417347738128     0.743329480126    -1.416448071659     1.007825032230
         H            2.185439738128    -0.815026519874    -0.986130071659     1.007825032230
         H           -0.644149261872    -3.037860519874    -0.502049071659     1.007825032230
         H           -1.553396261872     2.289325480126    -0.852686071659     1.007825032230
         H            3.491981738128     1.077042480126    -0.420839071659     1.007825032230

  Basis Set: AUG-CC-PVTZ
    Blend: AUG-CC-PVTZ
  Basis Set: (AUG-CC-PVTZ AUX)
    Blend: AUG-CC-PVTZ-JKFIT
	 Reference Energy          =    -494.7638443278472096 [Eh]
	 Singles Energy            =      -0.0000000000000000 [Eh]
	 Same-Spin Energy          =      -0.4838376546865482 [Eh]
	 Opposite-Spin Energy      =      -1.5171955404398356 [Eh]
	 Correlation Energy        =      -2.0010331951263840 [Eh]
	 Total Energy              =    -496.7648775229736202 [Eh]

	 ================> DF-SCS-MP2 Energies <==================
	-----------------------------------------------------------
	 SCS Same-Spin Scale       =       0.3333333333333333 [-]
	 SCS Opposite-Spin Scale   =       1.2000000000000000 [-]
	 SCS Same-Spin Energy      =      -0.1612792182288494 [Eh]
	 SCS Opposite-Spin Energy  =      -1.8206346485278027 [Eh]
	 SCS Correlation Energy    =      -1.9819138667566520 [Eh]
	 SCS Total Energy          =    -496.7457581946038658 [Eh]
	-----------------------------------------------------------

  Dipole Moment: [D]
     X:    -0.9195      Y:    -0.9468      Z:    -1.9024     Total:     2.3153

*** Psi4 exiting successfully. Buy a developer a beer!
