                               Psi4 1.3.2 release

  ==> Input File <==

--------------------------------------------------------------------------
#psi4
#
memory 32 gb

molecule  {
0 1
  O       -0.0768340     1.0301030     0.6945190
  O        0.0027630    -2.4368280    -0.0631460
  O       -1.8013270     1.3609940    -0.8558510
  O        2.7706710     0.8423760     0.1830720
  C       -0.3978190    -1.0935740    -0.3143580
  C        0.6336520    -0.1707830     0.3242940
  C       -1.6840130    -0.6458300     0.3680790
  C       -1.4616990     0.8497080     0.4211840
  C        1.7909010     0.1493410    -0.5832570
  H       -0.4628000    -0.8966240    -1.3943000
  H        1.0128680    -0.6537370     1.2378340
  H       -2.5872256    -0.8857420    -0.1975649
  H       -1.7107100    -1.0642920     1.3790340
  H       -2.0056690     1.3805330     1.2112860
  H        1.4142140     0.7608160    -1.4169540
  H        2.1823060    -0.7975400    -0.9866360
  H       -0.6472830    -3.0203740    -0.5025550
  H       -1.5565300     2.3068120    -0.8531920
  H        3.4888480     1.0945290    -0.4213450
units angstrom
no_reorient  #important for SAPT in psi4, default
symmetry c1  #important for SAPT in psi4, default
}

set PROPERTIES_ORIGIN ["COM"]
properties('MP2/aug-cc-pvtz', properties = ['dipole'])
--------------------------------------------------------------------------

    Molecular point group: c1
  Charge       = 0
  Multiplicity = 1
  Basis Set: AUG-CC-PVTZ
    Blend: AUG-CC-PVTZ
  Basis Set: (AUG-CC-PVTZ AUX)
    Blend: AUG-CC-PVTZ-JKFIT

    Orbital Energies [Eh]
    ---------------------

    Doubly Occupied:

       1A    -20.572280     2A    -20.569279     3A    -20.558107
       4A    -20.557879     5A    -11.336963     6A    -11.288538
       7A    -11.276786     8A    -11.275124     9A    -11.230300
      10A     -1.415191    11A     -1.369849    12A     -1.356854
      13A     -1.335091    14A     -1.063499    15A     -1.025216
      16A     -0.897386    17A     -0.820668    18A     -0.794313
      19A     -0.743958    20A     -0.701255    21A     -0.682680
      22A     -0.674391    23A     -0.642410    24A     -0.627887
      25A     -0.616878    26A     -0.573743    27A     -0.566187
      28A     -0.556382    29A     -0.537482    30A     -0.519703
      31A     -0.505318    32A     -0.484055    33A     -0.462720
      34A     -0.447434    35A     -0.441382    36A     -0.429520

  @DF-RHF Final Energy:  -494.78152377420901

   => Energetics <=

    Nuclear Repulsion Energy =            509.4069856345150811
    One-Electron Energy =               -1690.4636001761352873
    Two-Electron Energy =                 686.2750907674110294
    Total Energy =                       -494.7815237742090630
  Basis Set: (AUG-CC-PVTZ AUX)
    Blend: AUG-CC-PVTZ-RI
    Molecular point group: c1

    Geometry (in Angstrom), charge = 0, multiplicity = 1:

       Center              X                  Y                   Z               Mass
    ------------   -----------------  -----------------  -----------------  -----------------
         O           -0.076933019239     1.029960528128     0.694747179539    15.994914619570
         O            0.002663980761    -2.436970471872    -0.062917820461    15.994914619570
         O           -1.801426019239     1.360851528128    -0.855622820461    15.994914619570
         O            2.770571980761     0.842233528128     0.183300179539    15.994914619570
         C           -0.397918019239    -1.093716471872    -0.314129820461    12.000000000000
         C            0.633552980761    -0.170925471872     0.324522179539    12.000000000000
         C           -1.684112019239    -0.645972471872     0.368307179539    12.000000000000
         C           -1.461798019239     0.849565528128     0.421412179539    12.000000000000
         C            1.790801980761     0.149198528128    -0.583028820461    12.000000000000
         H           -0.462899019239    -0.896766471872    -1.394071820461     1.007825032230
         H            1.012768980761    -0.653879471872     1.238062179539     1.007825032230
         H           -2.587324619239    -0.885884471872    -0.197336720461     1.007825032230
         H           -1.710809019239    -1.064434471872     1.379262179539     1.007825032230
         H           -2.005768019239     1.380390528128     1.211514179539     1.007825032230
         H            1.414114980761     0.760673528128    -1.416725820461     1.007825032230
         H            2.182206980761    -0.797682471872    -0.986407820461     1.007825032230
         H           -0.647382019239    -3.020516471872    -0.502326820461     1.007825032230
         H           -1.556629019239     2.306669528128    -0.852963820461     1.007825032230
         H            3.488748980761     1.094386528128    -0.421116820461     1.007825032230

  Basis Set: AUG-CC-PVTZ
    Blend: AUG-CC-PVTZ
  Basis Set: (AUG-CC-PVTZ AUX)
    Blend: AUG-CC-PVTZ-JKFIT
	 Reference Energy          =    -494.7815237742090062 [Eh]
	 Singles Energy            =      -0.0000000000000000 [Eh]
	 Same-Spin Energy          =      -0.4829011670755644 [Eh]
	 Opposite-Spin Energy      =      -1.5130632408357501 [Eh]
	 Correlation Energy        =      -1.9959644079113144 [Eh]
	 Total Energy              =    -496.7774881821202939 [Eh]

	 ================> DF-SCS-MP2 Energies <==================
	-----------------------------------------------------------
	 SCS Same-Spin Scale       =       0.3333333333333333 [-]
	 SCS Opposite-Spin Scale   =       1.2000000000000000 [-]
	 SCS Same-Spin Energy      =      -0.1609670556918548 [Eh]
	 SCS Opposite-Spin Energy  =      -1.8156758890028999 [Eh]
	 SCS Correlation Energy    =      -1.9766429446947547 [Eh]
	 SCS Total Energy          =    -496.7581667189037375 [Eh]
	-----------------------------------------------------------

  Dipole Moment: [D]
     X:    -1.1584      Y:    -0.4756      Z:    -1.8703     Total:     2.2508

*** Psi4 exiting successfully. Buy a developer a beer!
