                               Psi4 1.3.2 release

  ==> Input File <==

--------------------------------------------------------------------------
#psi4
#
memory 32 gb

molecule  {
0 1
  O       -0.0801635     1.0547105     0.6940194
  O        0.0027630    -2.4368280    -0.0631460
  O       -1.8013270     1.3609940    -0.8558510
  O        2.7706710     0.8423760     0.1830720
  C       -0.3978190    -1.0935740    -0.3143580
  C        0.6336520    -0.1707830     0.3242940
  C       -1.6840130    -0.6458300     0.3680790
  C       -1.4616990     0.8497080     0.4211840
  C        1.7909010     0.1493410    -0.5832570
  H       -0.4628000    -0.8966240    -1.3943000
  H        1.0128680    -0.6537370     1.2378340
  H       -2.6003960    -0.9046920    -0.1672120
  H       -1.7107100    -1.0642920     1.3790340
  H       -2.0056690     1.3805330     1.2112860
  H        1.4142140     0.7608160    -1.4169540
  H        2.1823060    -0.7975400    -0.9866360
  H       -0.6472830    -3.0203740    -0.5025550
  H       -1.5565300     2.3068120    -0.8531920
  H        3.4888480     1.0945290    -0.4213450
units angstrom
no_reorient  #important for SAPT in psi4, default
symmetry c1  #important for SAPT in psi4, default
}

set PROPERTIES_ORIGIN ["COM"]
properties('MP2/aug-cc-pvtz', properties = ['dipole'])
--------------------------------------------------------------------------

    Molecular point group: c1
  Charge       = 0
  Multiplicity = 1
  Basis Set: AUG-CC-PVTZ
    Blend: AUG-CC-PVTZ
  Basis Set: (AUG-CC-PVTZ AUX)
    Blend: AUG-CC-PVTZ-JKFIT

    Orbital Energies [Eh]
    ---------------------

    Doubly Occupied:

       1A    -20.573155     2A    -20.567898     3A    -20.558954
       4A    -20.558318     5A    -11.336053     6A    -11.289953
       7A    -11.279160     8A    -11.276079     9A    -11.230816
      10A     -1.412139    11A     -1.370613    12A     -1.357015
      13A     -1.331285    14A     -1.064958    15A     -1.024319
      16A     -0.896816    17A     -0.819932    18A     -0.794885
      19A     -0.743005    20A     -0.700780    21A     -0.683089
      22A     -0.673557    23A     -0.641970    24A     -0.627261
      25A     -0.616886    26A     -0.571426    27A     -0.564835
      28A     -0.556980    29A     -0.536864    30A     -0.519127
      31A     -0.505541    32A     -0.483838    33A     -0.464110
      34A     -0.448049    35A     -0.441087    36A     -0.431363

  @DF-RHF Final Energy:  -494.78031935433648

   => Energetics <=

    Nuclear Repulsion Energy =            508.7881419001944323
    One-Electron Energy =               -1689.2326867414860772
    Two-Electron Energy =                 685.6642254869551607
    Total Energy =                       -494.7803193543364841
  Basis Set: (AUG-CC-PVTZ AUX)
    Blend: AUG-CC-PVTZ-RI
    Molecular point group: c1

    Geometry (in Angstrom), charge = 0, multiplicity = 1:

       Center              X                  Y                   Z               Mass
    ------------   -----------------  -----------------  -----------------  -----------------
         O           -0.079766252158     1.051774484797     0.694079000503    15.994914619570
         O            0.003160247842    -2.439764015203    -0.063086399497    15.994914619570
         O           -1.800929752158     1.358057984797    -0.855791399497    15.994914619570
         O            2.771068247842     0.839439984797     0.183131600503    15.994914619570
         C           -0.397421752158    -1.096510015203    -0.314298399497    12.000000000000
         C            0.634049247842    -0.173719015203     0.324353600503    12.000000000000
         C           -1.683615752158    -0.648766015203     0.368138600503    12.000000000000
         C           -1.461301752158     0.846771984797     0.421243600503    12.000000000000
         C            1.791298247842     0.146404984797    -0.583197399497    12.000000000000
         H           -0.462402752158    -0.899560015203    -1.394240399497     1.007825032230
         H            1.013265247842    -0.656673015203     1.237893600503     1.007825032230
         H           -2.599998752158    -0.907628015203    -0.167152399497     1.007825032230
         H           -1.710312752158    -1.067228015203     1.379093600503     1.007825032230
         H           -2.005271752158     1.377596984797     1.211345600503     1.007825032230
         H            1.414611247842     0.757879984797    -1.416894399497     1.007825032230
         H            2.182703247842    -0.800476015203    -0.986576399497     1.007825032230
         H           -0.646885752158    -3.023310015203    -0.502495399497     1.007825032230
         H           -1.556132752158     2.303875984797    -0.853132399497     1.007825032230
         H            3.489245247842     1.091592984797    -0.421285399497     1.007825032230

  Basis Set: AUG-CC-PVTZ
    Blend: AUG-CC-PVTZ
  Basis Set: (AUG-CC-PVTZ AUX)
    Blend: AUG-CC-PVTZ-JKFIT
	 Reference Energy          =    -494.7803193543364841 [Eh]
	 Singles Energy            =      -0.0000000000000000 [Eh]
	 Same-Spin Energy          =      -0.4829621611846745 [Eh]
	 Opposite-Spin Energy      =      -1.5135799407581967 [Eh]
	 Correlation Energy        =      -1.9965421019428713 [Eh]
	 Total Energy              =    -496.7768614562793346 [Eh]

	 ================> DF-SCS-MP2 Energies <==================
	-----------------------------------------------------------
	 SCS Same-Spin Scale       =       0.3333333333333333 [-]
	 SCS Opposite-Spin Scale   =       1.2000000000000000 [-]
	 SCS Same-Spin Energy      =      -0.1609873870615582 [Eh]
	 SCS Opposite-Spin Energy  =      -1.8162959289098359 [Eh]
	 SCS Correlation Energy    =      -1.9772833159713941 [Eh]
	 SCS Total Energy          =    -496.7576026703079037 [Eh]
	-----------------------------------------------------------

  Dipole Moment: [D]
     X:    -1.1199      Y:    -0.5640      Z:    -1.8694     Total:     2.2510

*** Psi4 exiting successfully. Buy a developer a beer!
