                               Psi4 1.3.2 release

  ==> Input File <==

--------------------------------------------------------------------------
#psi4
#
memory 32 gb

molecule  {
0 1
  O       -0.0768340     1.0301030     0.6945190
  O        0.0027630    -2.4368280    -0.0631460
  O       -1.8013270     1.3609940    -0.8558510
  O        2.7706710     0.8423760     0.1830720
  C       -0.3978190    -1.0935740    -0.3143580
  C        0.5545268    -0.1275640     0.3807781
  C       -1.6840130    -0.6458300     0.3680790
  C       -1.4616990     0.8497080     0.4211840
  C        1.7909010     0.1493410    -0.5832570
  H       -0.4628000    -0.8966240    -1.3943000
  H        1.0128680    -0.6537370     1.2378340
  H       -2.6003960    -0.9046920    -0.1672120
  H       -1.7107100    -1.0642920     1.3790340
  H       -2.0056690     1.3805330     1.2112860
  H        1.4142140     0.7608160    -1.4169540
  H        2.1823060    -0.7975400    -0.9866360
  H       -0.6472830    -3.0203740    -0.5025550
  H       -1.5565300     2.3068120    -0.8531920
  H        3.4888480     1.0945290    -0.4213450
units angstrom
no_reorient  #important for SAPT in psi4, default
symmetry c1  #important for SAPT in psi4, default
}

set PROPERTIES_ORIGIN ["COM"]
properties('MP2/aug-cc-pvtz', properties = ['dipole'])
--------------------------------------------------------------------------

    Molecular point group: c1
  Charge       = 0
  Multiplicity = 1
  Basis Set: AUG-CC-PVTZ
    Blend: AUG-CC-PVTZ
  Basis Set: (AUG-CC-PVTZ AUX)
    Blend: AUG-CC-PVTZ-JKFIT

    Orbital Energies [Eh]
    ---------------------

    Doubly Occupied:

       1A    -20.573595     2A    -20.572038     3A    -20.568075
       4A    -20.553989     5A    -11.342649     6A    -11.286889
       7A    -11.276561     8A    -11.272327     9A    -11.230924
      10A     -1.438185    11A     -1.368948    12A     -1.357364
      13A     -1.346539    14A     -1.066425    15A     -1.013626
      16A     -0.891748    17A     -0.828143    18A     -0.794386
      19A     -0.750081    20A     -0.706268    21A     -0.682235
      22A     -0.676407    23A     -0.641517    24A     -0.632347
      25A     -0.616707    26A     -0.586952    27A     -0.563932
      28A     -0.559030    29A     -0.535991    30A     -0.523825
      31A     -0.510242    32A     -0.492137    33A     -0.454506
      34A     -0.443456    35A     -0.440492    36A     -0.413442

  @DF-RHF Final Energy:  -494.77246855670955

   => Energetics <=

    Nuclear Repulsion Energy =            510.0817287864293803
    One-Electron Energy =               -1691.6844414616423364
    Two-Electron Energy =                 686.8302441185032876
    Total Energy =                       -494.7724685567095548
  Basis Set: (AUG-CC-PVTZ AUX)
    Blend: AUG-CC-PVTZ-RI
    Molecular point group: c1

    Geometry (in Angstrom), charge = 0, multiplicity = 1:

       Center              X                  Y                   Z               Mass
    ------------   -----------------  -----------------  -----------------  -----------------
         O           -0.069751228419     1.026234304736     0.689462898897    15.994914619570
         O            0.009845771581    -2.440696695264    -0.068202101103    15.994914619570
         O           -1.794244228419     1.357125304736    -0.860907101103    15.994914619570
         O            2.777753771581     0.838507304736     0.178015898897    15.994914619570
         C           -0.390736228419    -1.097442695264    -0.319414101103    12.000000000000
         C            0.561609571581    -0.131432695264     0.375721998897    12.000000000000
         C           -1.676930228419    -0.649698695264     0.363022898897    12.000000000000
         C           -1.454616228419     0.845839304736     0.416127898897    12.000000000000
         C            1.797983771581     0.145472304736    -0.588313101103    12.000000000000
         H           -0.455717228419    -0.900492695264    -1.399356101103     1.007825032230
         H            1.019950771581    -0.657605695264     1.232777898897     1.007825032230
         H           -2.593313228419    -0.908560695264    -0.172268101103     1.007825032230
         H           -1.703627228419    -1.068160695264     1.373977898897     1.007825032230
         H           -1.998586228419     1.376664304736     1.206229898897     1.007825032230
         H            1.421296771581     0.756947304736    -1.422010101103     1.007825032230
         H            2.189388771581    -0.801408695264    -0.991692101103     1.007825032230
         H           -0.640200228419    -3.024242695264    -0.507611101103     1.007825032230
         H           -1.549447228419     2.302943304736    -0.858248101103     1.007825032230
         H            3.495930771581     1.090660304736    -0.426401101103     1.007825032230

  Basis Set: AUG-CC-PVTZ
    Blend: AUG-CC-PVTZ
  Basis Set: (AUG-CC-PVTZ AUX)
    Blend: AUG-CC-PVTZ-JKFIT
	 Reference Energy          =    -494.7724685567095548 [Eh]
	 Singles Energy            =      -0.0000000000000000 [Eh]
	 Same-Spin Energy          =      -0.4829262817113354 [Eh]
	 Opposite-Spin Energy      =      -1.5124280579495784 [Eh]
	 Correlation Energy        =      -1.9953543396609139 [Eh]
	 Total Energy              =    -496.7678228963704896 [Eh]

	 ================> DF-SCS-MP2 Energies <==================
	-----------------------------------------------------------
	 SCS Same-Spin Scale       =       0.3333333333333333 [-]
	 SCS Opposite-Spin Scale   =       1.2000000000000000 [-]
	 SCS Same-Spin Energy      =      -0.1609754272371118 [Eh]
	 SCS Opposite-Spin Energy  =      -1.8149136695394938 [Eh]
	 SCS Correlation Energy    =      -1.9758890967766056 [Eh]
	 SCS Total Energy          =    -496.7483576534861527 [Eh]
	-----------------------------------------------------------

  Dipole Moment: [D]
     X:    -1.4376      Y:    -0.2858      Z:    -1.7509     Total:     2.2834

*** Psi4 exiting successfully. Buy a developer a beer!
