                               Psi4 1.3.2 release

  ==> Input File <==

--------------------------------------------------------------------------
#psi4
#
memory 32 gb

molecule  {
0 1
  O       -0.0677425     0.9311985     0.6956838
  O        0.0027630    -2.4368280    -0.0631460
  O       -1.8013270     1.3609940    -0.8558510
  O        2.7706710     0.8423760     0.1830720
  C       -0.3978190    -1.0935740    -0.3143580
  C        0.6336520    -0.1707830     0.3242940
  C       -1.6840130    -0.6458300     0.3680790
  C       -1.4616990     0.8497080     0.4211840
  C        1.7909010     0.1493410    -0.5832570
  H       -0.4628000    -0.8966240    -1.3943000
  H        1.0128680    -0.6537370     1.2378340
  H       -2.6003960    -0.9046920    -0.1672120
  H       -1.7107100    -1.0642920     1.3790340
  H       -2.0056690     1.3805330     1.2112860
  H        1.4142140     0.7608160    -1.4169540
  H        2.1823060    -0.7975400    -0.9866360
  H       -0.6472830    -3.0203740    -0.5025550
  H       -1.5565300     2.3068120    -0.8531920
  H        3.4888480     1.0945290    -0.4213450
units angstrom
no_reorient  #important for SAPT in psi4, default
symmetry c1  #important for SAPT in psi4, default
}

set PROPERTIES_ORIGIN ["COM"]
properties('MP2/aug-cc-pvtz', properties = ['dipole'])
--------------------------------------------------------------------------

    Molecular point group: c1
  Charge       = 0
  Multiplicity = 1
  Basis Set: AUG-CC-PVTZ
    Blend: AUG-CC-PVTZ
  Basis Set: (AUG-CC-PVTZ AUX)
    Blend: AUG-CC-PVTZ-JKFIT

    Orbital Energies [Eh]
    ---------------------

    Doubly Occupied:

       1A    -20.574224     2A    -20.568739     3A    -20.556503
       4A    -20.554927     5A    -11.342225     6A    -11.283982
       7A    -11.271864     8A    -11.268405     9A    -11.228463
      10A     -1.431343    11A     -1.367402    12A     -1.358216
      13A     -1.347112    14A     -1.057412    15A     -1.029305
      16A     -0.901041    17A     -0.826767    18A     -0.792237
      19A     -0.748038    20A     -0.704002    21A     -0.681076
      22A     -0.679152    23A     -0.645045    24A     -0.633819
      25A     -0.616692    26A     -0.583359    27A     -0.566089
      28A     -0.552912    29A     -0.533621    30A     -0.522910
      31A     -0.509194    32A     -0.488399    33A     -0.454914
      34A     -0.445823    35A     -0.440381    36A     -0.421137

  @DF-RHF Final Energy:  -494.77878975054944

   => Energetics <=

    Nuclear Repulsion Energy =            511.6872150989212855
    One-Electron Energy =               -1694.9585529395528738
    Two-Electron Energy =                 688.4925480900820958
    Total Energy =                       -494.7787897505494357
  Basis Set: (AUG-CC-PVTZ AUX)
    Blend: AUG-CC-PVTZ-RI
    Molecular point group: c1

    Geometry (in Angstrom), charge = 0, multiplicity = 1:

       Center              X                  Y                   Z               Mass
    ------------   -----------------  -----------------  -----------------  -----------------
         O           -0.068827244801     0.942999130416     0.695544815159    15.994914619570
         O            0.001678255199    -2.425027369584    -0.063284984841    15.994914619570
         O           -1.802411744801     1.372794630416    -0.855989984841    15.994914619570
         O            2.769586255199     0.854176630416     0.182933015159    15.994914619570
         C           -0.398903744801    -1.081773369584    -0.314496984841    12.000000000000
         C            0.632567255199    -0.158982369584     0.324155015159    12.000000000000
         C           -1.685097744801    -0.634029369584     0.367940015159    12.000000000000
         C           -1.462783744801     0.861508630416     0.421045015159    12.000000000000
         C            1.789816255199     0.161141630416    -0.583395984841    12.000000000000
         H           -0.463884744801    -0.884823369584    -1.394438984841     1.007825032230
         H            1.011783255199    -0.641936369584     1.237695015159     1.007825032230
         H           -2.601480744801    -0.892891369584    -0.167350984841     1.007825032230
         H           -1.711794744801    -1.052491369584     1.378895015159     1.007825032230
         H           -2.006753744801     1.392333630416     1.211147015159     1.007825032230
         H            1.413129255199     0.772616630416    -1.417092984841     1.007825032230
         H            2.181221255199    -0.785739369584    -0.986774984841     1.007825032230
         H           -0.648367744801    -3.008573369584    -0.502693984841     1.007825032230
         H           -1.557614744801     2.318612630416    -0.853330984841     1.007825032230
         H            3.487763255199     1.106329630416    -0.421483984841     1.007825032230

  Basis Set: AUG-CC-PVTZ
    Blend: AUG-CC-PVTZ
  Basis Set: (AUG-CC-PVTZ AUX)
    Blend: AUG-CC-PVTZ-JKFIT
	 Reference Energy          =    -494.7787897505494357 [Eh]
	 Singles Energy            =      -0.0000000000000000 [Eh]
	 Same-Spin Energy          =      -0.4827334984397953 [Eh]
	 Opposite-Spin Energy      =      -1.5111880166266078 [Eh]
	 Correlation Energy        =      -1.9939215150664031 [Eh]
	 Total Energy              =    -496.7727112656158397 [Eh]

	 ================> DF-SCS-MP2 Energies <==================
	-----------------------------------------------------------
	 SCS Same-Spin Scale       =       0.3333333333333333 [-]
	 SCS Opposite-Spin Scale   =       1.2000000000000000 [-]
	 SCS Same-Spin Energy      =      -0.1609111661465984 [Eh]
	 SCS Opposite-Spin Energy  =      -1.8134256199519294 [Eh]
	 SCS Correlation Energy    =      -1.9743367860985279 [Eh]
	 SCS Total Energy          =    -496.7531265366479829 [Eh]
	-----------------------------------------------------------

  Dipole Moment: [D]
     X:    -1.3357      Y:    -0.1453      Z:    -1.8307     Total:     2.2708

*** Psi4 exiting successfully. Buy a developer a beer!
