                               Psi4 1.3.2 release

  ==> Input File <==

--------------------------------------------------------------------------
#psi4
#
memory 32 gb

molecule  {
0 1
  O       -0.0768340     1.0301030     0.6945190
  O        0.1199334    -2.4101061    -0.1513230
  O       -1.8013270     1.3609940    -0.8558510
  O        2.7706710     0.8423760     0.1830720
  C       -0.3978190    -1.0935740    -0.3143580
  C        0.6336520    -0.1707830     0.3242940
  C       -1.6840130    -0.6458300     0.3680790
  C       -1.4616990     0.8497080     0.4211840
  C        1.7909010     0.1493410    -0.5832570
  H       -0.4628000    -0.8966240    -1.3943000
  H        1.0128680    -0.6537370     1.2378340
  H       -2.6003960    -0.9046920    -0.1672120
  H       -1.7107100    -1.0642920     1.3790340
  H       -2.0056690     1.3805330     1.2112860
  H        1.4142140     0.7608160    -1.4169540
  H        2.1823060    -0.7975400    -0.9866360
  H       -0.6472830    -3.0203740    -0.5025550
  H       -1.5565300     2.3068120    -0.8531920
  H        3.4888480     1.0945290    -0.4213450
units angstrom
no_reorient  #important for SAPT in psi4, default
symmetry c1  #important for SAPT in psi4, default
}

set PROPERTIES_ORIGIN ["COM"]
properties('MP2/aug-cc-pvtz', properties = ['dipole'])
--------------------------------------------------------------------------

    Molecular point group: c1
  Charge       = 0
  Multiplicity = 1
  Basis Set: AUG-CC-PVTZ
    Blend: AUG-CC-PVTZ
  Basis Set: (AUG-CC-PVTZ AUX)
    Blend: AUG-CC-PVTZ-JKFIT

    Orbital Energies [Eh]
    ---------------------

    Doubly Occupied:

       1A    -20.579818     2A    -20.569658     3A    -20.557626
       4A    -20.556574     5A    -11.339208     6A    -11.287465
       7A    -11.275141     8A    -11.273276     9A    -11.234619
      10A     -1.415177    11A     -1.362244    12A     -1.354838
      13A     -1.334567    14A     -1.062240    15A     -1.024600
      16A     -0.895375    17A     -0.820484    18A     -0.794022
      19A     -0.740521    20A     -0.699810    21A     -0.676595
      22A     -0.667902    23A     -0.638979    24A     -0.628591
      25A     -0.621225    26A     -0.573854    27A     -0.565304
      28A     -0.557135    29A     -0.535537    30A     -0.520202
      31A     -0.505263    32A     -0.482275    33A     -0.459677
      34A     -0.446048    35A     -0.443849    36A     -0.428848

  @DF-RHF Final Energy:  -494.77066572597550

   => Energetics <=

    Nuclear Repulsion Energy =            509.3442802410863806
    One-Electron Energy =               -1690.3728046681542310
    Two-Electron Energy =                 686.2578587010923457
    Total Energy =                       -494.7706657259755048
  Basis Set: (AUG-CC-PVTZ AUX)
    Blend: AUG-CC-PVTZ-RI
    Molecular point group: c1

    Geometry (in Angstrom), charge = 0, multiplicity = 1:

       Center              X                  Y                   Z               Mass
    ------------   -----------------  -----------------  -----------------  -----------------
         O           -0.090814013667     1.026914708390     0.705039695560    15.994914619570
         O            0.105953386333    -2.413294391610    -0.140802304440    15.994914619570
         O           -1.815307013667     1.357805708390    -0.845330304440    15.994914619570
         O            2.756690986333     0.839187708390     0.193592695560    15.994914619570
         C           -0.411799013667    -1.096762291610    -0.303837304440    12.000000000000
         C            0.619671986333    -0.173971291610     0.334814695560    12.000000000000
         C           -1.697993013667    -0.649018291610     0.378599695560    12.000000000000
         C           -1.475679013667     0.846519708390     0.431704695560    12.000000000000
         C            1.776920986333     0.146152708390    -0.572736304440    12.000000000000
         H           -0.476780013667    -0.899812291610    -1.383779304440     1.007825032230
         H            0.998887986333    -0.656925291610     1.248354695560     1.007825032230
         H           -2.614376013667    -0.907880291610    -0.156691304440     1.007825032230
         H           -1.724690013667    -1.067480291610     1.389554695560     1.007825032230
         H           -2.019649013667     1.377344708390     1.221806695560     1.007825032230
         H            1.400233986333     0.757627708390    -1.406433304440     1.007825032230
         H            2.168325986333    -0.800728291610    -0.976115304440     1.007825032230
         H           -0.661263013667    -3.023562291610    -0.492034304440     1.007825032230
         H           -1.570510013667     2.303623708391    -0.842671304440     1.007825032230
         H            3.474867986333     1.091340708390    -0.410824304440     1.007825032230

  Basis Set: AUG-CC-PVTZ
    Blend: AUG-CC-PVTZ
  Basis Set: (AUG-CC-PVTZ AUX)
    Blend: AUG-CC-PVTZ-JKFIT
	 Reference Energy          =    -494.7706657259755048 [Eh]
	 Singles Energy            =      -0.0000000000000000 [Eh]
	 Same-Spin Energy          =      -0.4839006765680491 [Eh]
	 Opposite-Spin Energy      =      -1.5156142927853065 [Eh]
	 Correlation Energy        =      -1.9995149693533556 [Eh]
	 Total Energy              =    -496.7701806953288610 [Eh]

	 ================> DF-SCS-MP2 Energies <==================
	-----------------------------------------------------------
	 SCS Same-Spin Scale       =       0.3333333333333333 [-]
	 SCS Opposite-Spin Scale   =       1.2000000000000000 [-]
	 SCS Same-Spin Energy      =      -0.1613002255226830 [Eh]
	 SCS Opposite-Spin Energy  =      -1.8187371513423676 [Eh]
	 SCS Correlation Energy    =      -1.9800373768650505 [Eh]
	 SCS Total Energy          =    -496.7507031028405322 [Eh]
	-----------------------------------------------------------

  Dipole Moment: [D]
     X:    -1.3861      Y:    -0.5254      Z:    -1.6415     Total:     2.2118

*** Psi4 exiting successfully. Buy a developer a beer!
