                               Psi4 1.3.2 release

  ==> Input File <==

--------------------------------------------------------------------------
#psi4
#
memory 32 gb

molecule  {
0 1
  O       -0.0768340     1.0301030     0.6945190
  O        0.0027630    -2.4368280    -0.0631460
  O       -1.8013270     1.3609940    -0.8558510
  O        2.7706710     0.8423760     0.1830720
  C       -0.3702037    -1.0722123    -0.2742552
  C        0.6336520    -0.1707830     0.3242940
  C       -1.6840130    -0.6458300     0.3680790
  C       -1.4616990     0.8497080     0.4211840
  C        1.7909010     0.1493410    -0.5832570
  H       -0.4628000    -0.8966240    -1.3943000
  H        1.0128680    -0.6537370     1.2378340
  H       -2.6003960    -0.9046920    -0.1672120
  H       -1.7107100    -1.0642920     1.3790340
  H       -2.0056690     1.3805330     1.2112860
  H        1.4142140     0.7608160    -1.4169540
  H        2.1823060    -0.7975400    -0.9866360
  H       -0.6472830    -3.0203740    -0.5025550
  H       -1.5565300     2.3068120    -0.8531920
  H        3.4888480     1.0945290    -0.4213450
units angstrom
no_reorient  #important for SAPT in psi4, default
symmetry c1  #important for SAPT in psi4, default
}

set PROPERTIES_ORIGIN ["COM"]
properties('MP2/aug-cc-pvtz', properties = ['dipole'])
--------------------------------------------------------------------------

    Molecular point group: c1
  Charge       = 0
  Multiplicity = 1
  Basis Set: AUG-CC-PVTZ
    Blend: AUG-CC-PVTZ
  Basis Set: (AUG-CC-PVTZ AUX)
    Blend: AUG-CC-PVTZ-JKFIT

    Orbital Energies [Eh]
    ---------------------

    Doubly Occupied:

       1A    -20.570318     2A    -20.569111     3A    -20.559561
       4A    -20.558704     5A    -11.337450     6A    -11.290442
       7A    -11.276675     8A    -11.275924     9A    -11.230900
      10A     -1.416682    11A     -1.366712    12A     -1.357414
      13A     -1.336039    14A     -1.068183    15A     -1.028737
      16A     -0.899681    17A     -0.822682    18A     -0.793324
      19A     -0.744548    20A     -0.702908    21A     -0.682416
      22A     -0.673961    23A     -0.642401    24A     -0.629592
      25A     -0.615570    26A     -0.574039    27A     -0.565469
      28A     -0.552974    29A     -0.537136    30A     -0.521069
      31A     -0.509336    32A     -0.482922    33A     -0.467922
      34A     -0.448209    35A     -0.441015    36A     -0.426796

  @DF-RHF Final Energy:  -494.77834631274891

   => Energetics <=

    Nuclear Repulsion Energy =            510.0165902999926857
    One-Electron Energy =               -1691.6362291048069437
    Two-Electron Energy =                 686.8412924920653495
    Total Energy =                       -494.7783463127489085
  Basis Set: (AUG-CC-PVTZ AUX)
    Blend: AUG-CC-PVTZ-RI
    Molecular point group: c1

    Geometry (in Angstrom), charge = 0, multiplicity = 1:

       Center              X                  Y                   Z               Mass
    ------------   -----------------  -----------------  -----------------  -----------------
         O           -0.079305950042     1.028190829363     0.690929247296    15.994914619570
         O            0.000291049958    -2.438740170637    -0.066735752704    15.994914619570
         O           -1.803798950042     1.359081829363    -0.859440752704    15.994914619570
         O            2.768199049958     0.840463829363     0.179482247296    15.994914619570
         C           -0.372675650042    -1.074124470637    -0.277844952704    12.000000000000
         C            0.631180049958    -0.172695170637     0.320704247296    12.000000000000
         C           -1.686484950042    -0.647742170637     0.364489247296    12.000000000000
         C           -1.464170950042     0.847795829363     0.417594247296    12.000000000000
         C            1.788429049958     0.147428829363    -0.586846752704    12.000000000000
         H           -0.465271950042    -0.898536170637    -1.397889752704     1.007825032230
         H            1.010396049958    -0.655649170637     1.234244247296     1.007825032230
         H           -2.602867950042    -0.906604170637    -0.170801752704     1.007825032230
         H           -1.713181950042    -1.066204170637     1.375444247296     1.007825032230
         H           -2.008140950042     1.378620829363     1.207696247296     1.007825032230
         H            1.411742049958     0.758903829363    -1.420543752704     1.007825032230
         H            2.179834049958    -0.799452170637    -0.990225752704     1.007825032230
         H           -0.649754950042    -3.022286170637    -0.506144752704     1.007825032230
         H           -1.559001950042     2.304899829363    -0.856781752704     1.007825032230
         H            3.486376049958     1.092616829363    -0.424934752704     1.007825032230

  Basis Set: AUG-CC-PVTZ
    Blend: AUG-CC-PVTZ
  Basis Set: (AUG-CC-PVTZ AUX)
    Blend: AUG-CC-PVTZ-JKFIT
	 Reference Energy          =    -494.7783463127489085 [Eh]
	 Singles Energy            =      -0.0000000000000000 [Eh]
	 Same-Spin Energy          =      -0.4831227098333515 [Eh]
	 Opposite-Spin Energy      =      -1.5132124363471733 [Eh]
	 Correlation Energy        =      -1.9963351461805248 [Eh]
	 Total Energy              =    -496.7746814589294218 [Eh]

	 ================> DF-SCS-MP2 Energies <==================
	-----------------------------------------------------------
	 SCS Same-Spin Scale       =       0.3333333333333333 [-]
	 SCS Opposite-Spin Scale   =       1.2000000000000000 [-]
	 SCS Same-Spin Energy      =      -0.1610409032777838 [Eh]
	 SCS Opposite-Spin Energy  =      -1.8158549236166079 [Eh]
	 SCS Correlation Energy    =      -1.9768958268943917 [Eh]
	 SCS Total Energy          =    -496.7552421396433147 [Eh]
	-----------------------------------------------------------

  Dipole Moment: [D]
     X:    -1.1460      Y:    -0.4308      Z:    -1.8192     Total:     2.1928

*** Psi4 exiting successfully. Buy a developer a beer!
