                               Psi4 1.3.2 release

  ==> Input File <==

--------------------------------------------------------------------------
#psi4
#
memory 32 gb

molecule  {
0 1
  O       -0.0768340     1.0301030     0.6945190
  O        0.0027630    -2.4368280    -0.0631460
  O       -1.8013270     1.3609940    -0.8558510
  O        2.7706710     0.8423760     0.1830720
  C       -0.3978190    -1.0935740    -0.3143580
  C        0.6336520    -0.1707830     0.3242940
  C       -1.6840130    -0.6458300     0.3680790
  C       -1.4840551     0.8532807     0.4075953
  C        1.7909010     0.1493410    -0.5832570
  H       -0.4628000    -0.8966240    -1.3943000
  H        1.0128680    -0.6537370     1.2378340
  H       -2.6003960    -0.9046920    -0.1672120
  H       -1.7107100    -1.0642920     1.3790340
  H       -2.0056690     1.3805330     1.2112860
  H        1.4142140     0.7608160    -1.4169540
  H        2.1823060    -0.7975400    -0.9866360
  H       -0.6472830    -3.0203740    -0.5025550
  H       -1.5565300     2.3068120    -0.8531920
  H        3.4888480     1.0945290    -0.4213450
units angstrom
no_reorient  #important for SAPT in psi4, default
symmetry c1  #important for SAPT in psi4, default
}

set PROPERTIES_ORIGIN ["COM"]
properties('MP2/aug-cc-pvtz', properties = ['dipole'])
--------------------------------------------------------------------------

    Molecular point group: c1
  Charge       = 0
  Multiplicity = 1
  Basis Set: AUG-CC-PVTZ
    Blend: AUG-CC-PVTZ
  Basis Set: (AUG-CC-PVTZ AUX)
    Blend: AUG-CC-PVTZ-JKFIT

    Orbital Energies [Eh]
    ---------------------

    Doubly Occupied:

       1A    -20.573229     2A    -20.571987     3A    -20.556962
       4A    -20.554355     5A    -11.337752     6A    -11.288308
       7A    -11.275003     8A    -11.273967     9A    -11.230615
      10A     -1.414633    11A     -1.370262    12A     -1.356433
      13A     -1.334101    14A     -1.061969    15A     -1.023588
      16A     -0.897467    17A     -0.820470    18A     -0.793540
      19A     -0.746360    20A     -0.699856    21A     -0.684385
      22A     -0.673143    23A     -0.641243    24A     -0.627422
      25A     -0.619265    26A     -0.573230    27A     -0.564190
      28A     -0.555820    29A     -0.536954    30A     -0.519437
      31A     -0.504372    32A     -0.484875    33A     -0.460260
      34A     -0.446631    35A     -0.441994    36A     -0.427692

  @DF-RHF Final Energy:  -494.78085593893542

   => Energetics <=

    Nuclear Repulsion Energy =            509.1184335283125506
    One-Electron Energy =               -1689.9150344272270559
    Two-Electron Energy =                 686.0157449599790880
    Total Energy =                       -494.7808559389353604
  Basis Set: (AUG-CC-PVTZ AUX)
    Blend: AUG-CC-PVTZ-RI
    Molecular point group: c1

    Geometry (in Angstrom), charge = 0, multiplicity = 1:

       Center              X                  Y                   Z               Mass
    ------------   -----------------  -----------------  -----------------  -----------------
         O           -0.074832832377     1.029783185994     0.695735364338    15.994914619570
         O            0.004764167623    -2.437147814006    -0.061929635662    15.994914619570
         O           -1.799325832377     1.360674185994    -0.854634635662    15.994914619570
         O            2.772672167623     0.842056185994     0.184288364338    15.994914619570
         C           -0.395817832377    -1.093893814006    -0.313141635662    12.000000000000
         C            0.635653167623    -0.171102814006     0.325510364338    12.000000000000
         C           -1.682011832377    -0.646149814006     0.369295364338    12.000000000000
         C           -1.482053932377     0.852960885994     0.408811664338    12.000000000000
         C            1.792902167623     0.149021185994    -0.582040635662    12.000000000000
         H           -0.460798832377    -0.896943814006    -1.393083635662     1.007825032230
         H            1.014869167623    -0.654056814006     1.239050364338     1.007825032230
         H           -2.598394832377    -0.905011814006    -0.165995635662     1.007825032230
         H           -1.708708832377    -1.064611814006     1.380250364338     1.007825032230
         H           -2.003667832377     1.380213185994     1.212502364338     1.007825032230
         H            1.416215167623     0.760496185994    -1.415737635662     1.007825032230
         H            2.184307167623    -0.797859814006    -0.985419635662     1.007825032230
         H           -0.645281832377    -3.020693814006    -0.501338635662     1.007825032230
         H           -1.554528832377     2.306492185994    -0.851975635662     1.007825032230
         H            3.490849167623     1.094209185994    -0.420128635662     1.007825032230

  Basis Set: AUG-CC-PVTZ
    Blend: AUG-CC-PVTZ
  Basis Set: (AUG-CC-PVTZ AUX)
    Blend: AUG-CC-PVTZ-JKFIT
	 Reference Energy          =    -494.7808559389354173 [Eh]
	 Singles Energy            =      -0.0000000000000000 [Eh]
	 Same-Spin Energy          =      -0.4829304692081507 [Eh]
	 Opposite-Spin Energy      =      -1.5131199858024240 [Eh]
	 Correlation Energy        =      -1.9960504550105749 [Eh]
	 Total Energy              =    -496.7769063939459784 [Eh]

	 ================> DF-SCS-MP2 Energies <==================
	-----------------------------------------------------------
	 SCS Same-Spin Scale       =       0.3333333333333333 [-]
	 SCS Opposite-Spin Scale   =       1.2000000000000000 [-]
	 SCS Same-Spin Energy      =      -0.1609768230693836 [Eh]
	 SCS Opposite-Spin Energy  =      -1.8157439829629087 [Eh]
	 SCS Correlation Energy    =      -1.9767208060322923 [Eh]
	 SCS Total Energy          =    -496.7575767449677073 [Eh]
	-----------------------------------------------------------

  Dipole Moment: [D]
     X:    -1.2983      Y:    -0.4262      Z:    -1.9392     Total:     2.3723

*** Psi4 exiting successfully. Buy a developer a beer!
