                               Psi4 1.3.2 release

  ==> Input File <==

--------------------------------------------------------------------------
#psi4
#
memory 32 gb

molecule  {
0 1
  O       -0.0768340     1.0301030     0.6945190
  O        0.0027630    -2.4368280    -0.0631460
  O       -1.8013270     1.3609940    -0.8558510
  O        2.7706710     0.8423760     0.1830720
  C       -0.3978190    -1.0935740    -0.3143580
  C        0.6336520    -0.1707830     0.3242940
  C       -1.6840130    -0.6458300     0.3680790
  C       -1.4616990     0.8497080     0.4211840
  C        1.7909010     0.1493410    -0.5832570
  H       -0.4628000    -0.8966240    -1.3943000
  H        1.0128680    -0.6537370     1.2378340
  H       -2.5165077    -0.8809950    -0.1182099
  H       -1.7107100    -1.0642920     1.3790340
  H       -2.0056690     1.3805330     1.2112860
  H        1.4142140     0.7608160    -1.4169540
  H        2.1823060    -0.7975400    -0.9866360
  H       -0.6472830    -3.0203740    -0.5025550
  H       -1.5565300     2.3068120    -0.8531920
  H        3.4888480     1.0945290    -0.4213450
units angstrom
no_reorient  #important for SAPT in psi4, default
symmetry c1  #important for SAPT in psi4, default
}

set PROPERTIES_ORIGIN ["COM"]
properties('MP2/aug-cc-pvtz', properties = ['dipole'])
--------------------------------------------------------------------------

    Molecular point group: c1
  Charge       = 0
  Multiplicity = 1
  Basis Set: AUG-CC-PVTZ
    Blend: AUG-CC-PVTZ
  Basis Set: (AUG-CC-PVTZ AUX)
    Blend: AUG-CC-PVTZ-JKFIT

    Orbital Energies [Eh]
    ---------------------

    Doubly Occupied:

       1A    -20.572101     2A    -20.569249     3A    -20.557590
       4A    -20.557460     5A    -11.336436     6A    -11.288093
       7A    -11.276266     8A    -11.274749     9A    -11.218283
      10A     -1.414781    11A     -1.369674    12A     -1.356577
      13A     -1.334748    14A     -1.066675    15A     -1.026677
      16A     -0.897376    17A     -0.828616    18A     -0.794418
      19A     -0.743545    20A     -0.702713    21A     -0.683750
      22A     -0.676757    23A     -0.642423    24A     -0.632334
      25A     -0.617182    26A     -0.574881    27A     -0.568761
      28A     -0.555832    29A     -0.537512    30A     -0.520817
      31A     -0.508465    32A     -0.484362    33A     -0.462909
      34A     -0.447240    35A     -0.441020    36A     -0.429157

  @DF-RHF Final Energy:  -494.77577659332735

   => Energetics <=

    Nuclear Repulsion Energy =            509.9245401377199869
    One-Electron Energy =               -1691.4617741458437195
    Two-Electron Energy =                 686.7614574147963822
    Total Energy =                       -494.7757765933273504
  Basis Set: (AUG-CC-PVTZ AUX)
    Blend: AUG-CC-PVTZ-RI
    Molecular point group: c1

    Geometry (in Angstrom), charge = 0, multiplicity = 1:

       Center              X                  Y                   Z               Mass
    ------------   -----------------  -----------------  -----------------  -----------------
         O           -0.077464664634     1.029924840973     0.694150601865    15.994914619570
         O            0.002132335366    -2.437006159027    -0.063514398135    15.994914619570
         O           -1.801957664634     1.360815840973    -0.856219398135    15.994914619570
         O            2.770040335366     0.842197840973     0.182703601865    15.994914619570
         C           -0.398449664634    -1.093752159027    -0.314726398135    12.000000000000
         C            0.633021335366    -0.170961159027     0.323925601865    12.000000000000
         C           -1.684643664634    -0.646008159027     0.367710601865    12.000000000000
         C           -1.462329664634     0.849529840973     0.420815601865    12.000000000000
         C            1.790270335366     0.149162840973    -0.583625398135    12.000000000000
         H           -0.463430664634    -0.896802159027    -1.394668398135     1.007825032230
         H            1.012237335366    -0.653915159027     1.237465601865     1.007825032230
         H           -2.517138364634    -0.881173159027    -0.118578298135     1.007825032230
         H           -1.711340664634    -1.064470159027     1.378665601865     1.007825032230
         H           -2.006299664634     1.380354840973     1.210917601865     1.007825032230
         H            1.413583335366     0.760637840973    -1.417322398135     1.007825032230
         H            2.181675335366    -0.797718159027    -0.987004398135     1.007825032230
         H           -0.647913664634    -3.020552159027    -0.502923398135     1.007825032230
         H           -1.557160664634     2.306633840973    -0.853560398135     1.007825032230
         H            3.488217335366     1.094350840973    -0.421713398135     1.007825032230

  Basis Set: AUG-CC-PVTZ
    Blend: AUG-CC-PVTZ
  Basis Set: (AUG-CC-PVTZ AUX)
    Blend: AUG-CC-PVTZ-JKFIT
	 Reference Energy          =    -494.7757765933273504 [Eh]
	 Singles Energy            =      -0.0000000000000000 [Eh]
	 Same-Spin Energy          =      -0.4828316593406486 [Eh]
	 Opposite-Spin Energy      =      -1.5124570079367576 [Eh]
	 Correlation Energy        =      -1.9952886672774062 [Eh]
	 Total Energy              =    -496.7710652606047574 [Eh]

	 ================> DF-SCS-MP2 Energies <==================
	-----------------------------------------------------------
	 SCS Same-Spin Scale       =       0.3333333333333333 [-]
	 SCS Opposite-Spin Scale   =       1.2000000000000000 [-]
	 SCS Same-Spin Energy      =      -0.1609438864468829 [Eh]
	 SCS Opposite-Spin Energy  =      -1.8149484095241091 [Eh]
	 SCS Correlation Energy    =      -1.9758922959709919 [Eh]
	 SCS Total Energy          =    -496.7516688892983439 [Eh]
	-----------------------------------------------------------

  Dipole Moment: [D]
     X:    -1.2002      Y:    -0.5003      Z:    -1.8642     Total:     2.2729

*** Psi4 exiting successfully. Buy a developer a beer!
