                               Psi4 1.3.2 release

  ==> Input File <==

--------------------------------------------------------------------------
#psi4
#
memory 32 gb

molecule  {
0 1
  O       -0.0768340     1.0301030     0.6945190
  O        0.0027630    -2.4368280    -0.0631460
  O       -1.8013270     1.3609940    -0.8558510
  O        2.7706710     0.8423760     0.1830720
  C       -0.4535750    -1.2425302    -0.3030850
  C        0.6336520    -0.1707830     0.3242940
  C       -1.6840130    -0.6458300     0.3680790
  C       -1.4616990     0.8497080     0.4211840
  C        1.7909010     0.1493410    -0.5832570
  H       -0.4628000    -0.8966240    -1.3943000
  H        1.0128680    -0.6537370     1.2378340
  H       -2.6003960    -0.9046920    -0.1672120
  H       -1.7107100    -1.0642920     1.3790340
  H       -2.0056690     1.3805330     1.2112860
  H        1.4142140     0.7608160    -1.4169540
  H        2.1823060    -0.7975400    -0.9866360
  H       -0.6472830    -3.0203740    -0.5025550
  H       -1.5565300     2.3068120    -0.8531920
  H        3.4888480     1.0945290    -0.4213450
units angstrom
no_reorient  #important for SAPT in psi4, default
symmetry c1  #important for SAPT in psi4, default
}

set PROPERTIES_ORIGIN ["COM"]
properties('MP2/aug-cc-pvtz', properties = ['dipole'])
--------------------------------------------------------------------------

    Molecular point group: c1
  Charge       = 0
  Multiplicity = 1
  Basis Set: AUG-CC-PVTZ
    Blend: AUG-CC-PVTZ
  Basis Set: (AUG-CC-PVTZ AUX)
    Blend: AUG-CC-PVTZ-JKFIT

    Orbital Energies [Eh]
    ---------------------

    Doubly Occupied:

       1A    -20.589616     2A    -20.566933     3A    -20.555702
       4A    -20.555107     5A    -11.336804     6A    -11.294136
       7A    -11.274350     8A    -11.271817     9A    -11.228346
      10A     -1.434388    11A     -1.407499    12A     -1.354257
      13A     -1.331484    14A     -1.050912    15A     -1.014179
      16A     -0.893176    17A     -0.822755    18A     -0.790587
      19A     -0.747350    20A     -0.702207    21A     -0.696328
      22A     -0.671373    23A     -0.639756    24A     -0.637533
      25A     -0.627553    26A     -0.591109    27A     -0.571531
      28A     -0.562056    29A     -0.543510    30A     -0.514366
      31A     -0.496333    32A     -0.478687    33A     -0.444008
      34A     -0.439102    35A     -0.431303    36A     -0.412813

  @DF-RHF Final Energy:  -494.75648580882233

   => Energetics <=

    Nuclear Repulsion Energy =            508.1653450455434609
    One-Electron Energy =               -1687.8857304428593125
    Two-Electron Energy =                 684.9638995884934047
    Total Energy =                       -494.7564858088223900
  Basis Set: (AUG-CC-PVTZ AUX)
    Blend: AUG-CC-PVTZ-RI
    Molecular point group: c1

    Geometry (in Angstrom), charge = 0, multiplicity = 1:

       Center              X                  Y                   Z               Mass
    ------------   -----------------  -----------------  -----------------  -----------------
         O           -0.071843088589     1.043436590082     0.693509905186    15.994914619570
         O            0.007753911411    -2.423494409918    -0.064155094814    15.994914619570
         O           -1.796336088589     1.374327590082    -0.856860094814    15.994914619570
         O            2.775661911411     0.855709590082     0.182062905186    15.994914619570
         C           -0.448584088589    -1.229196609918    -0.304094094814    12.000000000000
         C            0.638642911411    -0.157449409918     0.323284905186    12.000000000000
         C           -1.679022088589    -0.632496409918     0.367069905186    12.000000000000
         C           -1.456708088589     0.863041590082     0.420174905186    12.000000000000
         C            1.795891911411     0.162674590082    -0.584266094814    12.000000000000
         H           -0.457809088589    -0.883290409918    -1.395309094814     1.007825032230
         H            1.017858911411    -0.640403409918     1.236824905186     1.007825032230
         H           -2.595405088589    -0.891358409918    -0.168221094814     1.007825032230
         H           -1.705719088589    -1.050958409918     1.378024905186     1.007825032230
         H           -2.000678088589     1.393866590082     1.210276905186     1.007825032230
         H            1.419204911411     0.774149590082    -1.417963094814     1.007825032230
         H            2.187296911411    -0.784206409918    -0.987645094814     1.007825032230
         H           -0.642292088589    -3.007040409918    -0.503564094814     1.007825032230
         H           -1.551539088589     2.320145590082    -0.854201094814     1.007825032230
         H            3.493838911411     1.107862590082    -0.422354094814     1.007825032230

  Basis Set: AUG-CC-PVTZ
    Blend: AUG-CC-PVTZ
  Basis Set: (AUG-CC-PVTZ AUX)
    Blend: AUG-CC-PVTZ-JKFIT
	 Reference Energy          =    -494.7564858088223332 [Eh]
	 Singles Energy            =      -0.0000000000000000 [Eh]
	 Same-Spin Energy          =      -0.4835692328900938 [Eh]
	 Opposite-Spin Energy      =      -1.5133475790218380 [Eh]
	 Correlation Energy        =      -1.9969168119119318 [Eh]
	 Total Energy              =    -496.7534026207342777 [Eh]

	 ================> DF-SCS-MP2 Energies <==================
	-----------------------------------------------------------
	 SCS Same-Spin Scale       =       0.3333333333333333 [-]
	 SCS Opposite-Spin Scale   =       1.2000000000000000 [-]
	 SCS Same-Spin Energy      =      -0.1611897442966979 [Eh]
	 SCS Opposite-Spin Energy  =      -1.8160170948262055 [Eh]
	 SCS Correlation Energy    =      -1.9772068391229034 [Eh]
	 SCS Total Energy          =    -496.7336926479452472 [Eh]
	-----------------------------------------------------------

  Dipole Moment: [D]
     X:    -1.1398      Y:    -1.0095      Z:    -1.8038     Total:     2.3605

*** Psi4 exiting successfully. Buy a developer a beer!
