                               Psi4 1.3.2 release

  ==> Input File <==

--------------------------------------------------------------------------
#psi4
#
memory 32 gb

molecule  {
0 1
  O       -0.0768340     1.0301030     0.6945190
  O        0.0027630    -2.4368280    -0.0631460
  O       -1.8013270     1.3609940    -0.8558510
  O        2.7706710     0.8423760     0.1830720
  C       -0.3978190    -1.0935740    -0.3143580
  C        0.6336520    -0.1707830     0.3242940
  C       -1.7197097    -0.6155086     0.2726245
  C       -1.4616990     0.8497080     0.4211840
  C        1.7909010     0.1493410    -0.5832570
  H       -0.4628000    -0.8966240    -1.3943000
  H        1.0128680    -0.6537370     1.2378340
  H       -2.6003960    -0.9046920    -0.1672120
  H       -1.7107100    -1.0642920     1.3790340
  H       -2.0056690     1.3805330     1.2112860
  H        1.4142140     0.7608160    -1.4169540
  H        2.1823060    -0.7975400    -0.9866360
  H       -0.6472830    -3.0203740    -0.5025550
  H       -1.5565300     2.3068120    -0.8531920
  H        3.4888480     1.0945290    -0.4213450
units angstrom
no_reorient  #important for SAPT in psi4, default
symmetry c1  #important for SAPT in psi4, default
}

set PROPERTIES_ORIGIN ["COM"]
properties('MP2/aug-cc-pvtz', properties = ['dipole'])
--------------------------------------------------------------------------

    Molecular point group: c1
  Charge       = 0
  Multiplicity = 1
  Basis Set: AUG-CC-PVTZ
    Blend: AUG-CC-PVTZ
  Basis Set: (AUG-CC-PVTZ AUX)
    Blend: AUG-CC-PVTZ-JKFIT

    Orbital Energies [Eh]
    ---------------------

    Doubly Occupied:

       1A    -20.573980     2A    -20.567398     3A    -20.560551
       4A    -20.558496     5A    -11.337576     6A    -11.290192
       7A    -11.278564     8A    -11.275952     9A    -11.233022
      10A     -1.416453    11A     -1.370527    12A     -1.357507
      13A     -1.335608    14A     -1.065287    15A     -1.026799
      16A     -0.898886    17A     -0.822688    18A     -0.797560
      19A     -0.741592    20A     -0.702979    21A     -0.685945
      22A     -0.677617    23A     -0.643439    24A     -0.632600
      25A     -0.615232    26A     -0.573361    27A     -0.567600
      28A     -0.555598    29A     -0.527012    30A     -0.518544
      31A     -0.507504    32A     -0.482999    33A     -0.463097
      34A     -0.447665    35A     -0.442129    36A     -0.429471

  @DF-RHF Final Energy:  -494.76839844884904

   => Energetics <=

    Nuclear Repulsion Energy =            509.4955341269979954
    One-Electron Energy =               -1690.5650102923443683
    Two-Electron Energy =                 686.3010777164971614
    Total Energy =                       -494.7683984488490978
  Basis Set: (AUG-CC-PVTZ AUX)
    Blend: AUG-CC-PVTZ-RI
    Molecular point group: c1

    Geometry (in Angstrom), charge = 0, multiplicity = 1:

       Center              X                  Y                   Z               Mass
    ------------   -----------------  -----------------  -----------------  -----------------
         O           -0.073638667844     1.027388814764     0.703063463133    15.994914619570
         O            0.005958332156    -2.439542185236    -0.054601536867    15.994914619570
         O           -1.798131667844     1.358279814764    -0.847306536867    15.994914619570
         O            2.773866332156     0.839661814764     0.191616463133    15.994914619570
         C           -0.394623667844    -1.096288185236    -0.305813536867    12.000000000000
         C            0.636847332156    -0.173497185236     0.332838463133    12.000000000000
         C           -1.716514367844    -0.618222785236     0.281168963133    12.000000000000
         C           -1.458503667844     0.846993814764     0.429728463133    12.000000000000
         C            1.794096332156     0.146626814764    -0.574712536867    12.000000000000
         H           -0.459604667844    -0.899338185236    -1.385755536867     1.007825032230
         H            1.016063332156    -0.656451185236     1.246378463133     1.007825032230
         H           -2.597200667844    -0.907406185236    -0.158667536867     1.007825032230
         H           -1.707514667844    -1.067006185236     1.387578463133     1.007825032230
         H           -2.002473667844     1.377818814764     1.219830463133     1.007825032230
         H            1.417409332156     0.758101814764    -1.408409536867     1.007825032230
         H            2.185501332156    -0.800254185236    -0.978091536867     1.007825032230
         H           -0.644087667844    -3.023088185236    -0.494010536867     1.007825032230
         H           -1.553334667844     2.304097814764    -0.844647536867     1.007825032230
         H            3.492043332156     1.091814814764    -0.412800536867     1.007825032230

  Basis Set: AUG-CC-PVTZ
    Blend: AUG-CC-PVTZ
  Basis Set: (AUG-CC-PVTZ AUX)
    Blend: AUG-CC-PVTZ-JKFIT
	 Reference Energy          =    -494.7683984488490410 [Eh]
	 Singles Energy            =      -0.0000000000000000 [Eh]
	 Same-Spin Energy          =      -0.4833083166865632 [Eh]
	 Opposite-Spin Energy      =      -1.5139583533731504 [Eh]
	 Correlation Energy        =      -1.9972666700597137 [Eh]
	 Total Energy              =    -496.7656651189087711 [Eh]

	 ================> DF-SCS-MP2 Energies <==================
	-----------------------------------------------------------
	 SCS Same-Spin Scale       =       0.3333333333333333 [-]
	 SCS Opposite-Spin Scale   =       1.2000000000000000 [-]
	 SCS Same-Spin Energy      =      -0.1611027722288544 [Eh]
	 SCS Opposite-Spin Energy  =      -1.8167500240477805 [Eh]
	 SCS Correlation Energy    =      -1.9778527962766348 [Eh]
	 SCS Total Energy          =    -496.7462512451256771 [Eh]
	-----------------------------------------------------------

  Dipole Moment: [D]
     X:    -1.1547      Y:    -0.4878      Z:    -1.9189     Total:     2.2920

*** Psi4 exiting successfully. Buy a developer a beer!
