                               Psi4 1.3.2 release

  ==> Input File <==

--------------------------------------------------------------------------
#psi4
#
memory 32 gb

molecule  {
0 1
  O       -0.0768340     1.0301030     0.6945190
  O        0.0027630    -2.4368280    -0.0631460
  O       -1.8013270     1.3609940    -0.8558510
  O        2.7706710     0.8423760     0.1830720
  C       -0.3978190    -1.0935740    -0.3143580
  C        0.6713533    -0.1940924     0.2948673
  C       -1.6840130    -0.6458300     0.3680790
  C       -1.4616990     0.8497080     0.4211840
  C        1.7909010     0.1493410    -0.5832570
  H       -0.4628000    -0.8966240    -1.3943000
  H        1.0128680    -0.6537370     1.2378340
  H       -2.6003960    -0.9046920    -0.1672120
  H       -1.7107100    -1.0642920     1.3790340
  H       -2.0056690     1.3805330     1.2112860
  H        1.4142140     0.7608160    -1.4169540
  H        2.1823060    -0.7975400    -0.9866360
  H       -0.6472830    -3.0203740    -0.5025550
  H       -1.5565300     2.3068120    -0.8531920
  H        3.4888480     1.0945290    -0.4213450
units angstrom
no_reorient  #important for SAPT in psi4, default
symmetry c1  #important for SAPT in psi4, default
}

set PROPERTIES_ORIGIN ["COM"]
properties('MP2/aug-cc-pvtz', properties = ['dipole'])
--------------------------------------------------------------------------

    Molecular point group: c1
  Charge       = 0
  Multiplicity = 1
  Basis Set: AUG-CC-PVTZ
    Blend: AUG-CC-PVTZ
  Basis Set: (AUG-CC-PVTZ AUX)
    Blend: AUG-CC-PVTZ-JKFIT

    Orbital Energies [Eh]
    ---------------------

    Doubly Occupied:

       1A    -20.572613     2A    -20.567008     3A    -20.559911
       4A    -20.553074     5A    -11.334530     6A    -11.290261
       7A    -11.278505     8A    -11.276051     9A    -11.230247
      10A     -1.407112    11A     -1.370565    12A     -1.358933
      13A     -1.326136    14A     -1.063706    15A     -1.031404
      16A     -0.900225    17A     -0.818429    18A     -0.793992
      19A     -0.741265    20A     -0.701098    21A     -0.682553
      22A     -0.673021    23A     -0.644409    24A     -0.627046
      25A     -0.616817    26A     -0.572787    27A     -0.561602
      28A     -0.554169    29A     -0.536262    30A     -0.518921
      31A     -0.505609    32A     -0.481694    33A     -0.465600
      34A     -0.449020    35A     -0.440321    36A     -0.432097

  @DF-RHF Final Energy:  -494.77779763695406

   => Energetics <=

    Nuclear Repulsion Energy =            509.0404008642913709
    One-Electron Energy =               -1689.7624135048945391
    Two-Electron Energy =                 685.9442150036491057
    Total Energy =                       -494.7777976369541193
  Basis Set: (AUG-CC-PVTZ AUX)
    Blend: AUG-CC-PVTZ-RI
    Molecular point group: c1

    Geometry (in Angstrom), charge = 0, multiplicity = 1:

       Center              X                  Y                   Z               Mass
    ------------   -----------------  -----------------  -----------------  -----------------
         O           -0.080208783758     1.032189498332     0.697153080022    15.994914619570
         O           -0.000611783758    -2.434741501668    -0.060511919978    15.994914619570
         O           -1.804701783758     1.363080498332    -0.853216919978    15.994914619570
         O            2.767296216242     0.844462498332     0.185706080022    15.994914619570
         C           -0.401193783758    -1.091487501668    -0.311723919978    12.000000000000
         C            0.667978516242    -0.192005901668     0.297501380022    12.000000000000
         C           -1.687387783758    -0.643743501668     0.370713080022    12.000000000000
         C           -1.465073783758     0.851794498332     0.423818080022    12.000000000000
         C            1.787526216242     0.151427498332    -0.580622919978    12.000000000000
         H           -0.466174783758    -0.894537501668    -1.391665919978     1.007825032230
         H            1.009493216242    -0.651650501668     1.240468080022     1.007825032230
         H           -2.603770783758    -0.902605501668    -0.164577919978     1.007825032230
         H           -1.714084783758    -1.062205501668     1.381668080022     1.007825032230
         H           -2.009043783758     1.382619498332     1.213920080022     1.007825032230
         H            1.410839216242     0.762902498332    -1.414319919978     1.007825032230
         H            2.178931216242    -0.795453501668    -0.984001919978     1.007825032230
         H           -0.650657783758    -3.018287501668    -0.499920919978     1.007825032230
         H           -1.559904783758     2.308898498332    -0.850557919978     1.007825032230
         H            3.485473216242     1.096615498332    -0.418710919978     1.007825032230

  Basis Set: AUG-CC-PVTZ
    Blend: AUG-CC-PVTZ
  Basis Set: (AUG-CC-PVTZ AUX)
    Blend: AUG-CC-PVTZ-JKFIT
	 Reference Energy          =    -494.7777976369540625 [Eh]
	 Singles Energy            =      -0.0000000000000000 [Eh]
	 Same-Spin Energy          =      -0.4832500456262381 [Eh]
	 Opposite-Spin Energy      =      -1.5139361457792448 [Eh]
	 Correlation Energy        =      -1.9971861914054829 [Eh]
	 Total Energy              =    -496.7749838283595523 [Eh]

	 ================> DF-SCS-MP2 Energies <==================
	-----------------------------------------------------------
	 SCS Same-Spin Scale       =       0.3333333333333333 [-]
	 SCS Opposite-Spin Scale   =       1.2000000000000000 [-]
	 SCS Same-Spin Energy      =      -0.1610833485420794 [Eh]
	 SCS Opposite-Spin Energy  =      -1.8167233749350937 [Eh]
	 SCS Correlation Energy    =      -1.9778067234771730 [Eh]
	 SCS Total Energy          =    -496.7556043604312208 [Eh]
	-----------------------------------------------------------

  Dipole Moment: [D]
     X:    -1.0364      Y:    -0.5770      Z:    -1.9179     Total:     2.2551

*** Psi4 exiting successfully. Buy a developer a beer!
