                               Psi4 1.3.2 release

  ==> Input File <==

--------------------------------------------------------------------------
#psi4
#
memory 32 gb

molecule  {
0 1
  O       -0.0768340     1.0301030     0.6945190
  O        0.0027630    -2.4368280    -0.0631460
  O       -1.8013270     1.3609940    -0.8558510
  O        2.7706710     0.8423760     0.1830720
  C       -0.3978190    -1.0935740    -0.3143580
  C        0.6336520    -0.1707830     0.3242940
  C       -1.7684469    -0.6164373     0.4128785
  C       -1.4616990     0.8497080     0.4211840
  C        1.7909010     0.1493410    -0.5832570
  H       -0.4628000    -0.8966240    -1.3943000
  H        1.0128680    -0.6537370     1.2378340
  H       -2.6003960    -0.9046920    -0.1672120
  H       -1.7107100    -1.0642920     1.3790340
  H       -2.0056690     1.3805330     1.2112860
  H        1.4142140     0.7608160    -1.4169540
  H        2.1823060    -0.7975400    -0.9866360
  H       -0.6472830    -3.0203740    -0.5025550
  H       -1.5565300     2.3068120    -0.8531920
  H        3.4888480     1.0945290    -0.4213450
units angstrom
no_reorient  #important for SAPT in psi4, default
symmetry c1  #important for SAPT in psi4, default
}

set PROPERTIES_ORIGIN ["COM"]
properties('MP2/aug-cc-pvtz', properties = ['dipole'])
--------------------------------------------------------------------------

    Molecular point group: c1
  Charge       = 0
  Multiplicity = 1
  Basis Set: AUG-CC-PVTZ
    Blend: AUG-CC-PVTZ
  Basis Set: (AUG-CC-PVTZ AUX)
    Blend: AUG-CC-PVTZ-JKFIT

    Orbital Energies [Eh]
    ---------------------

    Doubly Occupied:

       1A    -20.572951     2A    -20.569009     3A    -20.559443
       4A    -20.558093     5A    -11.336159     6A    -11.293122
       7A    -11.277018     8A    -11.275398     9A    -11.229325
      10A     -1.414265    11A     -1.369074    12A     -1.356995
      13A     -1.334856    14A     -1.053341    15A     -1.027229
      16A     -0.896101    17A     -0.825913    18A     -0.791172
      19A     -0.743456    20A     -0.700037    21A     -0.682295
      22A     -0.672967    23A     -0.642586    24A     -0.632498
      25A     -0.610024    26A     -0.576448    27A     -0.570095
      28A     -0.551378    29A     -0.544674    30A     -0.520631
      31A     -0.511433    32A     -0.484298    33A     -0.464033
      34A     -0.446940    35A     -0.432634    36A     -0.421688

  @DF-RHF Final Energy:  -494.77374713309882

   => Energetics <=

    Nuclear Repulsion Energy =            507.8435257403883725
    One-Electron Energy =               -1687.3393905926129719
    Two-Electron Energy =                 684.7221177191258903
    Total Energy =                       -494.7737471330988228
  Basis Set: (AUG-CC-PVTZ AUX)
    Blend: AUG-CC-PVTZ-RI
    Molecular point group: c1

    Geometry (in Angstrom), charge = 0, multiplicity = 1:

       Center              X                  Y                   Z               Mass
    ------------   -----------------  -----------------  -----------------  -----------------
         O           -0.069276027809     1.027471946003     0.690508828982    15.994914619570
         O            0.010320972191    -2.439459053997    -0.067156171018    15.994914619570
         O           -1.793769027809     1.358362946003    -0.859861171018    15.994914619570
         O            2.778228972191     0.839744946003     0.179061828982    15.994914619570
         C           -0.390261027809    -1.096205053997    -0.318368171018    12.000000000000
         C            0.641209972191    -0.173414053997     0.320283828982    12.000000000000
         C           -1.760888927809    -0.619068353997     0.408868328982    12.000000000000
         C           -1.454141027809     0.847076946003     0.417173828982    12.000000000000
         C            1.798458972191     0.146709946003    -0.587267171018    12.000000000000
         H           -0.455242027809    -0.899255053997    -1.398310171018     1.007825032230
         H            1.020425972191    -0.656368053997     1.233823828982     1.007825032230
         H           -2.592838027809    -0.907323053997    -0.171222171018     1.007825032230
         H           -1.703152027809    -1.066923053997     1.375023828982     1.007825032230
         H           -1.998111027809     1.377901946003     1.207275828982     1.007825032230
         H            1.421771972191     0.758184946003    -1.420964171018     1.007825032230
         H            2.189863972191    -0.800171053997    -0.990646171018     1.007825032230
         H           -0.639725027809    -3.023005053997    -0.506565171018     1.007825032230
         H           -1.548972027809     2.304180946003    -0.857202171018     1.007825032230
         H            3.496405972191     1.091897946003    -0.425355171018     1.007825032230

  Basis Set: AUG-CC-PVTZ
    Blend: AUG-CC-PVTZ
  Basis Set: (AUG-CC-PVTZ AUX)
    Blend: AUG-CC-PVTZ-JKFIT
	 Reference Energy          =    -494.7737471330988228 [Eh]
	 Singles Energy            =      -0.0000000000000000 [Eh]
	 Same-Spin Energy          =      -0.4828904864318375 [Eh]
	 Opposite-Spin Energy      =      -1.5135939849604352 [Eh]
	 Correlation Energy        =      -1.9964844713922727 [Eh]
	 Total Energy              =    -496.7702316044910731 [Eh]

	 ================> DF-SCS-MP2 Energies <==================
	-----------------------------------------------------------
	 SCS Same-Spin Scale       =       0.3333333333333333 [-]
	 SCS Opposite-Spin Scale   =       1.2000000000000000 [-]
	 SCS Same-Spin Energy      =      -0.1609634954772792 [Eh]
	 SCS Opposite-Spin Energy  =      -1.8163127819525222 [Eh]
	 SCS Correlation Energy    =      -1.9772762774298014 [Eh]
	 SCS Total Energy          =    -496.7510234105286031 [Eh]
	-----------------------------------------------------------

  Dipole Moment: [D]
     X:    -1.1132      Y:    -0.5712      Z:    -1.8968     Total:     2.2723

*** Psi4 exiting successfully. Buy a developer a beer!
