                               Psi4 1.3.2 release

  ==> Input File <==

--------------------------------------------------------------------------
#psi4
#
memory 32 gb

molecule  {
0 1
  O       -0.0768340     1.0301030     0.6945190
  O        0.0027630    -2.4368280    -0.0631460
  O       -1.8013270     1.3609940    -0.8558510
  O        2.7706710     0.8423760     0.1830720
  C       -0.3978190    -1.0935740    -0.3143580
  C        0.6336520    -0.1707830     0.3242940
  C       -1.6840130    -0.6458300     0.3680790
  C       -1.3730194     0.8308746     0.4753358
  C        1.7909010     0.1493410    -0.5832570
  H       -0.4628000    -0.8966240    -1.3943000
  H        1.0128680    -0.6537370     1.2378340
  H       -2.6003960    -0.9046920    -0.1672120
  H       -1.7107100    -1.0642920     1.3790340
  H       -2.0056690     1.3805330     1.2112860
  H        1.4142140     0.7608160    -1.4169540
  H        2.1823060    -0.7975400    -0.9866360
  H       -0.6472830    -3.0203740    -0.5025550
  H       -1.5565300     2.3068120    -0.8531920
  H        3.4888480     1.0945290    -0.4213450
units angstrom
no_reorient  #important for SAPT in psi4, default
symmetry c1  #important for SAPT in psi4, default
}

set PROPERTIES_ORIGIN ["COM"]
properties('MP2/aug-cc-pvtz', properties = ['dipole'])
--------------------------------------------------------------------------

    Molecular point group: c1
  Charge       = 0
  Multiplicity = 1
  Basis Set: AUG-CC-PVTZ
    Blend: AUG-CC-PVTZ
  Basis Set: (AUG-CC-PVTZ AUX)
    Blend: AUG-CC-PVTZ-JKFIT

    Orbital Energies [Eh]
    ---------------------

    Doubly Occupied:

       1A    -20.573861     2A    -20.573697     3A    -20.562050
       4A    -20.551119     5A    -11.337197     6A    -11.291082
       7A    -11.285386     8A    -11.280175     9A    -11.230035
      10A     -1.440048    11A     -1.370834    12A     -1.359465
      13A     -1.320075    14A     -1.070870    15A     -1.031375
      16A     -0.898058    17A     -0.828742    18A     -0.795838
      19A     -0.739538    20A     -0.707236    21A     -0.684706
      22A     -0.672786    23A     -0.644931    24A     -0.637588
      25A     -0.609947    26A     -0.579606    27A     -0.567077
      28A     -0.560402    29A     -0.537260    30A     -0.521233
      31A     -0.504634    32A     -0.482371    33A     -0.465682
      34A     -0.451371    35A     -0.436757    36A     -0.434118

  @DF-RHF Final Energy:  -494.77323483080409

   => Energetics <=

    Nuclear Repulsion Energy =            510.3953950331652436
    One-Electron Energy =               -1692.2629613503952442
    Two-Electron Energy =                 687.0943314864259719
    Total Energy =                       -494.7732348308040855
  Basis Set: (AUG-CC-PVTZ AUX)
    Blend: AUG-CC-PVTZ-RI
    Molecular point group: c1

    Geometry (in Angstrom), charge = 0, multiplicity = 1:

       Center              X                  Y                   Z               Mass
    ------------   -----------------  -----------------  -----------------  -----------------
         O           -0.084772032622     1.031788835660     0.689671671361    15.994914619570
         O           -0.005175032622    -2.435142164340    -0.067993328639    15.994914619570
         O           -1.809265032622     1.362679835660    -0.860698328639    15.994914619570
         O            2.762732967378     0.844061835660     0.178224671361    15.994914619570
         C           -0.405757032622    -1.091888164340    -0.319205328639    12.000000000000
         C            0.625713967378    -0.169097164340     0.319446671361    12.000000000000
         C           -1.691951032622    -0.644144164340     0.363231671361    12.000000000000
         C           -1.380957432622     0.832560435660     0.470488471361    12.000000000000
         C            1.782962967378     0.151026835660    -0.588104328639    12.000000000000
         H           -0.470738032622    -0.894938164340    -1.399147328639     1.007825032230
         H            1.004929967378    -0.652051164340     1.232986671361     1.007825032230
         H           -2.608334032622    -0.903006164340    -0.172059328639     1.007825032230
         H           -1.718648032622    -1.062606164340     1.374186671361     1.007825032230
         H           -2.013607032622     1.382218835660     1.206438671361     1.007825032230
         H            1.406275967378     0.762501835660    -1.421801328639     1.007825032230
         H            2.174367967378    -0.795854164340    -0.991483328639     1.007825032230
         H           -0.655221032622    -3.018688164340    -0.507402328639     1.007825032230
         H           -1.564468032622     2.308497835660    -0.858039328639     1.007825032230
         H            3.480909967378     1.096214835660    -0.426192328639     1.007825032230

  Basis Set: AUG-CC-PVTZ
    Blend: AUG-CC-PVTZ
  Basis Set: (AUG-CC-PVTZ AUX)
    Blend: AUG-CC-PVTZ-JKFIT
	 Reference Energy          =    -494.7732348308040855 [Eh]
	 Singles Energy            =      -0.0000000000000000 [Eh]
	 Same-Spin Energy          =      -0.4832134061585872 [Eh]
	 Opposite-Spin Energy      =      -1.5134135299710665 [Eh]
	 Correlation Energy        =      -1.9966269361296538 [Eh]
	 Total Energy              =    -496.7698617669337295 [Eh]

	 ================> DF-SCS-MP2 Energies <==================
	-----------------------------------------------------------
	 SCS Same-Spin Scale       =       0.3333333333333333 [-]
	 SCS Opposite-Spin Scale   =       1.2000000000000000 [-]
	 SCS Same-Spin Energy      =      -0.1610711353861957 [Eh]
	 SCS Opposite-Spin Energy  =      -1.8160962359652797 [Eh]
	 SCS Correlation Energy    =      -1.9771673713514755 [Eh]
	 SCS Total Energy          =    -496.7504022021555556 [Eh]
	-----------------------------------------------------------

  Dipole Moment: [D]
     X:    -0.5810      Y:    -0.7325      Z:    -1.5508     Total:     1.8108

*** Psi4 exiting successfully. Buy a developer a beer!
