                               Psi4 1.3.2 release

  ==> Input File <==

--------------------------------------------------------------------------
#psi4
#
memory 32 gb

molecule  {
0 1
  O       -0.0768340     1.0301030     0.6945190
  O        0.0027630    -2.4368280    -0.0631460
  O       -1.8013270     1.3609940    -0.8558510
  O        2.7706710     0.8423760     0.1830720
  C       -0.3978190    -1.0935740    -0.3143580
  C        0.6336520    -0.1707830     0.3242940
  C       -1.6935319    -0.6380392     0.3445092
  C       -1.4616990     0.8497080     0.4211840
  C        1.7909010     0.1493410    -0.5832570
  H       -0.4628000    -0.8966240    -1.3943000
  H        1.0128680    -0.6537370     1.2378340
  H       -2.6003960    -0.9046920    -0.1672120
  H       -1.7107100    -1.0642920     1.3790340
  H       -2.0056690     1.3805330     1.2112860
  H        1.4142140     0.7608160    -1.4169540
  H        2.1823060    -0.7975400    -0.9866360
  H       -0.6472830    -3.0203740    -0.5025550
  H       -1.5565300     2.3068120    -0.8531920
  H        3.4888480     1.0945290    -0.4213450
units angstrom
no_reorient  #important for SAPT in psi4, default
symmetry c1  #important for SAPT in psi4, default
}

set PROPERTIES_ORIGIN ["COM"]
properties('MP2/aug-cc-pvtz', properties = ['dipole'])
--------------------------------------------------------------------------

    Molecular point group: c1
  Charge       = 0
  Multiplicity = 1
  Basis Set: AUG-CC-PVTZ
    Blend: AUG-CC-PVTZ
  Basis Set: (AUG-CC-PVTZ AUX)
    Blend: AUG-CC-PVTZ-JKFIT

    Orbital Energies [Eh]
    ---------------------

    Doubly Occupied:

       1A    -20.572697     2A    -20.568630     3A    -20.558815
       4A    -20.558059     5A    -11.337100     6A    -11.288993
       7A    -11.277312     8A    -11.275362     9A    -11.230703
      10A     -1.415442    11A     -1.369984    12A     -1.357021
      13A     -1.335140    14A     -1.063715    15A     -1.025600
      16A     -0.897770    17A     -0.821062    18A     -0.795068
      19A     -0.743153    20A     -0.701603    21A     -0.683247
      22A     -0.675413    23A     -0.642515    24A     -0.629291
      25A     -0.616542    26A     -0.573323    27A     -0.565747
      28A     -0.555669    29A     -0.531126    30A     -0.520989
      31A     -0.508321    32A     -0.484564    33A     -0.462795
      34A     -0.447645    35A     -0.441939    36A     -0.429653

  @DF-RHF Final Energy:  -494.78069858200837

   => Energetics <=

    Nuclear Repulsion Energy =            509.3895176809461987
    One-Electron Energy =               -1690.4164202482047585
    Two-Electron Energy =                 686.2462039852500766
    Total Energy =                       -494.7806985820084265
  Basis Set: (AUG-CC-PVTZ AUX)
    Blend: AUG-CC-PVTZ-RI
    Molecular point group: c1

    Geometry (in Angstrom), charge = 0, multiplicity = 1:

       Center              X                  Y                   Z               Mass
    ------------   -----------------  -----------------  -----------------  -----------------
         O           -0.075981935786     1.029405608867     0.696628808082    15.994914619570
         O            0.003615064214    -2.437525391133    -0.061036191918    15.994914619570
         O           -1.800474935786     1.360296608867    -0.853741191918    15.994914619570
         O            2.771523064214     0.841678608867     0.185181808082    15.994914619570
         C           -0.396966935786    -1.094271391133    -0.312248191918    12.000000000000
         C            0.634504064214    -0.171480391133     0.326403808082    12.000000000000
         C           -1.692679835786    -0.638736591133     0.346619008082    12.000000000000
         C           -1.460846935786     0.849010608867     0.423293808082    12.000000000000
         C            1.791753064214     0.148643608867    -0.581147191918    12.000000000000
         H           -0.461947935786    -0.897321391133    -1.392190191918     1.007825032230
         H            1.013720064214    -0.654434391133     1.239943808082     1.007825032230
         H           -2.599543935786    -0.905389391133    -0.165102191918     1.007825032230
         H           -1.709857935786    -1.064989391133     1.381143808082     1.007825032230
         H           -2.004816935786     1.379835608867     1.213395808082     1.007825032230
         H            1.415066064214     0.760118608867    -1.414844191918     1.007825032230
         H            2.183158064214    -0.798237391133    -0.984526191918     1.007825032230
         H           -0.646430935786    -3.021071391133    -0.500445191918     1.007825032230
         H           -1.555677935786     2.306114608867    -0.851082191918     1.007825032230
         H            3.489700064214     1.093831608867    -0.419235191918     1.007825032230

  Basis Set: AUG-CC-PVTZ
    Blend: AUG-CC-PVTZ
  Basis Set: (AUG-CC-PVTZ AUX)
    Blend: AUG-CC-PVTZ-JKFIT
	 Reference Energy          =    -494.7806985820083696 [Eh]
	 Singles Energy            =      -0.0000000000000000 [Eh]
	 Same-Spin Energy          =      -0.4829286433767166 [Eh]
	 Opposite-Spin Energy      =      -1.5131170730385670 [Eh]
	 Correlation Energy        =      -1.9960457164152836 [Eh]
	 Total Energy              =    -496.7767442984236368 [Eh]

	 ================> DF-SCS-MP2 Energies <==================
	-----------------------------------------------------------
	 SCS Same-Spin Scale       =       0.3333333333333333 [-]
	 SCS Opposite-Spin Scale   =       1.2000000000000000 [-]
	 SCS Same-Spin Energy      =      -0.1609762144589055 [Eh]
	 SCS Opposite-Spin Energy  =      -1.8157404876462804 [Eh]
	 SCS Correlation Energy    =      -1.9767167021051859 [Eh]
	 SCS Total Energy          =    -496.7574152841135628 [Eh]
	-----------------------------------------------------------

  Dipole Moment: [D]
     X:    -1.1633      Y:    -0.4879      Z:    -1.8737     Total:     2.2588

*** Psi4 exiting successfully. Buy a developer a beer!
