                               Psi4 1.3.2 release

  ==> Input File <==

--------------------------------------------------------------------------
#psi4
#
memory 32 gb

molecule  {
0 1
  O       -0.0768340     1.0301030     0.6945190
  O        0.0027630    -2.4368280    -0.0631460
  O       -1.8013270     1.3609940    -0.8558510
  O        2.7706710     0.8423760     0.1830720
  C       -0.3978190    -1.0935740    -0.3143580
  C        0.6336520    -0.1707830     0.3242940
  C       -1.6840130    -0.6458300     0.3680790
  C       -1.4616990     0.8497080     0.4211840
  C        1.7909010     0.1493410    -0.5832570
  H       -0.4628000    -0.8966240    -1.3943000
  H        1.0128680    -0.6537370     1.2378340
  H       -2.6331509    -0.9595593    -0.0723923
  H       -1.7107100    -1.0642920     1.3790340
  H       -2.0056690     1.3805330     1.2112860
  H        1.4142140     0.7608160    -1.4169540
  H        2.1823060    -0.7975400    -0.9866360
  H       -0.6472830    -3.0203740    -0.5025550
  H       -1.5565300     2.3068120    -0.8531920
  H        3.4888480     1.0945290    -0.4213450
units angstrom
no_reorient  #important for SAPT in psi4, default
symmetry c1  #important for SAPT in psi4, default
}

set PROPERTIES_ORIGIN ["COM"]
properties('MP2/aug-cc-pvtz', properties = ['dipole'])
--------------------------------------------------------------------------

    Molecular point group: c1
  Charge       = 0
  Multiplicity = 1
  Basis Set: AUG-CC-PVTZ
    Blend: AUG-CC-PVTZ
  Basis Set: (AUG-CC-PVTZ AUX)
    Blend: AUG-CC-PVTZ-JKFIT

    Orbital Energies [Eh]
    ---------------------

    Doubly Occupied:

       1A    -20.572337     2A    -20.568767     3A    -20.558875
       4A    -20.558160     5A    -11.337903     6A    -11.289644
       7A    -11.277509     8A    -11.275440     9A    -11.230388
      10A     -1.415282    11A     -1.369892    12A     -1.357065
      13A     -1.335102    14A     -1.062925    15A     -1.025286
      16A     -0.897615    17A     -0.823241    18A     -0.794299
      19A     -0.744032    20A     -0.701012    21A     -0.682812
      22A     -0.675404    23A     -0.642100    24A     -0.630423
      25A     -0.616770    26A     -0.573179    27A     -0.563354
      28A     -0.555569    29A     -0.532229    30A     -0.520012
      31A     -0.508609    32A     -0.485467    33A     -0.462298
      34A     -0.447931    35A     -0.441678    36A     -0.429750

  @DF-RHF Final Energy:  -494.78049823652418

   => Energetics <=

    Nuclear Repulsion Energy =            509.2089850266183362
    One-Electron Energy =               -1690.0542538463598703
    Two-Electron Energy =                 686.0647705832172960
    Total Energy =                       -494.7804982365241813
  Basis Set: (AUG-CC-PVTZ AUX)
    Blend: AUG-CC-PVTZ-RI
    Molecular point group: c1

    Geometry (in Angstrom), charge = 0, multiplicity = 1:

       Center              X                  Y                   Z               Mass
    ------------   -----------------  -----------------  -----------------  -----------------
         O           -0.076587760482     1.030515474296     0.693806152779    15.994914619570
         O            0.003009239518    -2.436415525704    -0.063858847221    15.994914619570
         O           -1.801080760482     1.361406474296    -0.856563847221    15.994914619570
         O            2.770917239518     0.842788474296     0.182359152779    15.994914619570
         C           -0.397572760482    -1.093161525704    -0.315070847221    12.000000000000
         C            0.633898239518    -0.170370525704     0.323581152779    12.000000000000
         C           -1.683766760482    -0.645417525704     0.367366152779    12.000000000000
         C           -1.461452760482     0.850120474296     0.420471152779    12.000000000000
         C            1.791147239518     0.149753474296    -0.583969847221    12.000000000000
         H           -0.462553760482    -0.896211525704    -1.395012847221     1.007825032230
         H            1.013114239518    -0.653324525704     1.237121152779     1.007825032230
         H           -2.632904660482    -0.959146825704    -0.073105147221     1.007825032230
         H           -1.710463760482    -1.063879525704     1.378321152779     1.007825032230
         H           -2.005422760482     1.380945474296     1.210573152779     1.007825032230
         H            1.414460239518     0.761228474296    -1.417666847221     1.007825032230
         H            2.182552239518    -0.797127525704    -0.987348847221     1.007825032230
         H           -0.647036760482    -3.019961525704    -0.503267847221     1.007825032230
         H           -1.556283760482     2.307224474296    -0.853904847221     1.007825032230
         H            3.489094239518     1.094941474296    -0.422057847221     1.007825032230

  Basis Set: AUG-CC-PVTZ
    Blend: AUG-CC-PVTZ
  Basis Set: (AUG-CC-PVTZ AUX)
    Blend: AUG-CC-PVTZ-JKFIT
	 Reference Energy          =    -494.7804982365241813 [Eh]
	 Singles Energy            =      -0.0000000000000000 [Eh]
	 Same-Spin Energy          =      -0.4828257725191387 [Eh]
	 Opposite-Spin Energy      =      -1.5129139244546694 [Eh]
	 Correlation Energy        =      -1.9957396969738082 [Eh]
	 Total Energy              =    -496.7762379334980096 [Eh]

	 ================> DF-SCS-MP2 Energies <==================
	-----------------------------------------------------------
	 SCS Same-Spin Scale       =       0.3333333333333333 [-]
	 SCS Opposite-Spin Scale   =       1.2000000000000000 [-]
	 SCS Same-Spin Energy      =      -0.1609419241730462 [Eh]
	 SCS Opposite-Spin Energy  =      -1.8154967093456031 [Eh]
	 SCS Correlation Energy    =      -1.9764386335186495 [Eh]
	 SCS Total Energy          =    -496.7569368700428072 [Eh]
	-----------------------------------------------------------

  Dipole Moment: [D]
     X:    -1.1685      Y:    -0.5064      Z:    -1.8332     Total:     2.2322

*** Psi4 exiting successfully. Buy a developer a beer!
