                               Psi4 1.3.2 release

  ==> Input File <==

--------------------------------------------------------------------------
#psi4
#
memory 32 gb

molecule  {
0 1
  O       -0.0768340     1.0301030     0.6945190
  O        0.0027630    -2.4368280    -0.0631460
  O       -1.8013270     1.3609940    -0.8558510
  O        2.7706710     0.8423760     0.1830720
  C       -0.3978190    -1.0935740    -0.3143580
  C        0.6336520    -0.1707830     0.3242940
  C       -1.5151453    -0.7046155     0.2784801
  C       -1.4616990     0.8497080     0.4211840
  C        1.7909010     0.1493410    -0.5832570
  H       -0.4628000    -0.8966240    -1.3943000
  H        1.0128680    -0.6537370     1.2378340
  H       -2.6003960    -0.9046920    -0.1672120
  H       -1.7107100    -1.0642920     1.3790340
  H       -2.0056690     1.3805330     1.2112860
  H        1.4142140     0.7608160    -1.4169540
  H        2.1823060    -0.7975400    -0.9866360
  H       -0.6472830    -3.0203740    -0.5025550
  H       -1.5565300     2.3068120    -0.8531920
  H        3.4888480     1.0945290    -0.4213450
units angstrom
no_reorient  #important for SAPT in psi4, default
symmetry c1  #important for SAPT in psi4, default
}

set PROPERTIES_ORIGIN ["COM"]
properties('MP2/aug-cc-pvtz', properties = ['dipole'])
--------------------------------------------------------------------------

    Molecular point group: c1
  Charge       = 0
  Multiplicity = 1
  Basis Set: AUG-CC-PVTZ
    Blend: AUG-CC-PVTZ
  Basis Set: (AUG-CC-PVTZ AUX)
    Blend: AUG-CC-PVTZ-JKFIT

    Orbital Energies [Eh]
    ---------------------

    Doubly Occupied:

       1A    -20.571849     2A    -20.569973     3A    -20.558385
       4A    -20.557097     5A    -11.343234     6A    -11.278970
       7A    -11.277143     8A    -11.275849     9A    -11.237938
      10A     -1.418203    11A     -1.373611    12A     -1.357477
      13A     -1.336384    14A     -1.097809    15A     -1.021868
      16A     -0.900481    17A     -0.811535    18A     -0.804421
      19A     -0.746223    20A     -0.706080    21A     -0.685830
      22A     -0.677919    23A     -0.643651    24A     -0.638917
      25A     -0.622377    26A     -0.574087    27A     -0.569845
      28A     -0.561439    29A     -0.521663    30A     -0.513962
      31A     -0.489874    32A     -0.480515    33A     -0.459446
      34A     -0.451530    35A     -0.445885    36A     -0.427121

  @DF-RHF Final Energy:  -494.73138815154721

   => Energetics <=

    Nuclear Repulsion Energy =            512.5343311252754575
    One-Electron Energy =               -1696.5142565237176768
    Two-Electron Energy =                 689.2485372468950118
    Total Energy =                       -494.7313881515472076
  Basis Set: (AUG-CC-PVTZ AUX)
    Blend: AUG-CC-PVTZ-RI
    Molecular point group: c1

    Geometry (in Angstrom), charge = 0, multiplicity = 1:

       Center              X                  Y                   Z               Mass
    ------------   -----------------  -----------------  -----------------  -----------------
         O           -0.091949954526     1.035365090163     0.702539307560    15.994914619570
         O           -0.012352954526    -2.431565909837    -0.055125692440    15.994914619570
         O           -1.816442954526     1.366256090163    -0.847830692440    15.994914619570
         O            2.755555045474     0.847638090163     0.191092307560    15.994914619570
         C           -0.412934954526    -1.088311909837    -0.306337692440    12.000000000000
         C            0.618536045474    -0.165520909837     0.332314307560    12.000000000000
         C           -1.530261254526    -0.699353409837     0.286500407560    12.000000000000
         C           -1.476814954526     0.854970090163     0.429204307560    12.000000000000
         C            1.775785045474     0.154603090163    -0.575236692440    12.000000000000
         H           -0.477915954526    -0.891361909837    -1.386279692440     1.007825032230
         H            0.997752045474    -0.648474909837     1.245854307560     1.007825032230
         H           -2.615511954526    -0.899429909837    -0.159191692440     1.007825032230
         H           -1.725825954526    -1.059029909837     1.387054307560     1.007825032230
         H           -2.020784954526     1.385795090163     1.219306307560     1.007825032230
         H            1.399098045474     0.766078090163    -1.408933692440     1.007825032230
         H            2.167190045474    -0.792277909837    -0.978615692440     1.007825032230
         H           -0.662398954526    -3.015111909837    -0.494534692440     1.007825032230
         H           -1.571645954526     2.312074090163    -0.845171692440     1.007825032230
         H            3.473732045474     1.099791090163    -0.413324692440     1.007825032230

  Basis Set: AUG-CC-PVTZ
    Blend: AUG-CC-PVTZ
  Basis Set: (AUG-CC-PVTZ AUX)
    Blend: AUG-CC-PVTZ-JKFIT
	 Reference Energy          =    -494.7313881515472076 [Eh]
	 Singles Energy            =      -0.0000000000000000 [Eh]
	 Same-Spin Energy          =      -0.4856400293460909 [Eh]
	 Opposite-Spin Energy      =      -1.5165949845095508 [Eh]
	 Correlation Energy        =      -2.0022350138556417 [Eh]
	 Total Energy              =    -496.7336231654028325 [Eh]

	 ================> DF-SCS-MP2 Energies <==================
	-----------------------------------------------------------
	 SCS Same-Spin Scale       =       0.3333333333333333 [-]
	 SCS Opposite-Spin Scale   =       1.2000000000000000 [-]
	 SCS Same-Spin Energy      =      -0.1618800097820303 [Eh]
	 SCS Opposite-Spin Energy  =      -1.8199139814114609 [Eh]
	 SCS Correlation Energy    =      -1.9817939911934912 [Eh]
	 SCS Total Energy          =    -496.7131821427407203 [Eh]
	-----------------------------------------------------------

  Dipole Moment: [D]
     X:    -1.1422      Y:    -0.2766      Z:    -1.8197     Total:     2.1662

*** Psi4 exiting successfully. Buy a developer a beer!
