                               Psi4 1.4a3.dev225

  ==> Input File <==

--------------------------------------------------------------------------
#psi4
#
memory 32 gb

molecule  {
0 1
  O        0.0779330    -0.9269250    -0.8850860
  O       -0.5497830     2.4054250     0.0105510
  O       -1.2273040    -1.7124440     0.8968780
  O        2.8355650    -0.3742720    -0.2242840
  C       -0.6080970     1.0161320     0.3256370
  C        0.5731950     0.3283540    -0.3705440
  C       -1.7990024     0.2769964    -0.2316833
  C       -1.2359040    -1.1221150    -0.3954320
  C        1.7465980     0.1105970     0.5541480
  H       -0.5498730     0.8655980     1.4125560
  H        0.8905780     0.9380060    -1.2243810
  H       -2.6989340     0.2874680     0.4026800
  H       -2.0570860     0.6846600    -1.2212740
  H       -1.7431510    -1.7703690    -1.1193200
  H        1.4450650    -0.6065030     1.3308310
  H        1.9882130     1.0713000     1.0354480
  H       -1.2210140     2.8543510     0.5524830
  H       -0.6896120    -2.5214440     0.8182530
  H        3.5785240    -0.5383230     0.3798300
units angstrom
no_reorient  #important for SAPT in psi4, default
symmetry c1  #important for SAPT in psi4, default
}

set PROPERTIES_ORIGIN ["COM"]
properties('MP2/aug-cc-pvtz', properties = ['dipole'])
--------------------------------------------------------------------------

    Molecular point group: c1
  Charge       = 0
  Multiplicity = 1
  Basis Set: AUG-CC-PVTZ
    Blend: AUG-CC-PVTZ
  Basis Set: (AUG-CC-PVTZ AUX)
    Blend: AUG-CC-PVTZ-JKFIT

    Orbital Energies [Eh]
    ---------------------

    Doubly Occupied:

       1A    -20.570794     2A    -20.569518     3A    -20.559454
       4A    -20.558973     5A    -11.337002     6A    -11.289271
       7A    -11.277749     8A    -11.276595     9A    -11.229750
      10A     -1.418013    11A     -1.369838    12A     -1.357902
      13A     -1.335983    14A     -1.063214    15A     -1.024969
      16A     -0.898452    17A     -0.819637    18A     -0.796227
      19A     -0.742534    20A     -0.703339    21A     -0.682974
      22A     -0.675995    23A     -0.645563    24A     -0.628420
      25A     -0.614739    26A     -0.573916    27A     -0.563999
      28A     -0.559636    29A     -0.531391    30A     -0.521882
      31A     -0.505565    32A     -0.483328    33A     -0.464702
      34A     -0.450341    35A     -0.444071    36A     -0.428584

  @DF-RHF Final Energy:  -494.78159203861685

   => Energetics <=

    Nuclear Repulsion Energy =            511.3501872106264727
    One-Electron Energy =               -1694.3149188796019189
    Two-Electron Energy =                 688.1831396303585962
    Total Energy =                       -494.7815920386168500
  Basis Set: (AUG-CC-PVTZ AUX)
    Blend: AUG-CC-PVTZ-RI
    Molecular point group: c1

    Geometry (in Angstrom), charge = 0, multiplicity = 1:

       Center              X                  Y                   Z               Mass
    ------------   -----------------  -----------------  -----------------  -----------------
         O            0.068737654493    -0.918464853651    -0.868235879088    15.994914619570
         O           -0.558978345507     2.413885146349     0.027401120912    15.994914619570
         O           -1.236499345507    -1.703983853651     0.913728120912    15.994914619570
         O            2.826369654493    -0.365811853651    -0.207433879088    15.994914619570
         C           -0.617292345507     1.024592146349     0.342487120912    12.000000000000
         C            0.563999654493     0.336814146349    -0.353693879088    12.000000000000
         C           -1.808197745507     0.285456546349    -0.214833179088    12.000000000000
         C           -1.245099345507    -1.113654853651    -0.378581879088    12.000000000000
         C            1.737402654493     0.119057146349     0.570998120912    12.000000000000
         H           -0.559068345507     0.874058146349     1.429406120912     1.007825032230
         H            0.881382654493     0.946466146349    -1.207530879088     1.007825032230
         H           -2.708129345507     0.295928146349     0.419530120912     1.007825032230
         H           -2.066281345507     0.693120146349    -1.204423879088     1.007825032230
         H           -1.752346345507    -1.761908853651    -1.102469879088     1.007825032230
         H            1.435869654493    -0.598042853651     1.347681120912     1.007825032230
         H            1.979017654493     1.079760146349     1.052298120912     1.007825032230
         H           -1.230209345507     2.862811146349     0.569333120912     1.007825032230
         H           -0.698807345507    -2.512983853651     0.835103120912     1.007825032230
         H            3.569328654493    -0.529862853651     0.396680120912     1.007825032230

  Basis Set: AUG-CC-PVTZ
    Blend: AUG-CC-PVTZ
  Basis Set: (AUG-CC-PVTZ AUX)
    Blend: AUG-CC-PVTZ-JKFIT
	 Reference Energy          =    -494.7815920386168500 [Eh]
	 Singles Energy            =      -0.0000000000000000 [Eh]
	 Same-Spin Energy          =      -0.4829356525854725 [Eh]
	 Opposite-Spin Energy      =      -1.5132728945537923 [Eh]
	 Correlation Energy        =      -1.9962085471392648 [Eh]
	 Total Energy              =    -496.7778005857560970 [Eh]

	 ================> DF-SCS-MP2 Energies <==================
	-----------------------------------------------------------
	 SCS Same-Spin Scale       =       0.3333333333333333 [-]
	 SCS Opposite-Spin Scale   =       1.2000000000000000 [-]
	 SCS Same-Spin Energy      =      -0.1609785508618242 [Eh]
	 SCS Opposite-Spin Energy  =      -1.8159274734645507 [Eh]
	 SCS Correlation Energy    =      -1.9769060243263750 [Eh]
	 SCS Total Energy          =    -496.7584980629432039 [Eh]
	-----------------------------------------------------------

  Dipole Moment: [D]
     X:    -1.0124      Y:     0.1312      Z:     2.2513     Total:     2.4719

*** Psi4 exiting successfully. Buy a developer a beer!
