                               Psi4 1.3.2 release

  ==> Input File <==

--------------------------------------------------------------------------
#psi4
#
memory 32 gb

molecule  {
0 1
  O       -0.0768340     1.0301030     0.6945190
  O        0.0027630    -2.4368280    -0.0631460
  O       -1.8013270     1.3609940    -0.8558510
  O        2.7706710     0.8423760     0.1830720
  C       -0.4061477    -1.1187855    -0.3129961
  C        0.6336520    -0.1707830     0.3242940
  C       -1.6840130    -0.6458300     0.3680790
  C       -1.4616990     0.8497080     0.4211840
  C        1.7909010     0.1493410    -0.5832570
  H       -0.4628000    -0.8966240    -1.3943000
  H        1.0128680    -0.6537370     1.2378340
  H       -2.6003960    -0.9046920    -0.1672120
  H       -1.7107100    -1.0642920     1.3790340
  H       -2.0056690     1.3805330     1.2112860
  H        1.4142140     0.7608160    -1.4169540
  H        2.1823060    -0.7975400    -0.9866360
  H       -0.6472830    -3.0203740    -0.5025550
  H       -1.5565300     2.3068120    -0.8531920
  H        3.4888480     1.0945290    -0.4213450
units angstrom
no_reorient  #important for SAPT in psi4, default
symmetry c1  #important for SAPT in psi4, default
}

set PROPERTIES_ORIGIN ["COM"]
properties('MP2/aug-cc-pvtz', properties = ['dipole'])
--------------------------------------------------------------------------

    Molecular point group: c1
  Charge       = 0
  Multiplicity = 1
  Basis Set: AUG-CC-PVTZ
    Blend: AUG-CC-PVTZ
  Basis Set: (AUG-CC-PVTZ AUX)
    Blend: AUG-CC-PVTZ-JKFIT

    Orbital Energies [Eh]
    ---------------------

    Doubly Occupied:

       1A    -20.575194     2A    -20.568729     3A    -20.557862
       4A    -20.557493     5A    -11.337043     6A    -11.289083
       7A    -11.276776     8A    -11.274653     9A    -11.229767
      10A     -1.414512    11A     -1.378703    12A     -1.356615
      13A     -1.334534    14A     -1.060797    15A     -1.023383
      16A     -0.896589    17A     -0.820910    18A     -0.793493
      19A     -0.744339    20A     -0.700853    21A     -0.685529
      22A     -0.673919    23A     -0.641921    24A     -0.628040
      25A     -0.619706    26A     -0.573486    27A     -0.565915
      28A     -0.560658    29A     -0.537783    30A     -0.518764
      31A     -0.504190    32A     -0.483574    33A     -0.458366
      34A     -0.446871    35A     -0.440630    36A     -0.428611

  @DF-RHF Final Energy:  -494.78129214885956

   => Energetics <=

    Nuclear Repulsion Energy =            509.1342607794605897
    One-Electron Energy =               -1689.9125248758102771
    Two-Electron Energy =                 685.9969719474901240
    Total Energy =                       -494.7812921488595066
  Basis Set: (AUG-CC-PVTZ AUX)
    Blend: AUG-CC-PVTZ-RI
    Molecular point group: c1

    Geometry (in Angstrom), charge = 0, multiplicity = 1:

       Center              X                  Y                   Z               Mass
    ------------   -----------------  -----------------  -----------------  -----------------
         O           -0.076088474819     1.032359762065     0.694397082981    15.994914619570
         O            0.003508525181    -2.434571237935    -0.063267917019    15.994914619570
         O           -1.800581474819     1.363250762065    -0.855972917019    15.994914619570
         O            2.771416525181     0.844632762065     0.182950082981    15.994914619570
         C           -0.405402174819    -1.116528737935    -0.313118017019    12.000000000000
         C            0.634397525181    -0.168526237935     0.324172082981    12.000000000000
         C           -1.683267474819    -0.643573237935     0.367957082981    12.000000000000
         C           -1.460953474819     0.851964762065     0.421062082981    12.000000000000
         C            1.791646525181     0.151597762065    -0.583378917019    12.000000000000
         H           -0.462054474819    -0.894367237935    -1.394421917019     1.007825032230
         H            1.013613525181    -0.651480237935     1.237712082981     1.007825032230
         H           -2.599650474819    -0.902435237935    -0.167333917019     1.007825032230
         H           -1.709964474819    -1.062035237935     1.378912082981     1.007825032230
         H           -2.004923474819     1.382789762065     1.211164082981     1.007825032230
         H            1.414959525181     0.763072762065    -1.417075917019     1.007825032230
         H            2.183051525181    -0.795283237935    -0.986757917019     1.007825032230
         H           -0.646537474819    -3.018117237935    -0.502676917019     1.007825032230
         H           -1.555784474819     2.309068762065    -0.853313917019     1.007825032230
         H            3.489593525181     1.096785762065    -0.421466917019     1.007825032230

  Basis Set: AUG-CC-PVTZ
    Blend: AUG-CC-PVTZ
  Basis Set: (AUG-CC-PVTZ AUX)
    Blend: AUG-CC-PVTZ-JKFIT
	 Reference Energy          =    -494.7812921488595634 [Eh]
	 Singles Energy            =      -0.0000000000000000 [Eh]
	 Same-Spin Energy          =      -0.4828133979262054 [Eh]
	 Opposite-Spin Energy      =      -1.5127598932081199 [Eh]
	 Correlation Energy        =      -1.9955732911343254 [Eh]
	 Total Energy              =    -496.7768654399939123 [Eh]

	 ================> DF-SCS-MP2 Energies <==================
	-----------------------------------------------------------
	 SCS Same-Spin Scale       =       0.3333333333333333 [-]
	 SCS Opposite-Spin Scale   =       1.2000000000000000 [-]
	 SCS Same-Spin Energy      =      -0.1609377993087351 [Eh]
	 SCS Opposite-Spin Energy  =      -1.8153118718497439 [Eh]
	 SCS Correlation Energy    =      -1.9762496711584789 [Eh]
	 SCS Total Energy          =    -496.7575418200180479 [Eh]
	-----------------------------------------------------------

  Dipole Moment: [D]
     X:    -1.1573      Y:    -0.5698      Z:    -1.8570     Total:     2.2611

*** Psi4 exiting successfully. Buy a developer a beer!
