                               Psi4 1.3.2 release

  ==> Input File <==

--------------------------------------------------------------------------
#psi4
#
memory 32 gb

molecule  {
0 1
  O       -0.0714414     0.9807306     0.6952683
  O        0.0027630    -2.4368280    -0.0631460
  O       -1.8013270     1.3609940    -0.8558510
  O        2.7706710     0.8423760     0.1830720
  C       -0.3978190    -1.0935740    -0.3143580
  C        0.6336520    -0.1707830     0.3242940
  C       -1.6840130    -0.6458300     0.3680790
  C       -1.4616990     0.8497080     0.4211840
  C        1.7909010     0.1493410    -0.5832570
  H       -0.4628000    -0.8966240    -1.3943000
  H        1.0128680    -0.6537370     1.2378340
  H       -2.6003960    -0.9046920    -0.1672120
  H       -1.7107100    -1.0642920     1.3790340
  H       -2.0056690     1.3805330     1.2112860
  H        1.4142140     0.7608160    -1.4169540
  H        2.1823060    -0.7975400    -0.9866360
  H       -0.6472830    -3.0203740    -0.5025550
  H       -1.5565300     2.3068120    -0.8531920
  H        3.4888480     1.0945290    -0.4213450
units angstrom
no_reorient  #important for SAPT in psi4, default
symmetry c1  #important for SAPT in psi4, default
}

set PROPERTIES_ORIGIN ["COM"]
properties('MP2/aug-cc-pvtz', properties = ['dipole'])
--------------------------------------------------------------------------

    Molecular point group: c1
  Charge       = 0
  Multiplicity = 1
  Basis Set: AUG-CC-PVTZ
    Blend: AUG-CC-PVTZ
  Basis Set: (AUG-CC-PVTZ AUX)
    Blend: AUG-CC-PVTZ-JKFIT

    Orbital Energies [Eh]
    ---------------------

    Doubly Occupied:

       1A    -20.571656     2A    -20.570531     3A    -20.557225
       4A    -20.556763     5A    -11.339603     6A    -11.286440
       7A    -11.273686     8A    -11.272474     9A    -11.229379
      10A     -1.422433    11A     -1.368431    12A     -1.357078
      13A     -1.342020    14A     -1.060179    15A     -1.027212
      16A     -0.899014    17A     -0.824009    18A     -0.793201
      19A     -0.745856    20A     -0.702361    21A     -0.681871
      22A     -0.676939    23A     -0.643382    24A     -0.631157
      25A     -0.616764    26A     -0.578433    27A     -0.565738
      28A     -0.554581    29A     -0.534994    30A     -0.521448
      31A     -0.507698    32A     -0.486235    33A     -0.459058
      34A     -0.446647    35A     -0.441510    36A     -0.425619

  @DF-RHF Final Energy:  -494.78206497125558

   => Energetics <=

    Nuclear Repulsion Energy =            510.5057942368543991
    One-Electron Energy =               -1692.6324654564582488
    Two-Electron Energy =                 687.3446062483482137
    Total Energy =                       -494.7820649712556360
  Basis Set: (AUG-CC-PVTZ AUX)
    Blend: AUG-CC-PVTZ-RI
    Molecular point group: c1

    Geometry (in Angstrom), charge = 0, multiplicity = 1:

       Center              X                  Y                   Z               Mass
    ------------   -----------------  -----------------  -----------------  -----------------
         O           -0.072084816197     0.986621383564     0.695178889907    15.994914619570
         O            0.002119583803    -2.430937216436    -0.063235410093    15.994914619570
         O           -1.801970416197     1.366884783564    -0.855940410093    15.994914619570
         O            2.770027583803     0.848266783564     0.182982589907    15.994914619570
         C           -0.398462416197    -1.087683216436    -0.314447410093    12.000000000000
         C            0.633008583803    -0.164892216436     0.324204589907    12.000000000000
         C           -1.684656416197    -0.639939216436     0.367989589907    12.000000000000
         C           -1.462342416197     0.855598783564     0.421094589907    12.000000000000
         C            1.790257583803     0.155231783564    -0.583346410093    12.000000000000
         H           -0.463443416197    -0.890733216436    -1.394389410093     1.007825032230
         H            1.012224583803    -0.647846216436     1.237744589907     1.007825032230
         H           -2.601039416197    -0.898801216436    -0.167301410093     1.007825032230
         H           -1.711353416197    -1.058401216436     1.378944589907     1.007825032230
         H           -2.006312416197     1.386423783564     1.211196589907     1.007825032230
         H            1.413570583803     0.766706783564    -1.417043410093     1.007825032230
         H            2.181662583803    -0.791649216436    -0.986725410093     1.007825032230
         H           -0.647926416197    -3.014483216436    -0.502644410093     1.007825032230
         H           -1.557173416197     2.312702783564    -0.853281410093     1.007825032230
         H            3.488204583803     1.100419783564    -0.421434410093     1.007825032230

  Basis Set: AUG-CC-PVTZ
    Blend: AUG-CC-PVTZ
  Basis Set: (AUG-CC-PVTZ AUX)
    Blend: AUG-CC-PVTZ-JKFIT
	 Reference Energy          =    -494.7820649712555792 [Eh]
	 Singles Energy            =      -0.0000000000000000 [Eh]
	 Same-Spin Energy          =      -0.4827368483730683 [Eh]
	 Opposite-Spin Energy      =      -1.5119763755266162 [Eh]
	 Correlation Energy        =      -1.9947132238996845 [Eh]
	 Total Energy              =    -496.7767781951552593 [Eh]

	 ================> DF-SCS-MP2 Energies <==================
	-----------------------------------------------------------
	 SCS Same-Spin Scale       =       0.3333333333333333 [-]
	 SCS Opposite-Spin Scale   =       1.2000000000000000 [-]
	 SCS Same-Spin Energy      =      -0.1609122827910228 [Eh]
	 SCS Opposite-Spin Energy  =      -1.8143716506319394 [Eh]
	 SCS Correlation Energy    =      -1.9752839334229622 [Eh]
	 SCS Total Energy          =    -496.7573489046785653 [Eh]
	-----------------------------------------------------------

  Dipole Moment: [D]
     X:    -1.2472      Y:    -0.3173      Z:    -1.8473     Total:     2.2514

*** Psi4 exiting successfully. Buy a developer a beer!
