                               Psi4 1.3.2 release

  ==> Input File <==

--------------------------------------------------------------------------
#psi4
#
memory 32 gb

molecule  {
0 1
  O       -0.0768340     1.0301030     0.6945190
  O        0.0027630    -2.4368280    -0.0631460
  O       -1.8013270     1.3609940    -0.8558510
  O        2.7706710     0.8423760     0.1830720
  C       -0.3978190    -1.0935740    -0.3143580
  C        0.6336520    -0.1707830     0.3242940
  C       -1.6840130    -0.6458300     0.3680790
  C       -1.4616990     0.8497080     0.4211840
  C        1.7909010     0.1493410    -0.5832570
  H       -0.4628000    -0.8966240    -1.3943000
  H        1.0128680    -0.6537370     1.2378340
  H       -2.6124499    -0.9233266    -0.1362070
  H       -1.7107100    -1.0642920     1.3790340
  H       -2.0056690     1.3805330     1.2112860
  H        1.4142140     0.7608160    -1.4169540
  H        2.1823060    -0.7975400    -0.9866360
  H       -0.6472830    -3.0203740    -0.5025550
  H       -1.5565300     2.3068120    -0.8531920
  H        3.4888480     1.0945290    -0.4213450
units angstrom
no_reorient  #important for SAPT in psi4, default
symmetry c1  #important for SAPT in psi4, default
}

set PROPERTIES_ORIGIN ["COM"]
properties('MP2/aug-cc-pvtz', properties = ['dipole'])
--------------------------------------------------------------------------

    Molecular point group: c1
  Charge       = 0
  Multiplicity = 1
  Basis Set: AUG-CC-PVTZ
    Blend: AUG-CC-PVTZ
  Basis Set: (AUG-CC-PVTZ AUX)
    Blend: AUG-CC-PVTZ-JKFIT

    Orbital Energies [Eh]
    ---------------------

    Doubly Occupied:

       1A    -20.572300     2A    -20.569009     3A    -20.558505
       4A    -20.558023     5A    -11.337419     6A    -11.289076
       7A    -11.277160     8A    -11.275289     9A    -11.230356
      10A     -1.415229    11A     -1.369863    12A     -1.356961
      13A     -1.335091    14A     -1.063163    15A     -1.025237
      16A     -0.897497    17A     -0.821891    18A     -0.794299
      19A     -0.743898    20A     -0.701144    21A     -0.682727
      22A     -0.674918    23A     -0.642239    24A     -0.629164
      25A     -0.616819    26A     -0.573369    27A     -0.564525
      28A     -0.556052    29A     -0.534950    30A     -0.520040
      31A     -0.507124    32A     -0.484867    33A     -0.462568
      34A     -0.447696    35A     -0.441536    36A     -0.429651

  @DF-RHF Final Energy:  -494.78158700488859

   => Energetics <=

    Nuclear Repulsion Energy =            509.3022227431167721
    One-Electron Energy =               -1690.2483084620637328
    Two-Electron Energy =                 686.1644987140583680
    Total Energy =                       -494.7815870048885927
  Basis Set: (AUG-CC-PVTZ AUX)
    Blend: AUG-CC-PVTZ-RI
    Molecular point group: c1

    Geometry (in Angstrom), charge = 0, multiplicity = 1:

       Center              X                  Y                   Z               Mass
    ------------   -----------------  -----------------  -----------------  -----------------
         O           -0.076743387152     1.030243082892     0.694285901066    15.994914619570
         O            0.002853612848    -2.436687917108    -0.063379098934    15.994914619570
         O           -1.801236387152     1.361134082892    -0.856084098934    15.994914619570
         O            2.770761612848     0.842516082892     0.182838901066    15.994914619570
         C           -0.397728387152    -1.093433917108    -0.314591098934    12.000000000000
         C            0.633742612848    -0.170642917108     0.324060901066    12.000000000000
         C           -1.683922387152    -0.645689917108     0.367845901066    12.000000000000
         C           -1.461608387152     0.849848082892     0.420950901066    12.000000000000
         C            1.790991612848     0.149481082892    -0.583490098934    12.000000000000
         H           -0.462709387152    -0.896483917108    -1.394533098934     1.007825032230
         H            1.012958612848    -0.653596917108     1.237600901066     1.007825032230
         H           -2.612359287152    -0.923186517108    -0.136440098934     1.007825032230
         H           -1.710619387152    -1.064151917108     1.378800901066     1.007825032230
         H           -2.005578387152     1.380673082892     1.211052901066     1.007825032230
         H            1.414304612848     0.760956082892    -1.417187098934     1.007825032230
         H            2.182396612848    -0.797399917108    -0.986869098934     1.007825032230
         H           -0.647192387152    -3.020233917108    -0.502788098934     1.007825032230
         H           -1.556439387152     2.306952082892    -0.853425098934     1.007825032230
         H            3.488938612848     1.094669082892    -0.421578098934     1.007825032230

  Basis Set: AUG-CC-PVTZ
    Blend: AUG-CC-PVTZ
  Basis Set: (AUG-CC-PVTZ AUX)
    Blend: AUG-CC-PVTZ-JKFIT
	 Reference Energy          =    -494.7815870048885927 [Eh]
	 Singles Energy            =      -0.0000000000000000 [Eh]
	 Same-Spin Energy          =      -0.4828327157654209 [Eh]
	 Opposite-Spin Energy      =      -1.5129437726014827 [Eh]
	 Correlation Energy        =      -1.9957764883669036 [Eh]
	 Total Energy              =    -496.7773634932555069 [Eh]

	 ================> DF-SCS-MP2 Energies <==================
	-----------------------------------------------------------
	 SCS Same-Spin Scale       =       0.3333333333333333 [-]
	 SCS Opposite-Spin Scale   =       1.2000000000000000 [-]
	 SCS Same-Spin Energy      =      -0.1609442385884736 [Eh]
	 SCS Opposite-Spin Energy  =      -1.8155325271217793 [Eh]
	 SCS Correlation Energy    =      -1.9764767657102529 [Eh]
	 SCS Total Energy          =    -496.7580637705988238 [Eh]
	-----------------------------------------------------------

  Dipole Moment: [D]
     X:    -1.1643      Y:    -0.4909      Z:    -1.8535     Total:     2.2433

*** Psi4 exiting successfully. Buy a developer a beer!
