                               Psi4 1.3.2 release

  ==> Input File <==

--------------------------------------------------------------------------
#psi4
#
memory 32 gb

molecule  {
0 1
  O       -0.0768340     1.0301030     0.6945190
  O        0.0027630    -2.4368280    -0.0631460
  O       -1.8013270     1.3609940    -0.8558510
  O        2.7706710     0.8423760     0.1830720
  C       -0.3978190    -1.0935740    -0.3143580
  C        0.6526626    -0.1822989     0.3096757
  C       -1.6840130    -0.6458300     0.3680790
  C       -1.4616990     0.8497080     0.4211840
  C        1.7909010     0.1493410    -0.5832570
  H       -0.4628000    -0.8966240    -1.3943000
  H        1.0128680    -0.6537370     1.2378340
  H       -2.6003960    -0.9046920    -0.1672120
  H       -1.7107100    -1.0642920     1.3790340
  H       -2.0056690     1.3805330     1.2112860
  H        1.4142140     0.7608160    -1.4169540
  H        2.1823060    -0.7975400    -0.9866360
  H       -0.6472830    -3.0203740    -0.5025550
  H       -1.5565300     2.3068120    -0.8531920
  H        3.4888480     1.0945290    -0.4213450
units angstrom
no_reorient  #important for SAPT in psi4, default
symmetry c1  #important for SAPT in psi4, default
}

set PROPERTIES_ORIGIN ["COM"]
properties('MP2/aug-cc-pvtz', properties = ['dipole'])
--------------------------------------------------------------------------

    Molecular point group: c1
  Charge       = 0
  Multiplicity = 1
  Basis Set: AUG-CC-PVTZ
    Blend: AUG-CC-PVTZ
  Basis Set: (AUG-CC-PVTZ AUX)
    Blend: AUG-CC-PVTZ-JKFIT

    Orbital Energies [Eh]
    ---------------------

    Doubly Occupied:

       1A    -20.572433     2A    -20.568072     3A    -20.558927
       4A    -20.555740     5A    -11.335862     6A    -11.289491
       7A    -11.277640     8A    -11.275659     9A    -11.230276
      10A     -1.410929    11A     -1.370193    12A     -1.357872
      13A     -1.330707    14A     -1.063295    15A     -1.028348
      16A     -0.898836    17A     -0.819798    18A     -0.794177
      19A     -0.742547    20A     -0.700985    21A     -0.682615
      22A     -0.673913    23A     -0.643265    24A     -0.627730
      25A     -0.616853    26A     -0.572419    27A     -0.563909
      28A     -0.555341    29A     -0.536295    30A     -0.519281
      31A     -0.505842    32A     -0.482862    33A     -0.464499
      34A     -0.448372    35A     -0.441035    36A     -0.431205

  @DF-RHF Final Energy:  -494.78043161862547

   => Energetics <=

    Nuclear Repulsion Energy =            509.1927356236678861
    One-Electron Energy =               -1690.0518892732698077
    Two-Electron Energy =                 686.0787220309764507
    Total Energy =                       -494.7804316186254709
  Basis Set: (AUG-CC-PVTZ AUX)
    Blend: AUG-CC-PVTZ-RI
    Molecular point group: c1

    Geometry (in Angstrom), charge = 0, multiplicity = 1:

       Center              X                  Y                   Z               Mass
    ------------   -----------------  -----------------  -----------------  -----------------
         O           -0.078535712755     1.031133820221     0.695827527494    15.994914619570
         O            0.001061287245    -2.435797179779    -0.061837472506    15.994914619570
         O           -1.803028712755     1.362024820221    -0.854542472506    15.994914619570
         O            2.768969287245     0.843406820221     0.184380527494    15.994914619570
         C           -0.399520712755    -1.092543179779    -0.313049472506    12.000000000000
         C            0.650960887245    -0.181268079779     0.310984227494    12.000000000000
         C           -1.685714712755    -0.644799179779     0.369387527494    12.000000000000
         C           -1.463400712755     0.850738820221     0.422492527494    12.000000000000
         C            1.789199287245     0.150371820221    -0.581948472506    12.000000000000
         H           -0.464501712755    -0.895593179779    -1.392991472506     1.007825032230
         H            1.011166287245    -0.652706179779     1.239142527494     1.007825032230
         H           -2.602097712755    -0.903661179779    -0.165903472506     1.007825032230
         H           -1.712411712755    -1.063261179779     1.380342527494     1.007825032230
         H           -2.007370712755     1.381563820221     1.212594527494     1.007825032230
         H            1.412512287245     0.761846820221    -1.415645472506     1.007825032230
         H            2.180604287245    -0.796509179779    -0.985327472506     1.007825032230
         H           -0.648984712755    -3.019343179779    -0.501246472506     1.007825032230
         H           -1.558231712755     2.307842820221    -0.851883472506     1.007825032230
         H            3.487146287245     1.095559820221    -0.420036472506     1.007825032230

  Basis Set: AUG-CC-PVTZ
    Blend: AUG-CC-PVTZ
  Basis Set: (AUG-CC-PVTZ AUX)
    Blend: AUG-CC-PVTZ-JKFIT
	 Reference Energy          =    -494.7804316186254709 [Eh]
	 Singles Energy            =      -0.0000000000000000 [Eh]
	 Same-Spin Energy          =      -0.4830203234740170 [Eh]
	 Opposite-Spin Energy      =      -1.5134125825134670 [Eh]
	 Correlation Energy        =      -1.9964329059874839 [Eh]
	 Total Energy              =    -496.7768645246129608 [Eh]

	 ================> DF-SCS-MP2 Energies <==================
	-----------------------------------------------------------
	 SCS Same-Spin Scale       =       0.3333333333333333 [-]
	 SCS Opposite-Spin Scale   =       1.2000000000000000 [-]
	 SCS Same-Spin Energy      =      -0.1610067744913390 [Eh]
	 SCS Opposite-Spin Energy  =      -1.8160950990161604 [Eh]
	 SCS Correlation Energy    =      -1.9771018735074994 [Eh]
	 SCS Total Energy          =    -496.7575334921329500 [Eh]
	-----------------------------------------------------------

  Dipole Moment: [D]
     X:    -1.0984      Y:    -0.5304      Z:    -1.8900     Total:     2.2494

*** Psi4 exiting successfully. Buy a developer a beer!
