                               Psi4 1.3.2 release

  ==> Input File <==

--------------------------------------------------------------------------
#psi4
#
memory 32 gb

molecule  {
0 1
  O       -0.0768340     1.0301030     0.6945190
  O        0.0027630    -2.4368280    -0.0631460
  O       -1.8013270     1.3609940    -0.8558510
  O        2.7706710     0.8423760     0.1830720
  C       -0.3978190    -1.0935740    -0.3143580
  C        0.6336520    -0.1707830     0.3242940
  C       -1.6840130    -0.6458300     0.3680790
  C       -1.4616990     0.8497080     0.4211840
  C        1.7909010     0.1493410    -0.5832570
  H       -0.4628000    -0.8966240    -1.3943000
  H        1.0128680    -0.6537370     1.2378340
  H       -2.6065635    -0.9140502    -0.1517887
  H       -1.7107100    -1.0642920     1.3790340
  H       -2.0056690     1.3805330     1.2112860
  H        1.4142140     0.7608160    -1.4169540
  H        2.1823060    -0.7975400    -0.9866360
  H       -0.6472830    -3.0203740    -0.5025550
  H       -1.5565300     2.3068120    -0.8531920
  H        3.4888480     1.0945290    -0.4213450
units angstrom
no_reorient  #important for SAPT in psi4, default
symmetry c1  #important for SAPT in psi4, default
}

set PROPERTIES_ORIGIN ["COM"]
properties('MP2/aug-cc-pvtz', properties = ['dipole'])
--------------------------------------------------------------------------

    Molecular point group: c1
  Charge       = 0
  Multiplicity = 1
  Basis Set: AUG-CC-PVTZ
    Blend: AUG-CC-PVTZ
  Basis Set: (AUG-CC-PVTZ AUX)
    Blend: AUG-CC-PVTZ-JKFIT

    Orbital Energies [Eh]
    ---------------------

    Doubly Occupied:

       1A    -20.572294     2A    -20.569073     3A    -20.558408
       4A    -20.557987     5A    -11.337302     6A    -11.288938
       7A    -11.277068     8A    -11.275249     9A    -11.230344
      10A     -1.415218    11A     -1.369858    12A     -1.356934
      13A     -1.335090    14A     -1.063238    15A     -1.025229
      16A     -0.897469    17A     -0.821574    18A     -0.794301
      19A     -0.743894    20A     -0.701174    21A     -0.682712
      22A     -0.674790    23A     -0.642279    24A     -0.628846
      25A     -0.616833    26A     -0.573440    27A     -0.564901
      28A     -0.556150    29A     -0.535621    30A     -0.519974
      31A     -0.506695    32A     -0.484686    33A     -0.462616
      34A     -0.447633    35A     -0.441499    36A     -0.429621

  @DF-RHF Final Energy:  -494.78167975386958

   => Energetics <=

    Nuclear Repulsion Energy =            509.3273240547214868
    One-Electron Energy =               -1690.3001339686575193
    Two-Electron Energy =                 686.1911301600664501
    Total Energy =                       -494.7816797538696392
  Basis Set: (AUG-CC-PVTZ AUX)
    Blend: AUG-CC-PVTZ-RI
    Molecular point group: c1

    Geometry (in Angstrom), charge = 0, multiplicity = 1:

       Center              X                  Y                   Z               Mass
    ------------   -----------------  -----------------  -----------------  -----------------
         O           -0.076787640127     1.030173344461     0.694403041691    15.994914619570
         O            0.002809359873    -2.436757655539    -0.063261958309    15.994914619570
         O           -1.801280640127     1.361064344461    -0.855966958309    15.994914619570
         O            2.770717359873     0.842446344461     0.182956041691    15.994914619570
         C           -0.397772640127    -1.093503655539    -0.314473958309    12.000000000000
         C            0.633698359873    -0.170712655539     0.324178041691    12.000000000000
         C           -1.683966640127    -0.645759655539     0.367963041691    12.000000000000
         C           -1.461652640127     0.849778344461     0.421068041691    12.000000000000
         C            1.790947359873     0.149411344461    -0.583372958309    12.000000000000
         H           -0.462753640127    -0.896553655539    -1.394415958309     1.007825032230
         H            1.012914359873    -0.653666655539     1.237718041691     1.007825032230
         H           -2.606517140127    -0.913979855539    -0.151904658309     1.007825032230
         H           -1.710663640127    -1.064221655539     1.378918041691     1.007825032230
         H           -2.005622640127     1.380603344461     1.211170041691     1.007825032230
         H            1.414260359873     0.760886344461    -1.417069958309     1.007825032230
         H            2.182352359873    -0.797469655539    -0.986751958309     1.007825032230
         H           -0.647236640127    -3.020303655539    -0.502670958309     1.007825032230
         H           -1.556483640127     2.306882344461    -0.853307958309     1.007825032230
         H            3.488894359873     1.094599344461    -0.421460958309     1.007825032230

  Basis Set: AUG-CC-PVTZ
    Blend: AUG-CC-PVTZ
  Basis Set: (AUG-CC-PVTZ AUX)
    Blend: AUG-CC-PVTZ-JKFIT
	 Reference Energy          =    -494.7816797538695823 [Eh]
	 Singles Energy            =      -0.0000000000000000 [Eh]
	 Same-Spin Energy          =      -0.4828440642283144 [Eh]
	 Opposite-Spin Energy      =      -1.5129654147017841 [Eh]
	 Correlation Energy        =      -1.9958094789300986 [Eh]
	 Total Energy              =    -496.7774892327996668 [Eh]

	 ================> DF-SCS-MP2 Energies <==================
	-----------------------------------------------------------
	 SCS Same-Spin Scale       =       0.3333333333333333 [-]
	 SCS Opposite-Spin Scale   =       1.2000000000000000 [-]
	 SCS Same-Spin Energy      =      -0.1609480214094381 [Eh]
	 SCS Opposite-Spin Energy  =      -1.8155584976421408 [Eh]
	 SCS Correlation Energy    =      -1.9765065190515789 [Eh]
	 SCS Total Energy          =    -496.7581862729211366 [Eh]
	-----------------------------------------------------------

  Dipole Moment: [D]
     X:    -1.1630      Y:    -0.4871      Z:    -1.8580     Total:     2.2455

*** Psi4 exiting successfully. Buy a developer a beer!
