                               Psi4 1.4a3.dev225

  ==> Input File <==

--------------------------------------------------------------------------
#psi4
#
memory 32 gb

molecule  {
0 1
  O        0.0779330    -0.9269250    -0.8850860
  O       -0.5497830     2.4054250     0.0105510
  O       -1.2273040    -1.7124440     0.8968780
  O        2.8355650    -0.3742720    -0.2242840
  C       -0.6080970     1.0161320     0.3256370
  C        0.5731950     0.3283540    -0.3705440
  C       -1.8147930     0.2671960    -0.2390730
  C       -1.2435552    -1.1037523    -0.3933654
  C        1.7465980     0.1105970     0.5541480
  H       -0.5498730     0.8655980     1.4125560
  H        0.8905780     0.9380060    -1.2243810
  H       -2.6989340     0.2874680     0.4026800
  H       -2.0570860     0.6846600    -1.2212740
  H       -1.7431510    -1.7703690    -1.1193200
  H        1.4450650    -0.6065030     1.3308310
  H        1.9882130     1.0713000     1.0354480
  H       -1.2210140     2.8543510     0.5524830
  H       -0.6896120    -2.5214440     0.8182530
  H        3.5785240    -0.5383230     0.3798300
units angstrom
no_reorient  #important for SAPT in psi4, default
symmetry c1  #important for SAPT in psi4, default
}

set PROPERTIES_ORIGIN ["COM"]
properties('MP2/aug-cc-pvtz', properties = ['dipole'])
--------------------------------------------------------------------------

    Molecular point group: c1
  Charge       = 0
  Multiplicity = 1
  Basis Set: AUG-CC-PVTZ
    Blend: AUG-CC-PVTZ
  Basis Set: (AUG-CC-PVTZ AUX)
    Blend: AUG-CC-PVTZ-JKFIT

    Orbital Energies [Eh]
    ---------------------

    Doubly Occupied:

       1A    -20.571391     2A    -20.568095     3A    -20.559603
       4A    -20.558901     5A    -11.337104     6A    -11.290907
       7A    -11.277480     8A    -11.276460     9A    -11.229676
      10A     -1.416008    11A     -1.369845    12A     -1.357607
      13A     -1.333921    14A     -1.063741    15A     -1.026754
      16A     -0.898330    17A     -0.820219    18A     -0.795312
      19A     -0.742184    20A     -0.703441    21A     -0.682374
      22A     -0.675744    23A     -0.644992    24A     -0.627599
      25A     -0.613163    26A     -0.573755    27A     -0.564191
      28A     -0.558151    29A     -0.534820    30A     -0.521535
      31A     -0.508518    32A     -0.484960    33A     -0.464877
      34A     -0.449131    35A     -0.442507    36A     -0.428534

  @DF-RHF Final Energy:  -494.78121607016794

   => Energetics <=

    Nuclear Repulsion Energy =            511.1717500708596731
    One-Electron Energy =               -1693.9622745987210237
    Two-Electron Energy =                 688.0093084576934643
    Total Energy =                       -494.7812160701679431
  Basis Set: (AUG-CC-PVTZ AUX)
    Blend: AUG-CC-PVTZ-RI
    Molecular point group: c1

    Geometry (in Angstrom), charge = 0, multiplicity = 1:

       Center              X                  Y                   Z               Mass
    ------------   -----------------  -----------------  -----------------  -----------------
         O            0.070836013348    -0.919231295563    -0.867759389483    15.994914619570
         O           -0.556879986652     2.413118704437     0.027877610517    15.994914619570
         O           -1.234400986652    -1.704750295563     0.914204610517    15.994914619570
         O            2.828468013348    -0.366578295563    -0.206957389483    15.994914619570
         C           -0.615193986652     1.023825704437     0.342963610517    12.000000000000
         C            0.566098013348     0.336047704437    -0.353217389483    12.000000000000
         C           -1.821889986652     0.274889704437    -0.221746389483    12.000000000000
         C           -1.250652186652    -1.096058595563    -0.376038789483    12.000000000000
         C            1.739501013348     0.118290704437     0.571474610517    12.000000000000
         H           -0.556969986652     0.873291704437     1.429882610517     1.007825032230
         H            0.883481013348     0.945699704437    -1.207054389483     1.007825032230
         H           -2.706030986652     0.295161704437     0.420006610517     1.007825032230
         H           -2.064182986652     0.692353704437    -1.203947389483     1.007825032230
         H           -1.750247986652    -1.762675295563    -1.101993389483     1.007825032230
         H            1.437968013348    -0.598809295563     1.348157610517     1.007825032230
         H            1.981116013348     1.078993704437     1.052774610517     1.007825032230
         H           -1.228110986652     2.862044704437     0.569809610517     1.007825032230
         H           -0.696708986652    -2.513750295563     0.835579610517     1.007825032230
         H            3.571427013348    -0.530629295563     0.397156610517     1.007825032230

  Basis Set: AUG-CC-PVTZ
    Blend: AUG-CC-PVTZ
  Basis Set: (AUG-CC-PVTZ AUX)
    Blend: AUG-CC-PVTZ-JKFIT
	 Reference Energy          =    -494.7812160701679431 [Eh]
	 Singles Energy            =      -0.0000000000000000 [Eh]
	 Same-Spin Energy          =      -0.4830050824201093 [Eh]
	 Opposite-Spin Energy      =      -1.5135131532178827 [Eh]
	 Correlation Energy        =      -1.9965182356379920 [Eh]
	 Total Energy              =    -496.7777343058059500 [Eh]

	 ================> DF-SCS-MP2 Energies <==================
	-----------------------------------------------------------
	 SCS Same-Spin Scale       =       0.3333333333333333 [-]
	 SCS Opposite-Spin Scale   =       1.2000000000000000 [-]
	 SCS Same-Spin Energy      =      -0.1610016941400364 [Eh]
	 SCS Opposite-Spin Energy  =      -1.8162157838614592 [Eh]
	 SCS Correlation Energy    =      -1.9772174780014957 [Eh]
	 SCS Total Energy          =    -496.7584335481694211 [Eh]
	-----------------------------------------------------------

  Dipole Moment: [D]
     X:    -1.0360      Y:     0.2105      Z:     2.2498     Total:     2.4858

*** Psi4 exiting successfully. Buy a developer a beer!
