                               Psi4 1.3.2 release

  ==> Input File <==

--------------------------------------------------------------------------
#psi4
#
memory 32 gb

molecule  {
0 1
  O       -0.0768340     1.0301030     0.6945190
  O        0.0027630    -2.4368280    -0.0631460
  O       -1.8013270     1.3609940    -0.8558510
  O        2.7706710     0.8423760     0.1830720
  C       -0.3978190    -1.0935740    -0.3143580
  C        0.6336520    -0.1707830     0.3242940
  C       -1.6840130    -0.6458300     0.3680790
  C       -1.5514617     0.8612553     0.3667735
  C        1.7909010     0.1493410    -0.5832570
  H       -0.4628000    -0.8966240    -1.3943000
  H        1.0128680    -0.6537370     1.2378340
  H       -2.6003960    -0.9046920    -0.1672120
  H       -1.7107100    -1.0642920     1.3790340
  H       -2.0056690     1.3805330     1.2112860
  H        1.4142140     0.7608160    -1.4169540
  H        2.1823060    -0.7975400    -0.9866360
  H       -0.6472830    -3.0203740    -0.5025550
  H       -1.5565300     2.3068120    -0.8531920
  H        3.4888480     1.0945290    -0.4213450
units angstrom
no_reorient  #important for SAPT in psi4, default
symmetry c1  #important for SAPT in psi4, default
}

set PROPERTIES_ORIGIN ["COM"]
properties('MP2/aug-cc-pvtz', properties = ['dipole'])
--------------------------------------------------------------------------

    Molecular point group: c1
  Charge       = 0
  Multiplicity = 1
  Basis Set: AUG-CC-PVTZ
    Blend: AUG-CC-PVTZ
  Basis Set: (AUG-CC-PVTZ AUX)
    Blend: AUG-CC-PVTZ-JKFIT

    Orbital Energies [Eh]
    ---------------------

    Doubly Occupied:

       1A    -20.585106     2A    -20.571149     3A    -20.553973
       4A    -20.541749     5A    -11.340884     6A    -11.286921
       7A    -11.270625     8A    -11.268695     9A    -11.231953
      10A     -1.427110    11A     -1.370581    12A     -1.353526
      13A     -1.322850    14A     -1.059056    15A     -1.018453
      16A     -0.897948    17A     -0.820862    18A     -0.790239
      19A     -0.756224    20A     -0.696419    21A     -0.688296
      22A     -0.669010    23A     -0.638757    24A     -0.631417
      25A     -0.622452    26A     -0.573291    27A     -0.563065
      28A     -0.553274    29A     -0.539413    30A     -0.517242
      31A     -0.496816    32A     -0.484255    33A     -0.449387
      34A     -0.444548    35A     -0.441826    36A     -0.420589

  @DF-RHF Final Energy:  -494.77207655697526

   => Energetics <=

    Nuclear Repulsion Energy =            508.4683994687779887
    One-Electron Energy =               -1688.6850307047343449
    Two-Electron Energy =                 685.4445546789810351
    Total Energy =                       -494.7720765569753212
  Basis Set: (AUG-CC-PVTZ AUX)
    Blend: AUG-CC-PVTZ-RI
    Molecular point group: c1

    Geometry (in Angstrom), charge = 0, multiplicity = 1:

       Center              X                  Y                   Z               Mass
    ------------   -----------------  -----------------  -----------------  -----------------
         O           -0.068799027977     1.029069351198     0.699389468779    15.994914619570
         O            0.010797972023    -2.437861648802    -0.058275531221    15.994914619570
         O           -1.793292027977     1.359960351198    -0.850980531221    15.994914619570
         O            2.778705972023     0.841342351198     0.187942468779    15.994914619570
         C           -0.389784027977    -1.094607648802    -0.309487531221    12.000000000000
         C            0.641686972023    -0.171816648802     0.329164468779    12.000000000000
         C           -1.675978027977    -0.646863648802     0.372949468779    12.000000000000
         C           -1.543426727977     0.860221651198     0.371643968779    12.000000000000
         C            1.798935972023     0.148307351198    -0.578386531221    12.000000000000
         H           -0.454765027977    -0.897657648802    -1.389429531221     1.007825032230
         H            1.020902972023    -0.654770648802     1.242704468779     1.007825032230
         H           -2.592361027977    -0.905725648802    -0.162341531221     1.007825032230
         H           -1.702675027977    -1.065325648802     1.383904468779     1.007825032230
         H           -1.997634027977     1.379499351198     1.216156468779     1.007825032230
         H            1.422248972023     0.759782351198    -1.412083531221     1.007825032230
         H            2.190340972023    -0.798573648802    -0.981765531221     1.007825032230
         H           -0.639248027977    -3.021407648802    -0.497684531221     1.007825032230
         H           -1.548495027977     2.305778351198    -0.848321531221     1.007825032230
         H            3.496882972023     1.093495351198    -0.416474531221     1.007825032230

  Basis Set: AUG-CC-PVTZ
    Blend: AUG-CC-PVTZ
  Basis Set: (AUG-CC-PVTZ AUX)
    Blend: AUG-CC-PVTZ-JKFIT
	 Reference Energy          =    -494.7720765569752643 [Eh]
	 Singles Energy            =      -0.0000000000000000 [Eh]
	 Same-Spin Energy          =      -0.4835113668769592 [Eh]
	 Opposite-Spin Energy      =      -1.5140156961286024 [Eh]
	 Correlation Energy        =      -1.9975270630055615 [Eh]
	 Total Energy              =    -496.7696036199808418 [Eh]

	 ================> DF-SCS-MP2 Energies <==================
	-----------------------------------------------------------
	 SCS Same-Spin Scale       =       0.3333333333333333 [-]
	 SCS Opposite-Spin Scale   =       1.2000000000000000 [-]
	 SCS Same-Spin Energy      =      -0.1611704556256530 [Eh]
	 SCS Opposite-Spin Energy  =      -1.8168188353543229 [Eh]
	 SCS Correlation Energy    =      -1.9779892909799759 [Eh]
	 SCS Total Energy          =    -496.7500658479552271 [Eh]
	-----------------------------------------------------------

  Dipole Moment: [D]
     X:    -1.6972      Y:    -0.2635      Z:    -2.1725     Total:     2.7694

*** Psi4 exiting successfully. Buy a developer a beer!
