                               Psi4 1.3.2 release

  ==> Input File <==

--------------------------------------------------------------------------
#psi4
#
memory 32 gb

molecule  {
0 1
  O       -0.0768340     1.0301030     0.6945190
  O        0.0027630    -2.4368280    -0.0631460
  O       -1.8013270     1.3609940    -0.8558510
  O        2.7706710     0.8423760     0.1830720
  C       -0.3978190    -1.0935740    -0.3143580
  C        0.6336520    -0.1707830     0.3242940
  C       -1.6187816    -0.6953530     0.5048858
  C       -1.4616990     0.8497080     0.4211840
  C        1.7909010     0.1493410    -0.5832570
  H       -0.4628000    -0.8966240    -1.3943000
  H        1.0128680    -0.6537370     1.2378340
  H       -2.6003960    -0.9046920    -0.1672120
  H       -1.7107100    -1.0642920     1.3790340
  H       -2.0056690     1.3805330     1.2112860
  H        1.4142140     0.7608160    -1.4169540
  H        2.1823060    -0.7975400    -0.9866360
  H       -0.6472830    -3.0203740    -0.5025550
  H       -1.5565300     2.3068120    -0.8531920
  H        3.4888480     1.0945290    -0.4213450
units angstrom
no_reorient  #important for SAPT in psi4, default
symmetry c1  #important for SAPT in psi4, default
}

set PROPERTIES_ORIGIN ["COM"]
properties('MP2/aug-cc-pvtz', properties = ['dipole'])
--------------------------------------------------------------------------

    Molecular point group: c1
  Charge       = 0
  Multiplicity = 1
  Basis Set: AUG-CC-PVTZ
    Blend: AUG-CC-PVTZ
  Basis Set: (AUG-CC-PVTZ AUX)
    Blend: AUG-CC-PVTZ-JKFIT

    Orbital Energies [Eh]
    ---------------------

    Doubly Occupied:

       1A    -20.572934     2A    -20.570111     3A    -20.557751
       4A    -20.556154     5A    -11.340117     6A    -11.290014
       7A    -11.275895     8A    -11.274782     9A    -11.232092
      10A     -1.414818    11A     -1.369702    12A     -1.356745
      13A     -1.335746    14A     -1.062560    15A     -1.023491
      16A     -0.896072    17A     -0.831904    18A     -0.790788
      19A     -0.748180    20A     -0.699735    21A     -0.682483
      22A     -0.672463    23A     -0.642841    24A     -0.631012
      25A     -0.619257    26A     -0.580455    27A     -0.570421
      28A     -0.559293    29A     -0.547208    30A     -0.518196
      31A     -0.494882    32A     -0.475950    33A     -0.459396
      34A     -0.446466    35A     -0.435729    36A     -0.428370

  @DF-RHF Final Energy:  -494.74944689537483

   => Energetics <=

    Nuclear Repulsion Energy =            509.1510991476095001
    One-Electron Energy =               -1689.8730658127053630
    Two-Electron Energy =                 685.9725197697209751
    Total Energy =                       -494.7494468953748310
  Basis Set: (AUG-CC-PVTZ AUX)
    Blend: AUG-CC-PVTZ-RI
    Molecular point group: c1

    Geometry (in Angstrom), charge = 0, multiplicity = 1:

       Center              X                  Y                   Z               Mass
    ------------   -----------------  -----------------  -----------------  -----------------
         O           -0.082673100880     1.034535970859     0.682272928468    15.994914619570
         O           -0.003076100880    -2.432395029141    -0.075392071532    15.994914619570
         O           -1.807166100880     1.365426970859    -0.868097071532    15.994914619570
         O            2.764831899120     0.846808970859     0.170825928468    15.994914619570
         C           -0.403658100880    -1.089141029141    -0.326604071532    12.000000000000
         C            0.627812899120    -0.166350029141     0.312047928468    12.000000000000
         C           -1.624620700880    -0.690920029141     0.492639728468    12.000000000000
         C           -1.467538100880     0.854140970859     0.408937928468    12.000000000000
         C            1.785061899120     0.153773970859    -0.595503071532    12.000000000000
         H           -0.468639100880    -0.892191029141    -1.406546071532     1.007825032230
         H            1.007028899120    -0.649304029141     1.225587928468     1.007825032230
         H           -2.606235100880    -0.900259029141    -0.179458071532     1.007825032230
         H           -1.716549100880    -1.059859029141     1.366787928468     1.007825032230
         H           -2.011508100880     1.384965970859     1.199039928468     1.007825032230
         H            1.408374899120     0.765248970859    -1.429200071532     1.007825032230
         H            2.176466899120    -0.793107029141    -0.998882071532     1.007825032230
         H           -0.653122100880    -3.015941029141    -0.514801071532     1.007825032230
         H           -1.562369100880     2.311244970859    -0.865438071532     1.007825032230
         H            3.483008899120     1.098961970859    -0.433591071532     1.007825032230

  Basis Set: AUG-CC-PVTZ
    Blend: AUG-CC-PVTZ
  Basis Set: (AUG-CC-PVTZ AUX)
    Blend: AUG-CC-PVTZ-JKFIT
	 Reference Energy          =    -494.7494468953748310 [Eh]
	 Singles Energy            =      -0.0000000000000000 [Eh]
	 Same-Spin Energy          =      -0.4830713531639709 [Eh]
	 Opposite-Spin Energy      =      -1.5140682160993379 [Eh]
	 Correlation Energy        =      -1.9971395692633087 [Eh]
	 Total Energy              =    -496.7465864646381419 [Eh]

	 ================> DF-SCS-MP2 Energies <==================
	-----------------------------------------------------------
	 SCS Same-Spin Scale       =       0.3333333333333333 [-]
	 SCS Opposite-Spin Scale   =       1.2000000000000000 [-]
	 SCS Same-Spin Energy      =      -0.1610237843879903 [Eh]
	 SCS Opposite-Spin Energy  =      -1.8168818593192055 [Eh]
	 SCS Correlation Energy    =      -1.9779056437071958 [Eh]
	 SCS Total Energy          =    -496.7273525390820055 [Eh]
	-----------------------------------------------------------

  Dipole Moment: [D]
     X:    -1.0974      Y:    -0.4116      Z:    -1.8298     Total:     2.1730

*** Psi4 exiting successfully. Buy a developer a beer!
