                               Psi4 1.3.2 release

  ==> Input File <==

--------------------------------------------------------------------------
#psi4
#
memory 32 gb

molecule  {
0 1
  O       -0.0768340     1.0301030     0.6945190
  O       -0.0373340    -2.4424747    -0.0343184
  O       -1.8013270     1.3609940    -0.8558510
  O        2.7706710     0.8423760     0.1830720
  C       -0.3978190    -1.0935740    -0.3143580
  C        0.6336520    -0.1707830     0.3242940
  C       -1.6840130    -0.6458300     0.3680790
  C       -1.4616990     0.8497080     0.4211840
  C        1.7909010     0.1493410    -0.5832570
  H       -0.4628000    -0.8966240    -1.3943000
  H        1.0128680    -0.6537370     1.2378340
  H       -2.6003960    -0.9046920    -0.1672120
  H       -1.7107100    -1.0642920     1.3790340
  H       -2.0056690     1.3805330     1.2112860
  H        1.4142140     0.7608160    -1.4169540
  H        2.1823060    -0.7975400    -0.9866360
  H       -0.6472830    -3.0203740    -0.5025550
  H       -1.5565300     2.3068120    -0.8531920
  H        3.4888480     1.0945290    -0.4213450
units angstrom
no_reorient  #important for SAPT in psi4, default
symmetry c1  #important for SAPT in psi4, default
}

set PROPERTIES_ORIGIN ["COM"]
properties('MP2/aug-cc-pvtz', properties = ['dipole'])
--------------------------------------------------------------------------

    Molecular point group: c1
  Charge       = 0
  Multiplicity = 1
  Basis Set: AUG-CC-PVTZ
    Blend: AUG-CC-PVTZ
  Basis Set: (AUG-CC-PVTZ AUX)
    Blend: AUG-CC-PVTZ-JKFIT

    Orbital Energies [Eh]
    ---------------------

    Doubly Occupied:

       1A    -20.570155     2A    -20.568902     3A    -20.558446
       4A    -20.558404     5A    -11.336406     6A    -11.289196
       7A    -11.277526     8A    -11.275837     9A    -11.228887
      10A     -1.415161    11A     -1.372303    12A     -1.357392
      13A     -1.335139    14A     -1.063621    15A     -1.025283
      16A     -0.898096    17A     -0.821188    18A     -0.794392
      19A     -0.745290    20A     -0.701764    21A     -0.685805
      22A     -0.674811    23A     -0.643134    24A     -0.628426
      25A     -0.615047    26A     -0.573286    27A     -0.565419
      28A     -0.555830    29A     -0.536644    30A     -0.519650
      31A     -0.506604    32A     -0.485441    33A     -0.463444
      34A     -0.448033    35A     -0.439999    36A     -0.429693

  @DF-RHF Final Energy:  -494.78264712038515

   => Energetics <=

    Nuclear Repulsion Energy =            509.3868038728213037
    One-Electron Energy =               -1690.4095960630770605
    Two-Electron Energy =                 686.2401450698706640
    Total Energy =                       -494.7826471203851497
  Basis Set: (AUG-CC-PVTZ AUX)
    Blend: AUG-CC-PVTZ-RI
    Molecular point group: c1

    Geometry (in Angstrom), charge = 0, multiplicity = 1:

       Center              X                  Y                   Z               Mass
    ------------   -----------------  -----------------  -----------------  -----------------
         O           -0.072049894057     1.030776718458     0.691079470431    15.994914619570
         O           -0.032549894057    -2.441800981542    -0.037757929569    15.994914619570
         O           -1.796542894057     1.361667718458    -0.859290529569    15.994914619570
         O            2.775455105943     0.843049718458     0.179632470431    15.994914619570
         C           -0.393034894057    -1.092900281542    -0.317797529569    12.000000000000
         C            0.638436105943    -0.170109281542     0.320854470431    12.000000000000
         C           -1.679228894057    -0.645156281542     0.364639470431    12.000000000000
         C           -1.456914894057     0.850381718458     0.417744470431    12.000000000000
         C            1.795685105943     0.150014718458    -0.586696529569    12.000000000000
         H           -0.458015894057    -0.895950281542    -1.397739529569     1.007825032230
         H            1.017652105943    -0.653063281542     1.234394470431     1.007825032230
         H           -2.595611894057    -0.904018281542    -0.170651529569     1.007825032230
         H           -1.705925894057    -1.063618281542     1.375594470431     1.007825032230
         H           -2.000884894057     1.381206718458     1.207846470431     1.007825032230
         H            1.418998105943     0.761489718458    -1.420393529569     1.007825032230
         H            2.187090105943    -0.796866281542    -0.990075529569     1.007825032230
         H           -0.642498894057    -3.019700281542    -0.505994529569     1.007825032230
         H           -1.551745894057     2.307485718458    -0.856631529569     1.007825032230
         H            3.493632105943     1.095202718458    -0.424784529569     1.007825032230

  Basis Set: AUG-CC-PVTZ
    Blend: AUG-CC-PVTZ
  Basis Set: (AUG-CC-PVTZ AUX)
    Blend: AUG-CC-PVTZ-JKFIT
	 Reference Energy          =    -494.7826471203851497 [Eh]
	 Singles Energy            =      -0.0000000000000000 [Eh]
	 Same-Spin Energy          =      -0.4826361333175900 [Eh]
	 Opposite-Spin Energy      =      -1.5124260130559228 [Eh]
	 Correlation Energy        =      -1.9950621463735128 [Eh]
	 Total Energy              =    -496.7777092667586771 [Eh]

	 ================> DF-SCS-MP2 Energies <==================
	-----------------------------------------------------------
	 SCS Same-Spin Scale       =       0.3333333333333333 [-]
	 SCS Opposite-Spin Scale   =       1.2000000000000000 [-]
	 SCS Same-Spin Energy      =      -0.1608787111058633 [Eh]
	 SCS Opposite-Spin Energy  =      -1.8149112156671072 [Eh]
	 SCS Correlation Energy    =      -1.9757899267729706 [Eh]
	 SCS Total Energy          =    -496.7584370471581110 [Eh]
	-----------------------------------------------------------

  Dipole Moment: [D]
     X:    -1.0775      Y:    -0.4766      Z:    -1.9367     Total:     2.2669

*** Psi4 exiting successfully. Buy a developer a beer!
