                               Psi4 1.3.2 release

  ==> Input File <==

--------------------------------------------------------------------------
#psi4
#
memory 32 gb

molecule  {
0 1
  O       -0.0768340     1.0301030     0.6945190
  O        0.0027630    -2.4368280    -0.0631460
  O       -1.8013270     1.3609940    -0.8558510
  O        2.7706710     0.8423760     0.1830720
  C       -0.4899229    -1.1542852    -0.4294874
  C        0.6336520    -0.1707830     0.3242940
  C       -1.6840130    -0.6458300     0.3680790
  C       -1.4616990     0.8497080     0.4211840
  C        1.7909010     0.1493410    -0.5832570
  H       -0.4628000    -0.8966240    -1.3943000
  H        1.0128680    -0.6537370     1.2378340
  H       -2.6003960    -0.9046920    -0.1672120
  H       -1.7107100    -1.0642920     1.3790340
  H       -2.0056690     1.3805330     1.2112860
  H        1.4142140     0.7608160    -1.4169540
  H        2.1823060    -0.7975400    -0.9866360
  H       -0.6472830    -3.0203740    -0.5025550
  H       -1.5565300     2.3068120    -0.8531920
  H        3.4888480     1.0945290    -0.4213450
units angstrom
no_reorient  #important for SAPT in psi4, default
symmetry c1  #important for SAPT in psi4, default
}

set PROPERTIES_ORIGIN ["COM"]
properties('MP2/aug-cc-pvtz', properties = ['dipole'])
--------------------------------------------------------------------------

    Molecular point group: c1
  Charge       = 0
  Multiplicity = 1
  Basis Set: AUG-CC-PVTZ
    Blend: AUG-CC-PVTZ
  Basis Set: (AUG-CC-PVTZ AUX)
    Blend: AUG-CC-PVTZ-JKFIT

    Orbital Energies [Eh]
    ---------------------

    Doubly Occupied:

       1A    -20.578089     2A    -20.569425     3A    -20.555770
       4A    -20.555501     5A    -11.337049     6A    -11.287730
       7A    -11.278247     8A    -11.272213     9A    -11.231643
      10A     -1.411976    11A     -1.375281    12A     -1.354989
      13A     -1.332658    14A     -1.055722    15A     -1.015043
      16A     -0.894773    17A     -0.825801    18A     -0.791710
      19A     -0.742117    20A     -0.701249    21A     -0.682651
      22A     -0.670836    23A     -0.640991    24A     -0.628292
      25A     -0.620031    26A     -0.575563    27A     -0.569020
      28A     -0.559979    29A     -0.541739    30A     -0.515625
      31A     -0.497921    32A     -0.488272    33A     -0.458059
      34A     -0.444063    35A     -0.432012    36A     -0.419523

  @DF-RHF Final Energy:  -494.75515586236884

   => Energetics <=

    Nuclear Repulsion Energy =            507.3078509383911978
    One-Electron Energy =               -1686.3028885012847695
    Two-Electron Energy =                 684.2398817005248475
    Total Energy =                       -494.7551558623688379
  Basis Set: (AUG-CC-PVTZ AUX)
    Blend: AUG-CC-PVTZ-RI
    Molecular point group: c1

    Geometry (in Angstrom), charge = 0, multiplicity = 1:

       Center              X                  Y                   Z               Mass
    ------------   -----------------  -----------------  -----------------  -----------------
         O           -0.068589458842     1.035537466416     0.704824633377    15.994914619570
         O            0.011007541158    -2.431393533584    -0.052840366623    15.994914619570
         O           -1.793082458842     1.366428466416    -0.845545366623    15.994914619570
         O            2.778915541158     0.847810466416     0.193377633377    15.994914619570
         C           -0.481678358842    -1.148850733584    -0.419181766623    12.000000000000
         C            0.641896541158    -0.165348533584     0.334599633377    12.000000000000
         C           -1.675768458842    -0.640395533584     0.378384633377    12.000000000000
         C           -1.453454458842     0.855142466416     0.431489633377    12.000000000000
         C            1.799145541158     0.154775466416    -0.572951366623    12.000000000000
         H           -0.454555458842    -0.891189533584    -1.383994366623     1.007825032230
         H            1.021112541158    -0.648302533584     1.248139633377     1.007825032230
         H           -2.592151458842    -0.899257533584    -0.156906366623     1.007825032230
         H           -1.702465458842    -1.058857533584     1.389339633377     1.007825032230
         H           -1.997424458842     1.385967466416     1.221591633377     1.007825032230
         H            1.422458541158     0.766250466416    -1.406648366623     1.007825032230
         H            2.190550541158    -0.792105533584    -0.976330366623     1.007825032230
         H           -0.639038458842    -3.014939533584    -0.492249366623     1.007825032230
         H           -1.548285458842     2.312246466416    -0.842886366623     1.007825032230
         H            3.497092541158     1.099963466416    -0.411039366623     1.007825032230

  Basis Set: AUG-CC-PVTZ
    Blend: AUG-CC-PVTZ
  Basis Set: (AUG-CC-PVTZ AUX)
    Blend: AUG-CC-PVTZ-JKFIT
	 Reference Energy          =    -494.7551558623688379 [Eh]
	 Singles Energy            =      -0.0000000000000000 [Eh]
	 Same-Spin Energy          =      -0.4835448598607473 [Eh]
	 Opposite-Spin Energy      =      -1.5153601603827587 [Eh]
	 Correlation Energy        =      -1.9989050202435059 [Eh]
	 Total Energy              =    -496.7540608826123503 [Eh]

	 ================> DF-SCS-MP2 Energies <==================
	-----------------------------------------------------------
	 SCS Same-Spin Scale       =       0.3333333333333333 [-]
	 SCS Opposite-Spin Scale   =       1.2000000000000000 [-]
	 SCS Same-Spin Energy      =      -0.1611816199535824 [Eh]
	 SCS Opposite-Spin Energy  =      -1.8184321924593103 [Eh]
	 SCS Correlation Energy    =      -1.9796138124128928 [Eh]
	 SCS Total Energy          =    -496.7347696747817167 [Eh]
	-----------------------------------------------------------

  Dipole Moment: [D]
     X:    -1.2141      Y:    -0.5919      Z:    -1.9389     Total:     2.3630

*** Psi4 exiting successfully. Buy a developer a beer!
