                               Psi4 1.3.2 release

  ==> Input File <==

--------------------------------------------------------------------------
#psi4
#
memory 32 gb

molecule  {
0 1
  O       -0.0926724     1.1281286     0.6920226
  O        0.0027630    -2.4368280    -0.0631460
  O       -1.8013270     1.3609940    -0.8558510
  O        2.7706710     0.8423760     0.1830720
  C       -0.3978190    -1.0935740    -0.3143580
  C        0.6336520    -0.1707830     0.3242940
  C       -1.6840130    -0.6458300     0.3680790
  C       -1.4616990     0.8497080     0.4211840
  C        1.7909010     0.1493410    -0.5832570
  H       -0.4628000    -0.8966240    -1.3943000
  H        1.0128680    -0.6537370     1.2378340
  H       -2.6003960    -0.9046920    -0.1672120
  H       -1.7107100    -1.0642920     1.3790340
  H       -2.0056690     1.3805330     1.2112860
  H        1.4142140     0.7608160    -1.4169540
  H        2.1823060    -0.7975400    -0.9866360
  H       -0.6472830    -3.0203740    -0.5025550
  H       -1.5565300     2.3068120    -0.8531920
  H        3.4888480     1.0945290    -0.4213450
units angstrom
no_reorient  #important for SAPT in psi4, default
symmetry c1  #important for SAPT in psi4, default
}

set PROPERTIES_ORIGIN ["COM"]
properties('MP2/aug-cc-pvtz', properties = ['dipole'])
--------------------------------------------------------------------------

    Molecular point group: c1
  Charge       = 0
  Multiplicity = 1
  Basis Set: AUG-CC-PVTZ
    Blend: AUG-CC-PVTZ
  Basis Set: (AUG-CC-PVTZ AUX)
    Blend: AUG-CC-PVTZ-JKFIT

    Orbital Energies [Eh]
    ---------------------

    Doubly Occupied:

       1A    -20.575721     2A    -20.564218     3A    -20.560315
       4A    -20.559444     5A    -11.332920     6A    -11.293306
       7A    -11.285948     8A    -11.278625     9A    -11.232291
      10A     -1.404666    11A     -1.372933    12A     -1.357701
      13A     -1.319425    14A     -1.069971    15A     -1.022077
      16A     -0.895533    17A     -0.816263    18A     -0.796627
      19A     -0.740614    20A     -0.700039    21A     -0.684123
      22A     -0.670555    23A     -0.641456    24A     -0.623823
      25A     -0.616941    26A     -0.568847    27A     -0.562402
      28A     -0.556850    29A     -0.538393    30A     -0.517093
      31A     -0.503470    32A     -0.482949    33A     -0.466794
      34A     -0.449405    35A     -0.438845    36A     -0.435711

  @DF-RHF Final Energy:  -494.77212447298893

   => Energetics <=

    Nuclear Repulsion Energy =            507.1401945214223019
    One-Electron Energy =               -1685.9520538610588574
    Two-Electron Energy =                 684.0397348666476773
    Total Energy =                       -494.7721244729889349
  Basis Set: (AUG-CC-PVTZ AUX)
    Blend: AUG-CC-PVTZ-RI
    Molecular point group: c1

    Geometry (in Angstrom), charge = 0, multiplicity = 1:

       Center              X                  Y                   Z               Mass
    ------------   -----------------  -----------------  -----------------  -----------------
         O           -0.090782671862     1.116432816339     0.692320445645    15.994914619570
         O            0.004652728138    -2.448523783661    -0.062848154355    15.994914619570
         O           -1.799437271862     1.349298216339    -0.855553154355    15.994914619570
         O            2.772560728138     0.830680216339     0.183369845645    15.994914619570
         C           -0.395929271862    -1.105269783661    -0.314060154355    12.000000000000
         C            0.635541728138    -0.182478783661     0.324591845645    12.000000000000
         C           -1.682123271862    -0.657525783661     0.368376845645    12.000000000000
         C           -1.459809271862     0.838012216339     0.421481845645    12.000000000000
         C            1.792790728138     0.137645216339    -0.582959154355    12.000000000000
         H           -0.460910271862    -0.908319783661    -1.394002154355     1.007825032230
         H            1.014757728138    -0.665432783661     1.238131845645     1.007825032230
         H           -2.598506271862    -0.916387783661    -0.166914154355     1.007825032230
         H           -1.708820271862    -1.075987783661     1.379331845645     1.007825032230
         H           -2.003779271862     1.368837216339     1.211583845645     1.007825032230
         H            1.416103728138     0.749120216339    -1.416656154355     1.007825032230
         H            2.184195728138    -0.809235783661    -0.986338154355     1.007825032230
         H           -0.645393271862    -3.032069783661    -0.502257154355     1.007825032230
         H           -1.554640271862     2.295116216339    -0.852894154355     1.007825032230
         H            3.490737728138     1.082833216339    -0.421047154355     1.007825032230

  Basis Set: AUG-CC-PVTZ
    Blend: AUG-CC-PVTZ
  Basis Set: (AUG-CC-PVTZ AUX)
    Blend: AUG-CC-PVTZ-JKFIT
	 Reference Energy          =    -494.7721244729889349 [Eh]
	 Singles Energy            =      -0.0000000000000000 [Eh]
	 Same-Spin Energy          =      -0.4834212440085572 [Eh]
	 Opposite-Spin Energy      =      -1.5156256213046446 [Eh]
	 Correlation Energy        =      -1.9990468653132019 [Eh]
	 Total Energy              =    -496.7711713383021106 [Eh]

	 ================> DF-SCS-MP2 Energies <==================
	-----------------------------------------------------------
	 SCS Same-Spin Scale       =       0.3333333333333333 [-]
	 SCS Opposite-Spin Scale   =       1.2000000000000000 [-]
	 SCS Same-Spin Energy      =      -0.1611404146695191 [Eh]
	 SCS Opposite-Spin Energy  =      -1.8187507455655734 [Eh]
	 SCS Correlation Energy    =      -1.9798911602350924 [Eh]
	 SCS Total Energy          =    -496.7520156332240049 [Eh]
	-----------------------------------------------------------

  Dipole Moment: [D]
     X:    -0.9981      Y:    -0.7978      Z:    -1.8896     Total:     2.2810

*** Psi4 exiting successfully. Buy a developer a beer!
