                               Psi4 1.3.2 release

  ==> Input File <==

--------------------------------------------------------------------------
#psi4
#
memory 32 gb

molecule  {
0 1
  O       -0.0768340     1.0301030     0.6945190
  O        0.0027630    -2.4368280    -0.0631460
  O       -1.8013270     1.3609940    -0.8558510
  O        2.7706710     0.8423760     0.1830720
  C       -0.3978190    -1.0935740    -0.3143580
  C        0.6143272    -0.1595482     0.3387177
  C       -1.6840130    -0.6458300     0.3680790
  C       -1.4616990     0.8497080     0.4211840
  C        1.7909010     0.1493410    -0.5832570
  H       -0.4628000    -0.8966240    -1.3943000
  H        1.0128680    -0.6537370     1.2378340
  H       -2.6003960    -0.9046920    -0.1672120
  H       -1.7107100    -1.0642920     1.3790340
  H       -2.0056690     1.3805330     1.2112860
  H        1.4142140     0.7608160    -1.4169540
  H        2.1823060    -0.7975400    -0.9866360
  H       -0.6472830    -3.0203740    -0.5025550
  H       -1.5565300     2.3068120    -0.8531920
  H        3.4888480     1.0945290    -0.4213450
units angstrom
no_reorient  #important for SAPT in psi4, default
symmetry c1  #important for SAPT in psi4, default
}

set PROPERTIES_ORIGIN ["COM"]
properties('MP2/aug-cc-pvtz', properties = ['dipole'])
--------------------------------------------------------------------------

    Molecular point group: c1
  Charge       = 0
  Multiplicity = 1
  Basis Set: AUG-CC-PVTZ
    Blend: AUG-CC-PVTZ
  Basis Set: (AUG-CC-PVTZ AUX)
    Blend: AUG-CC-PVTZ-JKFIT

    Orbital Energies [Eh]
    ---------------------

    Doubly Occupied:

       1A    -20.572176     2A    -20.570218     3A    -20.560803
       4A    -20.556977     5A    -11.338517     6A    -11.288196
       7A    -11.276519     8A    -11.274677     9A    -11.230417
      10A     -1.420014    11A     -1.369554    12A     -1.356117
      13A     -1.339163    14A     -1.063693    15A     -1.022126
      16A     -0.896036    17A     -0.822833    18A     -0.794379
      19A     -0.745332    20A     -0.701812    21A     -0.682745
      22A     -0.675262    23A     -0.641611    24A     -0.629421
      25A     -0.616814    26A     -0.576236    27A     -0.565440
      28A     -0.556997    29A     -0.536210    30A     -0.520701
      31A     -0.506885    32A     -0.486375    33A     -0.460425
      34A     -0.446646    35A     -0.441628    36A     -0.427100

  @DF-RHF Final Energy:  -494.78157154715308

   => Energetics <=

    Nuclear Repulsion Energy =            509.5219933703449442
    One-Electron Energy =               -1690.6670200795949768
    Two-Electron Energy =                 686.3634551620968978
    Total Energy =                       -494.7815715471531348
  Basis Set: (AUG-CC-PVTZ AUX)
    Blend: AUG-CC-PVTZ-RI
    Molecular point group: c1

    Geometry (in Angstrom), charge = 0, multiplicity = 1:

       Center              X                  Y                   Z               Mass
    ------------   -----------------  -----------------  -----------------  -----------------
         O           -0.075104174816     1.029097324184     0.693227874828    15.994914619570
         O            0.004492825184    -2.437833675816    -0.064437125172    15.994914619570
         O           -1.799597174816     1.359988324184    -0.857142125172    15.994914619570
         O            2.772400825184     0.841370324184     0.181780874828    15.994914619570
         C           -0.396089174816    -1.094579675816    -0.315649125172    12.000000000000
         C            0.616057025184    -0.160553875816     0.337426574828    12.000000000000
         C           -1.682283174816    -0.646835675816     0.366787874828    12.000000000000
         C           -1.459969174816     0.848702324184     0.419892874828    12.000000000000
         C            1.792630825184     0.148335324184    -0.584548125172    12.000000000000
         H           -0.461070174816    -0.897629675816    -1.395591125172     1.007825032230
         H            1.014597825184    -0.654742675816     1.236542874828     1.007825032230
         H           -2.598666174816    -0.905697675816    -0.168503125172     1.007825032230
         H           -1.708980174816    -1.065297675816     1.377742874828     1.007825032230
         H           -2.003939174816     1.379527324184     1.209994874828     1.007825032230
         H            1.415943825184     0.759810324184    -1.418245125172     1.007825032230
         H            2.184035825184    -0.798545675816    -0.987927125172     1.007825032230
         H           -0.645553174816    -3.021379675816    -0.503846125172     1.007825032230
         H           -1.554800174816     2.305806324184    -0.854483125172     1.007825032230
         H            3.490577825184     1.093523324184    -0.422636125172     1.007825032230

  Basis Set: AUG-CC-PVTZ
    Blend: AUG-CC-PVTZ
  Basis Set: (AUG-CC-PVTZ AUX)
    Blend: AUG-CC-PVTZ-JKFIT
	 Reference Energy          =    -494.7815715471530780 [Eh]
	 Singles Energy            =      -0.0000000000000000 [Eh]
	 Same-Spin Energy          =      -0.4827683273271597 [Eh]
	 Opposite-Spin Energy      =      -1.5126806659483205 [Eh]
	 Correlation Energy        =      -1.9954489932754802 [Eh]
	 Total Energy              =    -496.7770205404285662 [Eh]

	 ================> DF-SCS-MP2 Energies <==================
	-----------------------------------------------------------
	 SCS Same-Spin Scale       =       0.3333333333333333 [-]
	 SCS Opposite-Spin Scale   =       1.2000000000000000 [-]
	 SCS Same-Spin Energy      =      -0.1609227757757199 [Eh]
	 SCS Opposite-Spin Energy  =      -1.8152167991379846 [Eh]
	 SCS Correlation Energy    =      -1.9761395749137045 [Eh]
	 SCS Total Energy          =    -496.7577111220667803 [Eh]
	-----------------------------------------------------------

  Dipole Moment: [D]
     X:    -1.2267      Y:    -0.4354      Z:    -1.8348     Total:     2.2496

*** Psi4 exiting successfully. Buy a developer a beer!
