                               Psi4 1.3.2 release

  ==> Input File <==

--------------------------------------------------------------------------
#psi4
#
memory 32 gb

molecule  {
0 1
  O       -0.0768340     1.0301030     0.6945190
  O        0.0027630    -2.4368280    -0.0631460
  O       -1.8013270     1.3609940    -0.8558510
  O        2.7706710     0.8423760     0.1830720
  C       -0.3978190    -1.0935740    -0.3143580
  C        0.6336520    -0.1707830     0.3242940
  C       -1.6840130    -0.6458300     0.3680790
  C       -1.4323100     1.0474123     0.4282043
  C        1.7909010     0.1493410    -0.5832570
  H       -0.4628000    -0.8966240    -1.3943000
  H        1.0128680    -0.6537370     1.2378340
  H       -2.6003960    -0.9046920    -0.1672120
  H       -1.7107100    -1.0642920     1.3790340
  H       -2.0056690     1.3805330     1.2112860
  H        1.4142140     0.7608160    -1.4169540
  H        2.1823060    -0.7975400    -0.9866360
  H       -0.6472830    -3.0203740    -0.5025550
  H       -1.5565300     2.3068120    -0.8531920
  H        3.4888480     1.0945290    -0.4213450
units angstrom
no_reorient  #important for SAPT in psi4, default
symmetry c1  #important for SAPT in psi4, default
}

set PROPERTIES_ORIGIN ["COM"]
properties('MP2/aug-cc-pvtz', properties = ['dipole'])
--------------------------------------------------------------------------

    Molecular point group: c1
  Charge       = 0
  Multiplicity = 1
  Basis Set: AUG-CC-PVTZ
    Blend: AUG-CC-PVTZ
  Basis Set: (AUG-CC-PVTZ AUX)
    Blend: AUG-CC-PVTZ-JKFIT

    Orbital Energies [Eh]
    ---------------------

    Doubly Occupied:

       1A    -20.583782     2A    -20.568017     3A    -20.558661
       4A    -20.558427     5A    -11.340351     6A    -11.283000
       7A    -11.279837     8A    -11.276089     9A    -11.223019
      10A     -1.433064    11A     -1.370094    12A     -1.359635
      13A     -1.348173    14A     -1.052377    15A     -1.004950
      16A     -0.897781    17A     -0.823128    18A     -0.796822
      19A     -0.746417    20A     -0.698265    21A     -0.690272
      22A     -0.676182    23A     -0.649841    24A     -0.638916
      25A     -0.618320    26A     -0.583352    27A     -0.566182
      28A     -0.552729    29A     -0.529672    30A     -0.523564
      31A     -0.509928    32A     -0.466756    33A     -0.456774
      34A     -0.448432    35A     -0.437917    36A     -0.401378

  @DF-RHF Final Energy:  -494.74669210821622

   => Energetics <=

    Nuclear Repulsion Energy =            507.9311463366364592
    One-Electron Energy =               -1687.4514730038436028
    Two-Electron Energy =                 684.7736345589909206
    Total Energy =                       -494.7466921082162798
  Basis Set: (AUG-CC-PVTZ AUX)
    Blend: AUG-CC-PVTZ-RI
    Molecular point group: c1

    Geometry (in Angstrom), charge = 0, multiplicity = 1:

       Center              X                  Y                   Z               Mass
    ------------   -----------------  -----------------  -----------------  -----------------
         O           -0.079464720235     1.012405776329     0.693890579481    15.994914619570
         O            0.000132279765    -2.454525223671    -0.063774420519    15.994914619570
         O           -1.803957720235     1.343296776329    -0.856479420519    15.994914619570
         O            2.768040279765     0.824678776329     0.182443579481    15.994914619570
         C           -0.400449720235    -1.111271223671    -0.314986420519    12.000000000000
         C            0.631021279765    -0.188480223671     0.323665579481    12.000000000000
         C           -1.686643720235    -0.663527223671     0.367450579481    12.000000000000
         C           -1.434940720235     1.029715076329     0.427575879481    12.000000000000
         C            1.788270279765     0.131643776329    -0.583885420519    12.000000000000
         H           -0.465430720235    -0.914321223671    -1.394928420519     1.007825032230
         H            1.010237279765    -0.671434223671     1.237205579481     1.007825032230
         H           -2.603026720235    -0.922389223671    -0.167840420519     1.007825032230
         H           -1.713340720235    -1.081989223671     1.378405579481     1.007825032230
         H           -2.008299720235     1.362835776329     1.210657579481     1.007825032230
         H            1.411583279765     0.743118776329    -1.417582420519     1.007825032230
         H            2.179675279765    -0.815237223671    -0.987264420519     1.007825032230
         H           -0.649913720235    -3.038071223671    -0.503183420519     1.007825032230
         H           -1.559160720235     2.289114776329    -0.853820420519     1.007825032230
         H            3.486217279765     1.076831776329    -0.421973420519     1.007825032230

  Basis Set: AUG-CC-PVTZ
    Blend: AUG-CC-PVTZ
  Basis Set: (AUG-CC-PVTZ AUX)
    Blend: AUG-CC-PVTZ-JKFIT
	 Reference Energy          =    -494.7466921082162230 [Eh]
	 Singles Energy            =      -0.0000000000000000 [Eh]
	 Same-Spin Energy          =      -0.4834249506916752 [Eh]
	 Opposite-Spin Energy      =      -1.5141153795082087 [Eh]
	 Correlation Energy        =      -1.9975403301998840 [Eh]
	 Total Energy              =    -496.7442324384161338 [Eh]

	 ================> DF-SCS-MP2 Energies <==================
	-----------------------------------------------------------
	 SCS Same-Spin Scale       =       0.3333333333333333 [-]
	 SCS Opposite-Spin Scale   =       1.2000000000000000 [-]
	 SCS Same-Spin Energy      =      -0.1611416502305584 [Eh]
	 SCS Opposite-Spin Energy  =      -1.8169384554098504 [Eh]
	 SCS Correlation Energy    =      -1.9780801056404087 [Eh]
	 SCS Total Energy          =    -496.7247722138566246 [Eh]
	-----------------------------------------------------------

  Dipole Moment: [D]
     X:    -1.0699      Y:     0.0934      Z:    -1.9819     Total:     2.2542

*** Psi4 exiting successfully. Buy a developer a beer!
