                               Psi4 1.3.2 release

  ==> Input File <==

--------------------------------------------------------------------------
#psi4
#
memory 32 gb

molecule  {
0 1
  O       -0.0768340     1.0301030     0.6945190
  O        0.0027630    -2.4368280    -0.0631460
  O       -1.8013270     1.3609940    -0.8558510
  O        2.7706710     0.8423760     0.1830720
  C       -0.3978190    -1.0935740    -0.3143580
  C        0.5131993    -0.1077071     0.4077667
  C       -1.6840130    -0.6458300     0.3680790
  C       -1.4616990     0.8497080     0.4211840
  C        1.7909010     0.1493410    -0.5832570
  H       -0.4628000    -0.8966240    -1.3943000
  H        1.0128680    -0.6537370     1.2378340
  H       -2.6003960    -0.9046920    -0.1672120
  H       -1.7107100    -1.0642920     1.3790340
  H       -2.0056690     1.3805330     1.2112860
  H        1.4142140     0.7608160    -1.4169540
  H        2.1823060    -0.7975400    -0.9866360
  H       -0.6472830    -3.0203740    -0.5025550
  H       -1.5565300     2.3068120    -0.8531920
  H        3.4888480     1.0945290    -0.4213450
units angstrom
no_reorient  #important for SAPT in psi4, default
symmetry c1  #important for SAPT in psi4, default
}

set PROPERTIES_ORIGIN ["COM"]
properties('MP2/aug-cc-pvtz', properties = ['dipole'])
--------------------------------------------------------------------------

    Molecular point group: c1
  Charge       = 0
  Multiplicity = 1
  Basis Set: AUG-CC-PVTZ
    Blend: AUG-CC-PVTZ
  Basis Set: (AUG-CC-PVTZ AUX)
    Blend: AUG-CC-PVTZ-JKFIT

    Orbital Energies [Eh]
    ---------------------

    Doubly Occupied:

       1A    -20.576038     2A    -20.572992     3A    -20.572116
       4A    -20.551862     5A    -11.345642     6A    -11.286465
       7A    -11.277888     8A    -11.269887     9A    -11.231537
      10A     -1.453824    11A     -1.368993    12A     -1.362309
      13A     -1.345891    14A     -1.069356    15A     -1.008964
      16A     -0.888790    17A     -0.832159    18A     -0.794349
      19A     -0.753659    20A     -0.711257    21A     -0.681553
      22A     -0.676688    23A     -0.643753    24A     -0.634356
      25A     -0.616745    26A     -0.593175    27A     -0.563365
      28A     -0.560389    29A     -0.536053    30A     -0.525993
      31A     -0.513410    32A     -0.495547    33A     -0.452443
      34A     -0.441184    35A     -0.438099    36A     -0.399660

  @DF-RHF Final Energy:  -494.75879465098268

   => Energetics <=

    Nuclear Repulsion Energy =            510.5007370148637733
    One-Electron Energy =               -1692.4262814982087093
    Two-Electron Energy =                 687.1667498323622567
    Total Energy =                       -494.7587946509827361
  Basis Set: (AUG-CC-PVTZ AUX)
    Blend: AUG-CC-PVTZ-RI
    Molecular point group: c1

    Geometry (in Angstrom), charge = 0, multiplicity = 1:

       Center              X                  Y                   Z               Mass
    ------------   -----------------  -----------------  -----------------  -----------------
         O           -0.066051856972     1.024456843025     0.687047053365    15.994914619570
         O            0.013545143028    -2.442474156975    -0.070617946635    15.994914619570
         O           -1.790544856972     1.355347843025    -0.863322946635    15.994914619570
         O            2.781453143028     0.836729843025     0.175600053365    15.994914619570
         C           -0.387036856972    -1.099220156975    -0.321829946635    12.000000000000
         C            0.523981443028    -0.113353256975     0.400294753365    12.000000000000
         C           -1.673230856972    -0.651476156975     0.360607053365    12.000000000000
         C           -1.450916856972     0.844061843025     0.413712053365    12.000000000000
         C            1.801683143028     0.143694843025    -0.590728946635    12.000000000000
         H           -0.452017856972    -0.902270156975    -1.401771946635     1.007825032230
         H            1.023650143028    -0.659383156975     1.230362053365     1.007825032230
         H           -2.589613856972    -0.910338156975    -0.174683946635     1.007825032230
         H           -1.699927856972    -1.069938156975     1.371562053365     1.007825032230
         H           -1.994886856972     1.374886843025     1.203814053365     1.007825032230
         H            1.424996143028     0.755169843025    -1.424425946635     1.007825032230
         H            2.193088143028    -0.803186156975    -0.994107946635     1.007825032230
         H           -0.636500856972    -3.026020156975    -0.510026946635     1.007825032230
         H           -1.545747856972     2.301165843025    -0.860663946635     1.007825032230
         H            3.499630143028     1.088882843025    -0.428816946635     1.007825032230

  Basis Set: AUG-CC-PVTZ
    Blend: AUG-CC-PVTZ
  Basis Set: (AUG-CC-PVTZ AUX)
    Blend: AUG-CC-PVTZ-JKFIT
	 Reference Energy          =    -494.7587946509826793 [Eh]
	 Singles Energy            =      -0.0000000000000000 [Eh]
	 Same-Spin Energy          =      -0.4833943430691504 [Eh]
	 Opposite-Spin Energy      =      -1.5128534008351258 [Eh]
	 Correlation Energy        =      -1.9962477439042761 [Eh]
	 Total Energy              =    -496.7550423948869707 [Eh]

	 ================> DF-SCS-MP2 Energies <==================
	-----------------------------------------------------------
	 SCS Same-Spin Scale       =       0.3333333333333333 [-]
	 SCS Opposite-Spin Scale   =       1.2000000000000000 [-]
	 SCS Same-Spin Energy      =      -0.1611314476897168 [Eh]
	 SCS Opposite-Spin Energy  =      -1.8154240810021509 [Eh]
	 SCS Correlation Energy    =      -1.9765555286918677 [Eh]
	 SCS Total Energy          =    -496.7353501796745263 [Eh]
	-----------------------------------------------------------

  Dipole Moment: [D]
     X:    -1.5957      Y:    -0.1799      Z:    -1.6917     Total:     2.3325

*** Psi4 exiting successfully. Buy a developer a beer!
