                               Psi4 1.3.2 release

  ==> Input File <==

--------------------------------------------------------------------------
#psi4
#
memory 32 gb

molecule  {
0 1
  O       -0.0768340     1.0301030     0.6945190
  O        0.0027630    -2.4368280    -0.0631460
  O       -1.8013270     1.3609940    -0.8558510
  O        2.7706710     0.8423760     0.1830720
  C       -0.3198069    -1.0279572    -0.1917516
  C        0.6336520    -0.1707830     0.3242940
  C       -1.6840130    -0.6458300     0.3680790
  C       -1.4616990     0.8497080     0.4211840
  C        1.7909010     0.1493410    -0.5832570
  H       -0.4628000    -0.8966240    -1.3943000
  H        1.0128680    -0.6537370     1.2378340
  H       -2.6003960    -0.9046920    -0.1672120
  H       -1.7107100    -1.0642920     1.3790340
  H       -2.0056690     1.3805330     1.2112860
  H        1.4142140     0.7608160    -1.4169540
  H        2.1823060    -0.7975400    -0.9866360
  H       -0.6472830    -3.0203740    -0.5025550
  H       -1.5565300     2.3068120    -0.8531920
  H        3.4888480     1.0945290    -0.4213450
units angstrom
no_reorient  #important for SAPT in psi4, default
symmetry c1  #important for SAPT in psi4, default
}

set PROPERTIES_ORIGIN ["COM"]
properties('MP2/aug-cc-pvtz', properties = ['dipole'])
--------------------------------------------------------------------------

    Molecular point group: c1
  Charge       = 0
  Multiplicity = 1
  Basis Set: AUG-CC-PVTZ
    Blend: AUG-CC-PVTZ
  Basis Set: (AUG-CC-PVTZ AUX)
    Blend: AUG-CC-PVTZ-JKFIT

    Orbital Energies [Eh]
    ---------------------

    Doubly Occupied:

       1A    -20.569188     2A    -20.566261     3A    -20.562617
       4A    -20.560257     5A    -11.338346     6A    -11.295425
       7A    -11.279076     8A    -11.274231     9A    -11.233559
      10A     -1.420482    11A     -1.361718    12A     -1.355675
      13A     -1.337805    14A     -1.082258    15A     -1.035425
      16A     -0.905987    17A     -0.828371    18A     -0.789943
      19A     -0.746557    20A     -0.707158    21A     -0.683664
      22A     -0.670384    23A     -0.641765    24A     -0.631680
      25A     -0.613474    26A     -0.575747    27A     -0.567020
      28A     -0.555654    29A     -0.538881    30A     -0.519721
      31A     -0.512473    32A     -0.481120    33A     -0.473062
      34A     -0.449833    35A     -0.442068    36A     -0.413135

  @DF-RHF Final Energy:  -494.75074302364635

   => Energetics <=

    Nuclear Repulsion Energy =            511.3264054116368129
    One-Electron Energy =               -1694.1142536946579185
    Two-Electron Energy =                 688.0371052593746981
    Total Energy =                       -494.7507430236463506
  Basis Set: (AUG-CC-PVTZ AUX)
    Blend: AUG-CC-PVTZ-RI
    Molecular point group: c1

    Geometry (in Angstrom), charge = 0, multiplicity = 1:

       Center              X                  Y                   Z               Mass
    ------------   -----------------  -----------------  -----------------  -----------------
         O           -0.083817146773     1.024229398033     0.683544056755    15.994914619570
         O           -0.004220146773    -2.442701601967    -0.074120943245    15.994914619570
         O           -1.808310146773     1.355120398033    -0.866825943245    15.994914619570
         O            2.763687853227     0.836502398033     0.172097056755    15.994914619570
         C           -0.326790046773    -1.033830801967    -0.202726543245    12.000000000000
         C            0.626668853227    -0.176656601967     0.313319056755    12.000000000000
         C           -1.690996146773    -0.651703601967     0.357104056755    12.000000000000
         C           -1.468682146773     0.843834398033     0.410209056755    12.000000000000
         C            1.783917853227     0.143467398033    -0.594231943245    12.000000000000
         H           -0.469783146773    -0.902497601967    -1.405274943245     1.007825032230
         H            1.005884853227    -0.659610601967     1.226859056755     1.007825032230
         H           -2.607379146773    -0.910565601967    -0.178186943245     1.007825032230
         H           -1.717693146773    -1.070165601967     1.368059056755     1.007825032230
         H           -2.012652146773     1.374659398033     1.200311056755     1.007825032230
         H            1.407230853227     0.754942398033    -1.427928943245     1.007825032230
         H            2.175322853227    -0.803413601967    -0.997610943245     1.007825032230
         H           -0.654266146773    -3.026247601967    -0.513529943245     1.007825032230
         H           -1.563513146773     2.300938398033    -0.864166943245     1.007825032230
         H            3.481864853227     1.088655398033    -0.432319943245     1.007825032230

  Basis Set: AUG-CC-PVTZ
    Blend: AUG-CC-PVTZ
  Basis Set: (AUG-CC-PVTZ AUX)
    Blend: AUG-CC-PVTZ-JKFIT
	 Reference Energy          =    -494.7507430236463506 [Eh]
	 Singles Energy            =      -0.0000000000000000 [Eh]
	 Same-Spin Energy          =      -0.4844296602357887 [Eh]
	 Opposite-Spin Energy      =      -1.5151698636237150 [Eh]
	 Correlation Energy        =      -1.9995995238595037 [Eh]
	 Total Energy              =    -496.7503425475058521 [Eh]

	 ================> DF-SCS-MP2 Energies <==================
	-----------------------------------------------------------
	 SCS Same-Spin Scale       =       0.3333333333333333 [-]
	 SCS Opposite-Spin Scale   =       1.2000000000000000 [-]
	 SCS Same-Spin Energy      =      -0.1614765534119296 [Eh]
	 SCS Opposite-Spin Energy  =      -1.8182038363484578 [Eh]
	 SCS Correlation Energy    =      -1.9796803897603874 [Eh]
	 SCS Total Energy          =    -496.7304234134067542 [Eh]
	-----------------------------------------------------------

  Dipole Moment: [D]
     X:    -1.1169      Y:    -0.2995      Z:    -1.7048     Total:     2.0600

*** Psi4 exiting successfully. Buy a developer a beer!
