                               Psi4 1.3.2 release

  ==> Input File <==

--------------------------------------------------------------------------
#psi4
#
memory 32 gb

molecule  {
0 1
  O       -0.0768340     1.0301030     0.6945190
  O        0.0027630    -2.4368280    -0.0631460
  O       -1.8013270     1.3609940    -0.8558510
  O        2.7706710     0.8423760     0.1830720
  C       -0.3978190    -1.0935740    -0.3143580
  C        0.6336520    -0.1707830     0.3242940
  C       -1.6840130    -0.6458300     0.3680790
  C       -1.4616990     0.8497080     0.4211840
  C        1.7909010     0.1493410    -0.5832570
  H       -0.4628000    -0.8966240    -1.3943000
  H        1.0128680    -0.6537370     1.2378340
  H       -2.6842843    -0.9283890    -0.2162141
  H       -1.7107100    -1.0642920     1.3790340
  H       -2.0056690     1.3805330     1.2112860
  H        1.4142140     0.7608160    -1.4169540
  H        2.1823060    -0.7975400    -0.9866360
  H       -0.6472830    -3.0203740    -0.5025550
  H       -1.5565300     2.3068120    -0.8531920
  H        3.4888480     1.0945290    -0.4213450
units angstrom
no_reorient  #important for SAPT in psi4, default
symmetry c1  #important for SAPT in psi4, default
}

set PROPERTIES_ORIGIN ["COM"]
properties('MP2/aug-cc-pvtz', properties = ['dipole'])
--------------------------------------------------------------------------

    Molecular point group: c1
  Charge       = 0
  Multiplicity = 1
  Basis Set: AUG-CC-PVTZ
    Blend: AUG-CC-PVTZ
  Basis Set: (AUG-CC-PVTZ AUX)
    Blend: AUG-CC-PVTZ-JKFIT

    Orbital Energies [Eh]
    ---------------------

    Doubly Occupied:

       1A    -20.572574     2A    -20.569107     3A    -20.559375
       4A    -20.558422     5A    -11.338186     6A    -11.289758
       7A    -11.277902     8A    -11.275796     9A    -11.241766
      10A     -1.415813    11A     -1.370144    12A     -1.357349
      13A     -1.335555    14A     -1.061661    15A     -1.024323
      16A     -0.897800    17A     -0.816435    18A     -0.794257
      19A     -0.744427    20A     -0.700555    21A     -0.682420
      22A     -0.672830    23A     -0.642568    24A     -0.625848
      25A     -0.616281    26A     -0.573428    27A     -0.561263
      28A     -0.556741    29A     -0.535179    30A     -0.518938
      31A     -0.501943    32A     -0.484505    33A     -0.462182
      34A     -0.447979    35A     -0.442099    36A     -0.430130

  @DF-RHF Final Energy:  -494.77492294184935

   => Energetics <=

    Nuclear Repulsion Energy =            508.8388266953699031
    One-Electron Energy =               -1689.3164287471322496
    Two-Electron Energy =                 685.7026791099131060
    Total Energy =                       -494.7749229418493542
  Basis Set: (AUG-CC-PVTZ AUX)
    Blend: AUG-CC-PVTZ-RI
    Molecular point group: c1

    Geometry (in Angstrom), charge = 0, multiplicity = 1:

       Center              X                  Y                   Z               Mass
    ------------   -----------------  -----------------  -----------------  -----------------
         O           -0.076203348096     1.030281141172     0.694887381119    15.994914619570
         O            0.003393651904    -2.436649858828    -0.062777618881    15.994914619570
         O           -1.800696348096     1.361172141172    -0.855482618881    15.994914619570
         O            2.771301651904     0.842554141172     0.183440381119    15.994914619570
         C           -0.397188348096    -1.093395858828    -0.313989618881    12.000000000000
         C            0.634282651904    -0.170604858828     0.324662381119    12.000000000000
         C           -1.683382348096    -0.645651858828     0.368447381119    12.000000000000
         C           -1.461068348096     0.849886141172     0.421552381119    12.000000000000
         C            1.791531651904     0.149519141172    -0.582888618881    12.000000000000
         H           -0.462169348096    -0.896445858828    -1.393931618881     1.007825032230
         H            1.013498651904    -0.653558858828     1.238202381119     1.007825032230
         H           -2.683653648096    -0.928210858828    -0.215845718881     1.007825032230
         H           -1.710079348096    -1.064113858828     1.379402381119     1.007825032230
         H           -2.005038348096     1.380711141172     1.211654381119     1.007825032230
         H            1.414844651904     0.760994141172    -1.416585618881     1.007825032230
         H            2.182936651904    -0.797361858828    -0.986267618881     1.007825032230
         H           -0.646652348096    -3.020195858828    -0.502186618881     1.007825032230
         H           -1.555899348096     2.306990141172    -0.852823618881     1.007825032230
         H            3.489478651904     1.094707141172    -0.420976618881     1.007825032230

  Basis Set: AUG-CC-PVTZ
    Blend: AUG-CC-PVTZ
  Basis Set: (AUG-CC-PVTZ AUX)
    Blend: AUG-CC-PVTZ-JKFIT
	 Reference Energy          =    -494.7749229418493542 [Eh]
	 Singles Energy            =      -0.0000000000000000 [Eh]
	 Same-Spin Energy          =      -0.4829194922619188 [Eh]
	 Opposite-Spin Energy      =      -1.5137843660478683 [Eh]
	 Correlation Energy        =      -1.9967038583097869 [Eh]
	 Total Energy              =    -496.7716268001591402 [Eh]

	 ================> DF-SCS-MP2 Energies <==================
	-----------------------------------------------------------
	 SCS Same-Spin Scale       =       0.3333333333333333 [-]
	 SCS Opposite-Spin Scale   =       1.2000000000000000 [-]
	 SCS Same-Spin Energy      =      -0.1609731640873062 [Eh]
	 SCS Opposite-Spin Energy  =      -1.8165412392574418 [Eh]
	 SCS Correlation Energy    =      -1.9775144033447480 [Eh]
	 SCS Total Energy          =    -496.7524373451940960 [Eh]
	-----------------------------------------------------------

  Dipole Moment: [D]
     X:    -1.1086      Y:    -0.4607      Z:    -1.8567     Total:     2.2110

*** Psi4 exiting successfully. Buy a developer a beer!
