                               Psi4 1.3.2 release

  ==> Input File <==

--------------------------------------------------------------------------
#psi4
#
memory 32 gb

molecule  {
0 1
  O       -0.0768340     1.0301030     0.6945190
  O        0.0027630    -2.4368280    -0.0631460
  O       -1.8013270     1.3609940    -0.8558510
  O        2.7706710     0.8423760     0.1830720
  C       -0.3978190    -1.0935740    -0.3143580
  C        0.7428037    -0.2439692     0.2338241
  C       -1.6840130    -0.6458300     0.3680790
  C       -1.4616990     0.8497080     0.4211840
  C        1.7909010     0.1493410    -0.5832570
  H       -0.4628000    -0.8966240    -1.3943000
  H        1.0128680    -0.6537370     1.2378340
  H       -2.6003960    -0.9046920    -0.1672120
  H       -1.7107100    -1.0642920     1.3790340
  H       -2.0056690     1.3805330     1.2112860
  H        1.4142140     0.7608160    -1.4169540
  H        2.1823060    -0.7975400    -0.9866360
  H       -0.6472830    -3.0203740    -0.5025550
  H       -1.5565300     2.3068120    -0.8531920
  H        3.4888480     1.0945290    -0.4213450
units angstrom
no_reorient  #important for SAPT in psi4, default
symmetry c1  #important for SAPT in psi4, default
}

set PROPERTIES_ORIGIN ["COM"]
properties('MP2/aug-cc-pvtz', properties = ['dipole'])
--------------------------------------------------------------------------

    Molecular point group: c1
  Charge       = 0
  Multiplicity = 1
  Basis Set: AUG-CC-PVTZ
    Blend: AUG-CC-PVTZ
  Basis Set: (AUG-CC-PVTZ AUX)
    Blend: AUG-CC-PVTZ-JKFIT

    Orbital Energies [Eh]
    ---------------------

    Doubly Occupied:

       1A    -20.573677     2A    -20.564062     3A    -20.562639
       4A    -20.540989     5A    -11.328921     6A    -11.294114
       7A    -11.283859     8A    -11.277379     9A    -11.230260
      10A     -1.395327    11A     -1.372277    12A     -1.363671
      13A     -1.307093    14A     -1.071882    15A     -1.040466
      16A     -0.905696    17A     -0.813826    18A     -0.792636
      19A     -0.736855    20A     -0.703692    21A     -0.683138
      22A     -0.668501    23A     -0.650716    24A     -0.625255
      25A     -0.616274    26A     -0.578294    27A     -0.556098
      28A     -0.546667    29A     -0.534347    30A     -0.520204
      31A     -0.504598    32A     -0.481119    33A     -0.463821
      34A     -0.449238    35A     -0.433132    36A     -0.430541

  @DF-RHF Final Energy:  -494.75425743426223

   => Energetics <=

    Nuclear Repulsion Energy =            508.5030579122881704
    One-Electron Energy =               -1688.7121018441187061
    Two-Electron Energy =                 685.4547864975683069
    Total Energy =                       -494.7542574342622856
  Basis Set: (AUG-CC-PVTZ AUX)
    Blend: AUG-CC-PVTZ-RI
    Molecular point group: c1

    Geometry (in Angstrom), charge = 0, multiplicity = 1:

       Center              X                  Y                   Z               Mass
    ------------   -----------------  -----------------  -----------------  -----------------
         O           -0.086604563072     1.036654148015     0.702617273866    15.994914619570
         O           -0.007007563072    -2.430276851985    -0.055047726134    15.994914619570
         O           -1.811097563072     1.367545148015    -0.847752726134    15.994914619570
         O            2.760900436928     0.848927148015     0.191170273866    15.994914619570
         C           -0.407589563072    -1.087022851985    -0.306259726134    12.000000000000
         C            0.733033136928    -0.237418051985     0.241922373866    12.000000000000
         C           -1.693783563072    -0.639278851985     0.376177273866    12.000000000000
         C           -1.471469563072     0.856259148015     0.429282273866    12.000000000000
         C            1.781130436928     0.155892148015    -0.575158726134    12.000000000000
         H           -0.472570563072    -0.890072851985    -1.386201726134     1.007825032230
         H            1.003097436928    -0.647185851985     1.245932273866     1.007825032230
         H           -2.610166563072    -0.898140851985    -0.159113726134     1.007825032230
         H           -1.720480563072    -1.057740851985     1.387132273866     1.007825032230
         H           -2.015439563072     1.387084148015     1.219384273866     1.007825032230
         H            1.404443436928     0.767367148015    -1.408855726134     1.007825032230
         H            2.172535436928    -0.790988851985    -0.978537726134     1.007825032230
         H           -0.657053563072    -3.013822851985    -0.494456726134     1.007825032230
         H           -1.566300563072     2.313363148015    -0.845093726134     1.007825032230
         H            3.479077436928     1.101080148015    -0.413246726134     1.007825032230

  Basis Set: AUG-CC-PVTZ
    Blend: AUG-CC-PVTZ
  Basis Set: (AUG-CC-PVTZ AUX)
    Blend: AUG-CC-PVTZ-JKFIT
	 Reference Energy          =    -494.7542574342622288 [Eh]
	 Singles Energy            =      -0.0000000000000000 [Eh]
	 Same-Spin Energy          =      -0.4848117644172054 [Eh]
	 Opposite-Spin Energy      =      -1.5169471729168076 [Eh]
	 Correlation Energy        =      -2.0017589373340128 [Eh]
	 Total Energy              =    -496.7560163715962176 [Eh]

	 ================> DF-SCS-MP2 Energies <==================
	-----------------------------------------------------------
	 SCS Same-Spin Scale       =       0.3333333333333333 [-]
	 SCS Opposite-Spin Scale   =       1.2000000000000000 [-]
	 SCS Same-Spin Energy      =      -0.1616039214724018 [Eh]
	 SCS Opposite-Spin Energy  =      -1.8203366075001690 [Eh]
	 SCS Correlation Energy    =      -1.9819405289725709 [Eh]
	 SCS Total Energy          =    -496.7361979632348152 [Eh]
	-----------------------------------------------------------

  Dipole Moment: [D]
     X:    -0.7930      Y:    -0.7612      Z:    -2.0366     Total:     2.3143

*** Psi4 exiting successfully. Buy a developer a beer!
