                               Psi4 1.3.2 release

  ==> Input File <==

--------------------------------------------------------------------------
#psi4
#
memory 32 gb

molecule  {
0 1
  O       -0.0768340     1.0301030     0.6945190
  O        0.0027630    -2.4368280    -0.0631460
  O       -1.8013270     1.3609940    -0.8558510
  O        2.7706710     0.8423760     0.1830720
  C       -0.3978190    -1.0935740    -0.3143580
  C        0.6336520    -0.1707830     0.3242940
  C       -1.7026562    -0.6303872     0.3207386
  C       -1.4616990     0.8497080     0.4211840
  C        1.7909010     0.1493410    -0.5832570
  H       -0.4628000    -0.8966240    -1.3943000
  H        1.0128680    -0.6537370     1.2378340
  H       -2.6003960    -0.9046920    -0.1672120
  H       -1.7107100    -1.0642920     1.3790340
  H       -2.0056690     1.3805330     1.2112860
  H        1.4142140     0.7608160    -1.4169540
  H        2.1823060    -0.7975400    -0.9866360
  H       -0.6472830    -3.0203740    -0.5025550
  H       -1.5565300     2.3068120    -0.8531920
  H        3.4888480     1.0945290    -0.4213450
units angstrom
no_reorient  #important for SAPT in psi4, default
symmetry c1  #important for SAPT in psi4, default
}

set PROPERTIES_ORIGIN ["COM"]
properties('MP2/aug-cc-pvtz', properties = ['dipole'])
--------------------------------------------------------------------------

    Molecular point group: c1
  Charge       = 0
  Multiplicity = 1
  Basis Set: AUG-CC-PVTZ
    Blend: AUG-CC-PVTZ
  Basis Set: (AUG-CC-PVTZ AUX)
    Blend: AUG-CC-PVTZ-JKFIT

    Orbital Energies [Eh]
    ---------------------

    Doubly Occupied:

       1A    -20.573115     2A    -20.568167     3A    -20.559358
       4A    -20.558185     5A    -11.337135     6A    -11.289290
       7A    -11.277690     8A    -11.275537     9A    -11.231273
      10A     -1.415727    11A     -1.370140    12A     -1.357160
      13A     -1.335242    14A     -1.064178    15A     -1.025990
      16A     -0.898122    17A     -0.821250    18A     -0.795868
      19A     -0.742490    20A     -0.702039    21A     -0.683978
      22A     -0.676172    23A     -0.642769    24A     -0.630268
      25A     -0.616166    26A     -0.573241    27A     -0.566313
      28A     -0.555447    29A     -0.525950    30A     -0.522474
      31A     -0.509545    32A     -0.484359    33A     -0.462930
      34A     -0.447681    35A     -0.442236    36A     -0.429671

  @DF-RHF Final Energy:  -494.77808964229661

   => Energetics <=

    Nuclear Repulsion Energy =            509.4256533387003856
    One-Electron Energy =               -1690.4731665730930672
    Two-Electron Energy =                 686.2694235920960182
    Total Energy =                       -494.7780896422966634
  Basis Set: (AUG-CC-PVTZ AUX)
    Blend: AUG-CC-PVTZ-RI
    Molecular point group: c1

    Geometry (in Angstrom), charge = 0, multiplicity = 1:

       Center              X                  Y                   Z               Mass
    ------------   -----------------  -----------------  -----------------  -----------------
         O           -0.075165187255     1.028720651144     0.698756598994    15.994914619570
         O            0.004431812745    -2.438210348856    -0.058908401006    15.994914619570
         O           -1.799658187255     1.359611651144    -0.851613401006    15.994914619570
         O            2.772339812745     0.840993651144     0.187309598994    15.994914619570
         C           -0.396150187255    -1.094956348856    -0.310120401006    12.000000000000
         C            0.635320812745    -0.172165348856     0.328531598994    12.000000000000
         C           -1.700987387255    -0.631769548856     0.324976198994    12.000000000000
         C           -1.460030187255     0.848325651144     0.425421598994    12.000000000000
         C            1.792569812745     0.147958651144    -0.579019401006    12.000000000000
         H           -0.461131187255    -0.898006348856    -1.390062401006     1.007825032230
         H            1.014536812745    -0.655119348856     1.242071598994     1.007825032230
         H           -2.598727187255    -0.906074348856    -0.162974401006     1.007825032230
         H           -1.709041187255    -1.065674348856     1.383271598994     1.007825032230
         H           -2.004000187255     1.379150651144     1.215523598994     1.007825032230
         H            1.415882812745     0.759433651144    -1.412716401006     1.007825032230
         H            2.183974812745    -0.798922348856    -0.982398401006     1.007825032230
         H           -0.645614187255    -3.021756348856    -0.498317401006     1.007825032230
         H           -1.554861187255     2.305429651144    -0.848954401006     1.007825032230
         H            3.490516812745     1.093146651144    -0.417107401006     1.007825032230

  Basis Set: AUG-CC-PVTZ
    Blend: AUG-CC-PVTZ
  Basis Set: (AUG-CC-PVTZ AUX)
    Blend: AUG-CC-PVTZ-JKFIT
	 Reference Energy          =    -494.7780896422966066 [Eh]
	 Singles Energy            =      -0.0000000000000000 [Eh]
	 Same-Spin Energy          =      -0.4830267804700646 [Eh]
	 Opposite-Spin Energy      =      -1.5133205099126987 [Eh]
	 Correlation Energy        =      -1.9963472903827633 [Eh]
	 Total Energy              =    -496.7744369326793503 [Eh]

	 ================> DF-SCS-MP2 Energies <==================
	-----------------------------------------------------------
	 SCS Same-Spin Scale       =       0.3333333333333333 [-]
	 SCS Opposite-Spin Scale   =       1.2000000000000000 [-]
	 SCS Same-Spin Energy      =      -0.1610089268233549 [Eh]
	 SCS Opposite-Spin Energy  =      -1.8159846118952383 [Eh]
	 SCS Correlation Energy    =      -1.9769935387185931 [Eh]
	 SCS Total Energy          =    -496.7550831810152090 [Eh]
	-----------------------------------------------------------

  Dipole Moment: [D]
     X:    -1.1626      Y:    -0.4902      Z:    -1.8869     Total:     2.2699

*** Psi4 exiting successfully. Buy a developer a beer!
