                               Psi4 1.3.2 release

  ==> Input File <==

--------------------------------------------------------------------------
#psi4
#
memory 32 gb

molecule  {
0 1
  O       -0.0768340     1.0301030     0.6945190
  O        0.0027630    -2.4368280    -0.0631460
  O       -1.8013270     1.3609940    -0.8558510
  O        2.7706710     0.8423760     0.1830720
  C       -0.3978190    -1.0935740    -0.3143580
  C        0.6336520    -0.1707830     0.3242940
  C       -1.7808524    -0.6274517     0.4920217
  C       -1.4616990     0.8497080     0.4211840
  C        1.7909010     0.1493410    -0.5832570
  H       -0.4628000    -0.8966240    -1.3943000
  H        1.0128680    -0.6537370     1.2378340
  H       -2.6003960    -0.9046920    -0.1672120
  H       -1.7107100    -1.0642920     1.3790340
  H       -2.0056690     1.3805330     1.2112860
  H        1.4142140     0.7608160    -1.4169540
  H        2.1823060    -0.7975400    -0.9866360
  H       -0.6472830    -3.0203740    -0.5025550
  H       -1.5565300     2.3068120    -0.8531920
  H        3.4888480     1.0945290    -0.4213450
units angstrom
no_reorient  #important for SAPT in psi4, default
symmetry c1  #important for SAPT in psi4, default
}

set PROPERTIES_ORIGIN ["COM"]
properties('MP2/aug-cc-pvtz', properties = ['dipole'])
--------------------------------------------------------------------------

    Molecular point group: c1
  Charge       = 0
  Multiplicity = 1
  Basis Set: AUG-CC-PVTZ
    Blend: AUG-CC-PVTZ
  Basis Set: (AUG-CC-PVTZ AUX)
    Blend: AUG-CC-PVTZ-JKFIT

    Orbital Energies [Eh]
    ---------------------

    Doubly Occupied:

       1A    -20.572244     2A    -20.570682     3A    -20.558746
       4A    -20.557988     5A    -11.337210     6A    -11.294719
       7A    -11.276454     8A    -11.275209     9A    -11.229437
      10A     -1.413429    11A     -1.368488    12A     -1.356868
      13A     -1.334845    14A     -1.049028    15A     -1.026862
      16A     -0.894864    17A     -0.830528    18A     -0.788596
      19A     -0.745478    20A     -0.698619    21A     -0.681552
      22A     -0.669997    23A     -0.642590    24A     -0.632716
      25A     -0.608283    26A     -0.587776    27A     -0.570701
      28A     -0.555708    29A     -0.546769    30A     -0.518706
      31A     -0.508140    32A     -0.482070    33A     -0.464080
      34A     -0.446631    35A     -0.431725    36A     -0.412047

  @DF-RHF Final Energy:  -494.75957943651792

   => Energetics <=

    Nuclear Repulsion Energy =            507.0086313965666136
    One-Electron Energy =               -1685.6568501747024129
    Two-Electron Energy =                 683.8886393416178180
    Total Energy =                       -494.7595794365179245
  Basis Set: (AUG-CC-PVTZ AUX)
    Blend: AUG-CC-PVTZ-RI
    Molecular point group: c1

    Geometry (in Angstrom), charge = 0, multiplicity = 1:

       Center              X                  Y                   Z               Mass
    ------------   -----------------  -----------------  -----------------  -----------------
         O           -0.068165567402     1.028457884103     0.683424439792    15.994914619570
         O            0.011431432598    -2.438473115897    -0.074240560208    15.994914619570
         O           -1.792658567402     1.359348884103    -0.866945560208    15.994914619570
         O            2.779339432598     0.840730884103     0.171977439792    15.994914619570
         C           -0.389150567402    -1.095219115897    -0.325452560208    12.000000000000
         C            0.642320432598    -0.172428115897     0.313199439792    12.000000000000
         C           -1.772183967402    -0.629096815897     0.480927139792    12.000000000000
         C           -1.453030567402     0.848062884103     0.410089439792    12.000000000000
         C            1.799569432598     0.147695884103    -0.594351560208    12.000000000000
         H           -0.454131567402    -0.898269115897    -1.405394560208     1.007825032230
         H            1.021536432598    -0.655382115897     1.226739439792     1.007825032230
         H           -2.591727567402    -0.906337115897    -0.178306560208     1.007825032230
         H           -1.702041567402    -1.065937115897     1.367939439792     1.007825032230
         H           -1.997000567402     1.378887884103     1.200191439792     1.007825032230
         H            1.422882432598     0.759170884103    -1.428048560208     1.007825032230
         H            2.190974432598    -0.799185115897    -0.997730560208     1.007825032230
         H           -0.638614567402    -3.022019115897    -0.513649560208     1.007825032230
         H           -1.547861567402     2.305166884103    -0.864286560208     1.007825032230
         H            3.497516432598     1.092883884103    -0.432439560208     1.007825032230

  Basis Set: AUG-CC-PVTZ
    Blend: AUG-CC-PVTZ
  Basis Set: (AUG-CC-PVTZ AUX)
    Blend: AUG-CC-PVTZ-JKFIT
	 Reference Energy          =    -494.7595794365179245 [Eh]
	 Singles Energy            =      -0.0000000000000000 [Eh]
	 Same-Spin Energy          =      -0.4830462519171490 [Eh]
	 Opposite-Spin Energy      =      -1.5143185232647225 [Eh]
	 Correlation Energy        =      -1.9973647751818715 [Eh]
	 Total Energy              =    -496.7569442116998175 [Eh]

	 ================> DF-SCS-MP2 Energies <==================
	-----------------------------------------------------------
	 SCS Same-Spin Scale       =       0.3333333333333333 [-]
	 SCS Opposite-Spin Scale   =       1.2000000000000000 [-]
	 SCS Same-Spin Energy      =      -0.1610154173057163 [Eh]
	 SCS Opposite-Spin Energy  =      -1.8171822279176668 [Eh]
	 SCS Correlation Energy    =      -1.9781976452233831 [Eh]
	 SCS Total Energy          =    -496.7377770817412852 [Eh]
	-----------------------------------------------------------

  Dipole Moment: [D]
     X:    -1.0777      Y:    -0.5804      Z:    -1.9034     Total:     2.2630

*** Psi4 exiting successfully. Buy a developer a beer!
