                               Psi4 1.3.2 release

  ==> Input File <==

--------------------------------------------------------------------------
#psi4
#
memory 32 gb

molecule  {
0 1
  O       -0.0739263     1.0054405     0.6949354
  O        0.0027630    -2.4368280    -0.0631460
  O       -1.8013270     1.3609940    -0.8558510
  O        2.7706710     0.8423760     0.1830720
  C       -0.3978190    -1.0935740    -0.3143580
  C        0.6336520    -0.1707830     0.3242940
  C       -1.6840130    -0.6458300     0.3680790
  C       -1.4616990     0.8497080     0.4211840
  C        1.7909010     0.1493410    -0.5832570
  H       -0.4628000    -0.8966240    -1.3943000
  H        1.0128680    -0.6537370     1.2378340
  H       -2.6003960    -0.9046920    -0.1672120
  H       -1.7107100    -1.0642920     1.3790340
  H       -2.0056690     1.3805330     1.2112860
  H        1.4142140     0.7608160    -1.4169540
  H        2.1823060    -0.7975400    -0.9866360
  H       -0.6472830    -3.0203740    -0.5025550
  H       -1.5565300     2.3068120    -0.8531920
  H        3.4888480     1.0945290    -0.4213450
units angstrom
no_reorient  #important for SAPT in psi4, default
symmetry c1  #important for SAPT in psi4, default
}

set PROPERTIES_ORIGIN ["COM"]
properties('MP2/aug-cc-pvtz', properties = ['dipole'])
--------------------------------------------------------------------------

    Molecular point group: c1
  Charge       = 0
  Multiplicity = 1
  Basis Set: AUG-CC-PVTZ
    Blend: AUG-CC-PVTZ
  Basis Set: (AUG-CC-PVTZ AUX)
    Blend: AUG-CC-PVTZ-JKFIT

    Orbital Energies [Eh]
    ---------------------

    Doubly Occupied:

       1A    -20.571413     2A    -20.570392     3A    -20.557587
       4A    -20.557576     5A    -11.338370     6A    -11.287632
       7A    -11.274953     8A    -11.274204     9A    -11.229852
      10A     -1.418627    11A     -1.369120    12A     -1.356909
      13A     -1.338705    14A     -1.061719    15A     -1.026192
      16A     -0.898172    17A     -0.822629    18A     -0.793740
      19A     -0.744852    20A     -0.701726    21A     -0.682291
      22A     -0.675793    23A     -0.642785    24A     -0.629830
      25A     -0.616806    26A     -0.575927    27A     -0.565563
      28A     -0.555422    29A     -0.535645    30A     -0.520673
      31A     -0.506968    32A     -0.485299    33A     -0.460959
      34A     -0.447096    35A     -0.441611    36A     -0.427672

  @DF-RHF Final Energy:  -494.78230387373497

   => Energetics <=

    Nuclear Repulsion Energy =            509.9257614989884360
    One-Electron Energy =               -1691.4867177650141912
    Two-Electron Energy =                 686.7786523922906099
    Total Energy =                       -494.7823038737350316
  Basis Set: (AUG-CC-PVTZ AUX)
    Blend: AUG-CC-PVTZ-RI
    Molecular point group: c1

    Geometry (in Angstrom), charge = 0, multiplicity = 1:

       Center              X                  Y                   Z               Mass
    ------------   -----------------  -----------------  -----------------  -----------------
         O           -0.074273234149     1.008383059589     0.694885709362    15.994914619570
         O            0.002416065851    -2.433885440411    -0.063195690638    15.994914619570
         O           -1.801673934149     1.363936559589    -0.855900690638    15.994914619570
         O            2.770324065851     0.845318559589     0.183022309362    15.994914619570
         C           -0.398165934149    -1.090631440411    -0.314407690638    12.000000000000
         C            0.633305065851    -0.167840440411     0.324244309362    12.000000000000
         C           -1.684359934149    -0.642887440411     0.368029309362    12.000000000000
         C           -1.462045934149     0.852650559589     0.421134309362    12.000000000000
         C            1.790554065851     0.152283559589    -0.583306690638    12.000000000000
         H           -0.463146934149    -0.893681440411    -1.394349690638     1.007825032230
         H            1.012521065851    -0.650794440411     1.237784309362     1.007825032230
         H           -2.600742934149    -0.901749440411    -0.167261690638     1.007825032230
         H           -1.711056934149    -1.061349440411     1.378984309362     1.007825032230
         H           -2.006015934149     1.383475559589     1.211236309362     1.007825032230
         H            1.413867065851     0.763758559589    -1.417003690638     1.007825032230
         H            2.181959065851    -0.794597440411    -0.986685690638     1.007825032230
         H           -0.647629934149    -3.017431440411    -0.502604690638     1.007825032230
         H           -1.556876934149     2.309754559589    -0.853241690638     1.007825032230
         H            3.488501065851     1.097471559589    -0.421394690638     1.007825032230

  Basis Set: AUG-CC-PVTZ
    Blend: AUG-CC-PVTZ
  Basis Set: (AUG-CC-PVTZ AUX)
    Blend: AUG-CC-PVTZ-JKFIT
	 Reference Energy          =    -494.7823038737349748 [Eh]
	 Singles Energy            =      -0.0000000000000000 [Eh]
	 Same-Spin Energy          =      -0.4827837281572576 [Eh]
	 Opposite-Spin Energy      =      -1.5124571924899703 [Eh]
	 Correlation Energy        =      -1.9952409206472279 [Eh]
	 Total Energy              =    -496.7775447943822087 [Eh]

	 ================> DF-SCS-MP2 Energies <==================
	-----------------------------------------------------------
	 SCS Same-Spin Scale       =       0.3333333333333333 [-]
	 SCS Opposite-Spin Scale   =       1.2000000000000000 [-]
	 SCS Same-Spin Energy      =      -0.1609279093857525 [Eh]
	 SCS Opposite-Spin Energy  =      -1.8149486309879643 [Eh]
	 SCS Correlation Energy    =      -1.9758765403737168 [Eh]
	 SCS Total Energy          =    -496.7581804141086650 [Eh]
	-----------------------------------------------------------

  Dipole Moment: [D]
     X:    -1.2040      Y:    -0.4010      Z:    -1.8550     Total:     2.2476

*** Psi4 exiting successfully. Buy a developer a beer!
