                               Psi4 1.4a3.dev225

  ==> Input File <==

--------------------------------------------------------------------------
#psi4
#
memory 32 gb

molecule  {
0 1
  O        0.0779330    -0.9269250    -0.8850860
  O       -0.5497830     2.4054250     0.0105510
  O       -1.2273040    -1.7124440     0.8968780
  O        2.8355650    -0.3742720    -0.2242840
  C       -0.6080970     1.0161320     0.3256370
  C        0.5731950     0.3283540    -0.3705440
  C       -1.8147930     0.2671960    -0.2390730
  C       -1.2359040    -1.1221150    -0.3954320
  C        1.7465980     0.1105970     0.5541480
  H       -0.5498730     0.8655980     1.4125560
  H        0.8905780     0.9380060    -1.2243810
  H       -2.7393912     0.2883956     0.4320458
  H       -2.0570860     0.6846600    -1.2212740
  H       -1.7431510    -1.7703690    -1.1193200
  H        1.4450650    -0.6065030     1.3308310
  H        1.9882130     1.0713000     1.0354480
  H       -1.2210140     2.8543510     0.5524830
  H       -0.6896120    -2.5214440     0.8182530
  H        3.5785240    -0.5383230     0.3798300
units angstrom
no_reorient  #important for SAPT in psi4, default
symmetry c1  #important for SAPT in psi4, default
}

set PROPERTIES_ORIGIN ["COM"]
properties('MP2/aug-cc-pvtz', properties = ['dipole'])
--------------------------------------------------------------------------

    Molecular point group: c1
  Charge       = 0
  Multiplicity = 1
  Basis Set: AUG-CC-PVTZ
    Blend: AUG-CC-PVTZ
  Basis Set: (AUG-CC-PVTZ AUX)
    Blend: AUG-CC-PVTZ-JKFIT

    Orbital Energies [Eh]
    ---------------------

    Doubly Occupied:

       1A    -20.571065     2A    -20.569506     3A    -20.560157
       4A    -20.559181     5A    -11.337143     6A    -11.290671
       7A    -11.278116     8A    -11.276845     9A    -11.235159
      10A     -1.418106    11A     -1.369772    12A     -1.358089
      13A     -1.336141    14A     -1.059797    15A     -1.024828
      16A     -0.898311    17A     -0.817925    18A     -0.795447
      19A     -0.742659    20A     -0.702569    21A     -0.682968
      22A     -0.674432    23A     -0.645775    24A     -0.627454
      25A     -0.612560    26A     -0.573411    27A     -0.563386
      28A     -0.558650    29A     -0.533102    30A     -0.521737
      31A     -0.505030    32A     -0.483511    33A     -0.464902
      34A     -0.449288    35A     -0.443265    36A     -0.428300

  @DF-RHF Final Energy:  -494.77983777469768

   => Energetics <=

    Nuclear Repulsion Energy =            510.7829345940081680
    One-Electron Energy =               -1693.1870254310053951
    Two-Electron Energy =                 687.6242530622995446
    Total Energy =                       -494.7798377746977394
  Basis Set: (AUG-CC-PVTZ AUX)
    Blend: AUG-CC-PVTZ-RI
    Molecular point group: c1

    Geometry (in Angstrom), charge = 0, multiplicity = 1:

       Center              X                  Y                   Z               Mass
    ------------   -----------------  -----------------  -----------------  -----------------
         O            0.070455277727    -0.917594558548    -0.867795167964    15.994914619570
         O           -0.557260722273     2.414755441452     0.027841832036    15.994914619570
         O           -1.234781722273    -1.703113558548     0.914168832036    15.994914619570
         O            2.828087277727    -0.364941558548    -0.206993167964    15.994914619570
         C           -0.615574722273     1.025462441452     0.342927832036    12.000000000000
         C            0.565717277727     0.337684441452    -0.353253167964    12.000000000000
         C           -1.822270722273     0.276526441452    -0.221782167964    12.000000000000
         C           -1.243381722273    -1.112784558548    -0.378141167964    12.000000000000
         C            1.739120277727     0.119927441452     0.571438832036    12.000000000000
         H           -0.557350722273     0.874928441452     1.429846832036     1.007825032230
         H            0.883100277727     0.947336441452    -1.207090167964     1.007825032230
         H           -2.746868922273     0.297726041452     0.449336632036     1.007825032230
         H           -2.064563722273     0.693990441452    -1.203983167964     1.007825032230
         H           -1.750628722273    -1.761038558548    -1.102029167964     1.007825032230
         H            1.437587277727    -0.597172558548     1.348121832036     1.007825032230
         H            1.980735277727     1.080630441452     1.052738832036     1.007825032230
         H           -1.228491722273     2.863681441452     0.569773832036     1.007825032230
         H           -0.697089722273    -2.512113558548     0.835543832036     1.007825032230
         H            3.571046277727    -0.528992558548     0.397120832036     1.007825032230

  Basis Set: AUG-CC-PVTZ
    Blend: AUG-CC-PVTZ
  Basis Set: (AUG-CC-PVTZ AUX)
    Blend: AUG-CC-PVTZ-JKFIT
	 Reference Energy          =    -494.7798377746976826 [Eh]
	 Singles Energy            =      -0.0000000000000000 [Eh]
	 Same-Spin Energy          =      -0.4828663823405561 [Eh]
	 Opposite-Spin Energy      =      -1.5135899417776169 [Eh]
	 Correlation Energy        =      -1.9964563241181730 [Eh]
	 Total Energy              =    -496.7762940988158675 [Eh]

	 ================> DF-SCS-MP2 Energies <==================
	-----------------------------------------------------------
	 SCS Same-Spin Scale       =       0.3333333333333333 [-]
	 SCS Opposite-Spin Scale   =       1.2000000000000000 [-]
	 SCS Same-Spin Energy      =      -0.1609554607801854 [Eh]
	 SCS Opposite-Spin Energy  =      -1.8163079301331402 [Eh]
	 SCS Correlation Energy    =      -1.9772633909133255 [Eh]
	 SCS Total Energy          =    -496.7571011656110045 [Eh]
	-----------------------------------------------------------

  Dipole Moment: [D]
     X:    -0.9846      Y:     0.1461      Z:     2.2521     Total:     2.4623

*** Psi4 exiting successfully. Buy a developer a beer!
