                               Psi4 1.3.2 release

  ==> Input File <==

--------------------------------------------------------------------------
#psi4
#
memory 32 gb

molecule  {
0 1
  O       -0.0768340     1.0301030     0.6945190
  O        0.0027630    -2.4368280    -0.0631460
  O       -1.8013270     1.3609940    -0.8558510
  O        2.7706710     0.8423760     0.1830720
  C       -0.3978190    -1.0935740    -0.3143580
  C        0.6336520    -0.1707830     0.3242940
  C       -1.6420501    -0.6783327     0.4602087
  C       -1.4616990     0.8497080     0.4211840
  C        1.7909010     0.1493410    -0.5832570
  H       -0.4628000    -0.8966240    -1.3943000
  H        1.0128680    -0.6537370     1.2378340
  H       -2.6003960    -0.9046920    -0.1672120
  H       -1.7107100    -1.0642920     1.3790340
  H       -2.0056690     1.3805330     1.2112860
  H        1.4142140     0.7608160    -1.4169540
  H        2.1823060    -0.7975400    -0.9866360
  H       -0.6472830    -3.0203740    -0.5025550
  H       -1.5565300     2.3068120    -0.8531920
  H        3.4888480     1.0945290    -0.4213450
units angstrom
no_reorient  #important for SAPT in psi4, default
symmetry c1  #important for SAPT in psi4, default
}

set PROPERTIES_ORIGIN ["COM"]
properties('MP2/aug-cc-pvtz', properties = ['dipole'])
--------------------------------------------------------------------------

    Molecular point group: c1
  Charge       = 0
  Multiplicity = 1
  Basis Set: AUG-CC-PVTZ
    Blend: AUG-CC-PVTZ
  Basis Set: (AUG-CC-PVTZ AUX)
    Blend: AUG-CC-PVTZ-JKFIT

    Orbital Energies [Eh]
    ---------------------

    Doubly Occupied:

       1A    -20.571558     2A    -20.570778     3A    -20.557731
       4A    -20.556697     5A    -11.338709     6A    -11.289148
       7A    -11.276071     8A    -11.274824     9A    -11.230752
      10A     -1.414763    11A     -1.369627    12A     -1.356699
      13A     -1.335360    14A     -1.062482    15A     -1.023930
      16A     -0.896386    17A     -0.826479    18A     -0.791730
      19A     -0.746996    20A     -0.700039    21A     -0.682071
      22A     -0.672490    23A     -0.642258    24A     -0.628651
      25A     -0.618005    26A     -0.576932    27A     -0.568121
      28A     -0.559818    29A     -0.546531    30A     -0.518280
      31A     -0.496913    32A     -0.480210    33A     -0.461570
      34A     -0.446977    35A     -0.438090    36A     -0.429001

  @DF-RHF Final Energy:  -494.76799806493744

   => Energetics <=

    Nuclear Repulsion Energy =            509.2131231864921688
    One-Electron Energy =               -1690.0488908656802778
    Two-Electron Energy =                 686.0677696142507784
    Total Energy =                       -494.7679980649373874
  Basis Set: (AUG-CC-PVTZ AUX)
    Blend: AUG-CC-PVTZ-RI
    Molecular point group: c1

    Geometry (in Angstrom), charge = 0, multiplicity = 1:

       Center              X                  Y                   Z               Mass
    ------------   -----------------  -----------------  -----------------  -----------------
         O           -0.080590254724     1.033012423298     0.686272134519    15.994914619570
         O           -0.000993254724    -2.433918576702    -0.071392865481    15.994914619570
         O           -1.805083254724     1.363903423298    -0.864097865481    15.994914619570
         O            2.766914745276     0.845285423298     0.174825134519    15.994914619570
         C           -0.401575254724    -1.090664576702    -0.322604865481    12.000000000000
         C            0.629895745276    -0.167873576702     0.316047134519    12.000000000000
         C           -1.645806354724    -0.675423276702     0.451961834519    12.000000000000
         C           -1.465455254724     0.852617423298     0.412937134519    12.000000000000
         C            1.787144745276     0.152250423298    -0.591503865481    12.000000000000
         H           -0.466556254724    -0.893714576702    -1.402546865481     1.007825032230
         H            1.009111745276    -0.650827576702     1.229587134519     1.007825032230
         H           -2.604152254724    -0.901782576702    -0.175458865481     1.007825032230
         H           -1.714466254724    -1.061382576702     1.370787134519     1.007825032230
         H           -2.009425254724     1.383442423298     1.203039134519     1.007825032230
         H            1.410457745276     0.763725423298    -1.425200865481     1.007825032230
         H            2.178549745276    -0.794630576702    -0.994882865481     1.007825032230
         H           -0.651039254724    -3.017464576702    -0.510801865481     1.007825032230
         H           -1.560286254724     2.309721423298    -0.861438865481     1.007825032230
         H            3.485091745276     1.097438423298    -0.429591865481     1.007825032230

  Basis Set: AUG-CC-PVTZ
    Blend: AUG-CC-PVTZ
  Basis Set: (AUG-CC-PVTZ AUX)
    Blend: AUG-CC-PVTZ-JKFIT
	 Reference Energy          =    -494.7679980649374443 [Eh]
	 Singles Energy            =      -0.0000000000000000 [Eh]
	 Same-Spin Energy          =      -0.4828776630741812 [Eh]
	 Opposite-Spin Energy      =      -1.5133406331507333 [Eh]
	 Correlation Energy        =      -1.9962182962249146 [Eh]
	 Total Energy              =    -496.7642163611623687 [Eh]

	 ================> DF-SCS-MP2 Energies <==================
	-----------------------------------------------------------
	 SCS Same-Spin Scale       =       0.3333333333333333 [-]
	 SCS Opposite-Spin Scale   =       1.2000000000000000 [-]
	 SCS Same-Spin Energy      =      -0.1609592210247271 [Eh]
	 SCS Opposite-Spin Energy  =      -1.8160087597808798 [Eh]
	 SCS Correlation Energy    =      -1.9769679808056069 [Eh]
	 SCS Total Energy          =    -496.7449660457430696 [Eh]
	-----------------------------------------------------------

  Dipole Moment: [D]
     X:    -1.1294      Y:    -0.4431      Z:    -1.8343     Total:     2.1992

*** Psi4 exiting successfully. Buy a developer a beer!
