                               Psi4 1.3.2 release

  ==> Input File <==

--------------------------------------------------------------------------
#psi4
#
memory 32 gb

molecule  {
0 1
  O       -0.0768340     1.0301030     0.6945190
  O        0.0027630    -2.4368280    -0.0631460
  O       -1.7659755     1.4949798    -0.8029970
  O        2.7706710     0.8423760     0.1830720
  C       -0.3978190    -1.0935740    -0.3143580
  C        0.6336520    -0.1707830     0.3242940
  C       -1.6840130    -0.6458300     0.3680790
  C       -1.4616990     0.8497080     0.4211840
  C        1.7909010     0.1493410    -0.5832570
  H       -0.4628000    -0.8966240    -1.3943000
  H        1.0128680    -0.6537370     1.2378340
  H       -2.6003960    -0.9046920    -0.1672120
  H       -1.7107100    -1.0642920     1.3790340
  H       -2.0056690     1.3805330     1.2112860
  H        1.4142140     0.7608160    -1.4169540
  H        2.1823060    -0.7975400    -0.9866360
  H       -0.6472830    -3.0203740    -0.5025550
  H       -1.5565300     2.3068120    -0.8531920
  H        3.4888480     1.0945290    -0.4213450
units angstrom
no_reorient  #important for SAPT in psi4, default
symmetry c1  #important for SAPT in psi4, default
}

set PROPERTIES_ORIGIN ["COM"]
properties('MP2/aug-cc-pvtz', properties = ['dipole'])
--------------------------------------------------------------------------

    Molecular point group: c1
  Charge       = 0
  Multiplicity = 1
  Basis Set: AUG-CC-PVTZ
    Blend: AUG-CC-PVTZ
  Basis Set: (AUG-CC-PVTZ AUX)
    Blend: AUG-CC-PVTZ-JKFIT

    Orbital Energies [Eh]
    ---------------------

    Doubly Occupied:

       1A    -20.574286     2A    -20.557986     3A    -20.556272
       4A    -20.548163     5A    -11.340525     6A    -11.291106
       7A    -11.277252     8A    -11.275408     9A    -11.236110
      10A     -1.426391    11A     -1.374483    12A     -1.359646
      13A     -1.344973    14A     -1.066958    15A     -1.030268
      16A     -0.904835    17A     -0.831898    18A     -0.798585
      19A     -0.756766    20A     -0.705959    21A     -0.689340
      22A     -0.675307    23A     -0.641948    24A     -0.629045
      25A     -0.623163    26A     -0.572389    27A     -0.566662
      28A     -0.556699    29A     -0.544521    30A     -0.516552
      31A     -0.508605    32A     -0.483969    33A     -0.464870
      34A     -0.447621    35A     -0.440385    36A     -0.428958

  @DF-RHF Final Energy:  -494.76595661304520

   => Energetics <=

    Nuclear Repulsion Energy =            509.2923367336742331
    One-Electron Energy =               -1690.0207804616554768
    Two-Electron Energy =                 685.9624871149361525
    Total Energy =                       -494.7659566130452049
  Basis Set: (AUG-CC-PVTZ AUX)
    Blend: AUG-CC-PVTZ-RI
    Molecular point group: c1

    Geometry (in Angstrom), charge = 0, multiplicity = 1:

       Center              X                  Y                   Z               Mass
    ------------   -----------------  -----------------  -----------------  -----------------
         O           -0.081051916589     1.014116680004     0.688212797215    15.994914619570
         O           -0.001454916589    -2.452814319996    -0.069452202785    15.994914619570
         O           -1.770193416589     1.478993480004    -0.809303202785    15.994914619570
         O            2.766453083411     0.826389680004     0.176765797215    15.994914619570
         C           -0.402036916589    -1.109560319996    -0.320664202785    12.000000000000
         C            0.629434083411    -0.186769319996     0.317987797215    12.000000000000
         C           -1.688230916589    -0.661816319996     0.361772797215    12.000000000000
         C           -1.465916916589     0.833721680004     0.414877797215    12.000000000000
         C            1.786683083411     0.133354680004    -0.589563202785    12.000000000000
         H           -0.467017916589    -0.912610319996    -1.400606202785     1.007825032230
         H            1.008650083411    -0.669723319996     1.231527797215     1.007825032230
         H           -2.604613916589    -0.920678319996    -0.173518202785     1.007825032230
         H           -1.714927916589    -1.080278319996     1.372727797215     1.007825032230
         H           -2.009886916589     1.364546680004     1.204979797215     1.007825032230
         H            1.409996083411     0.744829680004    -1.423260202785     1.007825032230
         H            2.178088083411    -0.813526319996    -0.992942202785     1.007825032230
         H           -0.651500916589    -3.036360319996    -0.508861202785     1.007825032230
         H           -1.560747916589     2.290825680004    -0.859498202785     1.007825032230
         H            3.484630083411     1.078542680004    -0.427651202785     1.007825032230

  Basis Set: AUG-CC-PVTZ
    Blend: AUG-CC-PVTZ
  Basis Set: (AUG-CC-PVTZ AUX)
    Blend: AUG-CC-PVTZ-JKFIT
	 Reference Energy          =    -494.7659566130452049 [Eh]
	 Singles Energy            =      -0.0000000000000000 [Eh]
	 Same-Spin Energy          =      -0.4807531314714337 [Eh]
	 Opposite-Spin Energy      =      -1.5081348417823257 [Eh]
	 Correlation Energy        =      -1.9888879732537594 [Eh]
	 Total Energy              =    -496.7548445862989865 [Eh]

	 ================> DF-SCS-MP2 Energies <==================
	-----------------------------------------------------------
	 SCS Same-Spin Scale       =       0.3333333333333333 [-]
	 SCS Opposite-Spin Scale   =       1.2000000000000000 [-]
	 SCS Same-Spin Energy      =      -0.1602510438238112 [Eh]
	 SCS Opposite-Spin Energy  =      -1.8097618101387907 [Eh]
	 SCS Correlation Energy    =      -1.9700128539626018 [Eh]
	 SCS Total Energy          =    -496.7359694670078056 [Eh]
	-----------------------------------------------------------

  Dipole Moment: [D]
     X:    -1.1722      Y:    -0.7800      Z:    -1.8677     Total:     2.3390

*** Psi4 exiting successfully. Buy a developer a beer!
