                               Psi4 1.3.2 release

  ==> Input File <==

--------------------------------------------------------------------------
#psi4
#
memory 32 gb

molecule  {
0 1
  O        2.1793270    -1.1884030     0.0070830
  O        2.0147220     1.0703310     0.0037530
  C       -2.3333640     0.6373300    -0.0064140
  C       -2.8929490    -0.7786760    -0.0059160
  C       -0.8407100     0.7390270    -0.0031060
  C        0.0222220    -0.2866530     0.0001530
  C        1.4732850    -0.0238670     0.0030520
  H       -2.7101490     1.1874440    -0.8789970
  H       -2.7141290     1.1896330     0.8630350
  H       -3.9853730    -0.7577330    -0.0084480
  H       -2.5694230    -1.3301270     0.8805270
  H       -2.5653610    -1.3323610    -0.8894680
  H       -0.4156920     1.7426300    -0.0033930
  H       -0.2913660    -1.3244520     0.0007550
  H        3.1211320    -0.9203150     0.0096400
units angstrom
no_reorient  #important for SAPT in psi4, default
symmetry c1  #important for SAPT in psi4, default
}

set PROPERTIES_ORIGIN ["COM"]
properties('MP2/aug-cc-pvtz', properties = ['dipole'])
--------------------------------------------------------------------------

    Molecular point group: c1
  Charge       = 0
  Multiplicity = 1
  Basis Set: AUG-CC-PVTZ
    Blend: AUG-CC-PVTZ
  Basis Set: (AUG-CC-PVTZ AUX)
    Blend: AUG-CC-PVTZ-JKFIT

    Orbital Energies [Eh]
    ---------------------

    Doubly Occupied:

       1A    -20.610435     2A    -20.540059     3A    -11.385554
       4A    -11.267740     5A    -11.247347     6A    -11.240401
       7A    -11.228555     8A     -1.452960     9A     -1.348015
      10A     -1.111376    11A     -1.024167    12A     -0.916341
      13A     -0.842487    14A     -0.739017    15A     -0.705535
      16A     -0.694233    17A     -0.631934    18A     -0.620654
      19A     -0.615920    20A     -0.600815    21A     -0.569365
      22A     -0.514956    23A     -0.512369    24A     -0.504904
      25A     -0.482581    26A     -0.450681    27A     -0.380601

  @DF-RHF Final Energy:  -343.86022183611880

   => Energetics <=

    Nuclear Repulsion Energy =            285.4511089553963643
    One-Electron Energy =               -1034.1446569272475244
    Two-Electron Energy =                 404.8333261357323067
    Total Energy =                       -343.8602218361187965
  Basis Set: (AUG-CC-PVTZ AUX)
    Blend: AUG-CC-PVTZ-RI
    Molecular point group: c1

    Geometry (in Angstrom), charge = 0, multiplicity = 1:

       Center              X                  Y                   Z               Mass
    ------------   -----------------  -----------------  -----------------  -----------------
         O            2.179327177912    -1.188403075634     0.007083062837    15.994914619570
         O            2.014722177912     1.070330924366     0.003753062837    15.994914619570
         C           -2.333363822088     0.637329924366    -0.006413937163    12.000000000000
         C           -2.892948822088    -0.778676075634    -0.005915937163    12.000000000000
         C           -0.840709822088     0.739026924366    -0.003105937163    12.000000000000
         C            0.022222177912    -0.286653075634     0.000153062837    12.000000000000
         C            1.473285177912    -0.023867075634     0.003052062837    12.000000000000
         H           -2.710148822088     1.187443924366    -0.878996937163     1.007825032230
         H           -2.714128822088     1.189632924366     0.863035062837     1.007825032230
         H           -3.985372822088    -0.757733075634    -0.008447937163     1.007825032230
         H           -2.569422822088    -1.330127075634     0.880527062837     1.007825032230
         H           -2.565360822088    -1.332361075634    -0.889467937163     1.007825032230
         H           -0.415691822088     1.742629924366    -0.003392937163     1.007825032230
         H           -0.291365822088    -1.324452075634     0.000755062837     1.007825032230
         H            3.121132177912    -0.920315075634     0.009640062837     1.007825032230

  Basis Set: AUG-CC-PVTZ
    Blend: AUG-CC-PVTZ
  Basis Set: (AUG-CC-PVTZ AUX)
    Blend: AUG-CC-PVTZ-JKFIT
	 Reference Energy          =    -343.8602218361187965 [Eh]
	 Singles Energy            =      -0.0000000000000000 [Eh]
	 Same-Spin Energy          =      -0.3406385911844155 [Eh]
	 Opposite-Spin Energy      =      -1.0994026104670382 [Eh]
	 Correlation Energy        =      -1.4400412016514537 [Eh]
	 Total Energy              =    -345.3002630377702644 [Eh]

	 ================> DF-SCS-MP2 Energies <==================
	-----------------------------------------------------------
	 SCS Same-Spin Scale       =       0.3333333333333333 [-]
	 SCS Opposite-Spin Scale   =       1.2000000000000000 [-]
	 SCS Same-Spin Energy      =      -0.1135461970614718 [Eh]
	 SCS Opposite-Spin Energy  =      -1.3192831325604459 [Eh]
	 SCS Correlation Energy    =      -1.4328293296219177 [Eh]
	 SCS Total Energy          =    -345.2930511657407351 [Eh]
	-----------------------------------------------------------

  Dipole Moment: [D]
     X:    -1.8191      Y:    -0.9231      Z:    -0.0033     Total:     2.0399

*** Psi4 exiting successfully. Buy a developer a beer!
