                               Psi4 1.3.2 release

  ==> Input File <==

--------------------------------------------------------------------------
#psi4
#
memory 32 gb

molecule  {
0 1
  O        2.1793270    -1.1884030     0.0070830
  O        2.0147220     1.0703310     0.0037530
  C       -2.3333640     0.6373300    -0.0064140
  C       -2.8929490    -0.7786760    -0.0059160
  C       -0.8407100     0.7390270    -0.0031060
  C        0.0222220    -0.2866530     0.0001530
  C        1.4732850    -0.0238670     0.0030520
  H       -2.7101490     1.1874440    -0.8789970
  H       -2.7141290     1.1896330     0.8630350
  H       -3.9853730    -0.7577330    -0.0084480
  H       -2.5694230    -1.3301270     0.8805270
  H       -2.5653610    -1.3323610    -0.8894680
  H       -0.4162662     1.7429429     0.2466061
  H       -0.2913660    -1.3244520     0.0007550
  H        3.1211320    -0.9203150     0.0096400
units angstrom
no_reorient  #important for SAPT in psi4, default
symmetry c1  #important for SAPT in psi4, default
}

set PROPERTIES_ORIGIN ["COM"]
properties('MP2/aug-cc-pvtz', properties = ['dipole'])
--------------------------------------------------------------------------

    Molecular point group: c1
  Charge       = 0
  Multiplicity = 1
  Basis Set: AUG-CC-PVTZ
    Blend: AUG-CC-PVTZ
  Basis Set: (AUG-CC-PVTZ AUX)
    Blend: AUG-CC-PVTZ-JKFIT

    Orbital Energies [Eh]
    ---------------------

    Doubly Occupied:

       1A    -20.610538     2A    -20.540148     3A    -11.385651
       4A    -11.270467     5A    -11.247279     6A    -11.241230
       7A    -11.228628     8A     -1.453054     9A     -1.348055
      10A     -1.110955    11A     -1.024237    12A     -0.915544
      13A     -0.842524    14A     -0.735754    15A     -0.705263
      16A     -0.693102    17A     -0.632391    18A     -0.620769
      19A     -0.615699    20A     -0.599146    21A     -0.569321
      22A     -0.516873    23A     -0.512402    24A     -0.500456
      25A     -0.482269    26A     -0.450760    27A     -0.379802

  @DF-RHF Final Energy:  -343.85569476139892

   => Energetics <=

    Nuclear Repulsion Energy =            285.3363025606848851
    One-Electron Energy =               -1033.9193561989397949
    Two-Electron Energy =                 404.7273588768559875
    Total Energy =                       -343.8556947613989223
  Basis Set: (AUG-CC-PVTZ AUX)
    Blend: AUG-CC-PVTZ-RI
    Molecular point group: c1

    Geometry (in Angstrom), charge = 0, multiplicity = 1:

       Center              X                  Y                   Z               Mass
    ------------   -----------------  -----------------  -----------------  -----------------
         O            2.179332961811    -1.188406227466     0.004564829623    15.994914619570
         O            2.014727961811     1.070327772534     0.001234829623    15.994914619570
         C           -2.333358038189     0.637326772534    -0.008932170377    12.000000000000
         C           -2.892943038189    -0.778679227466    -0.008434170377    12.000000000000
         C           -0.840704038189     0.739023772534    -0.005624170377    12.000000000000
         C            0.022227961811    -0.286656227466    -0.002365170377    12.000000000000
         C            1.473290961811    -0.023870227466     0.000533829623    12.000000000000
         H           -2.710143038189     1.187440772534    -0.881515170377     1.007825032230
         H           -2.714123038189     1.189629772534     0.860516829623     1.007825032230
         H           -3.985367038189    -0.757736227466    -0.010966170377     1.007825032230
         H           -2.569417038189    -1.330130227466     0.878008829623     1.007825032230
         H           -2.565355038189    -1.332364227466    -0.891986170377     1.007825032230
         H           -0.416260238189     1.742939672534     0.244087929623     1.007825032230
         H           -0.291360038189    -1.324455227466    -0.001763170377     1.007825032230
         H            3.121137961811    -0.920318227466     0.007121829623     1.007825032230

  Basis Set: AUG-CC-PVTZ
    Blend: AUG-CC-PVTZ
  Basis Set: (AUG-CC-PVTZ AUX)
    Blend: AUG-CC-PVTZ-JKFIT
	 Reference Energy          =    -343.8556947613989223 [Eh]
	 Singles Energy            =      -0.0000000000000000 [Eh]
	 Same-Spin Energy          =      -0.3408864521535818 [Eh]
	 Opposite-Spin Energy      =      -1.1000000029833963 [Eh]
	 Correlation Energy        =      -1.4408864551369782 [Eh]
	 Total Energy              =    -345.2965812165359125 [Eh]

	 ================> DF-SCS-MP2 Energies <==================
	-----------------------------------------------------------
	 SCS Same-Spin Scale       =       0.3333333333333333 [-]
	 SCS Opposite-Spin Scale   =       1.2000000000000000 [-]
	 SCS Same-Spin Energy      =      -0.1136288173845273 [Eh]
	 SCS Opposite-Spin Energy  =      -1.3200000035800754 [Eh]
	 SCS Correlation Energy    =      -1.4336288209646026 [Eh]
	 SCS Total Energy          =    -345.2893235823635223 [Eh]
	-----------------------------------------------------------

  Dipole Moment: [D]
     X:    -1.8148      Y:    -0.9538      Z:     0.1375     Total:     2.0548

*** Psi4 exiting successfully. Buy a developer a beer!
