                               Psi4 1.3.2 release

  ==> Input File <==

--------------------------------------------------------------------------
#psi4
#
memory 32 gb

molecule  {
0 1
  O        2.1793270    -1.1884030     0.0070830
  O        2.0147220     1.0703310     0.0037530
  C       -2.3333640     0.6373300    -0.0064140
  C       -2.8929490    -0.7786760    -0.0059160
  C       -0.8407100     0.7390270    -0.0031060
  C        0.0222220    -0.2866530     0.0001530
  C        1.4732850    -0.0238670     0.0030520
  H       -2.7101490     1.1874440    -0.8789970
  H       -2.7141290     1.1896330     0.8630350
  H       -3.9853730    -0.7577330    -0.0084480
  H       -2.5694230    -1.3301270     0.8805270
  H       -2.5653610    -1.3323610    -0.8894680
  H       -0.4156920     1.7426300    -0.0033930
  H       -0.2910298    -1.3246432    -0.1492445
  H        3.1211320    -0.9203150     0.0096400
units angstrom
no_reorient  #important for SAPT in psi4, default
symmetry c1  #important for SAPT in psi4, default
}

set PROPERTIES_ORIGIN ["COM"]
properties('MP2/aug-cc-pvtz', properties = ['dipole'])
--------------------------------------------------------------------------

    Molecular point group: c1
  Charge       = 0
  Multiplicity = 1
  Basis Set: AUG-CC-PVTZ
    Blend: AUG-CC-PVTZ
  Basis Set: (AUG-CC-PVTZ AUX)
    Blend: AUG-CC-PVTZ-JKFIT

    Orbital Energies [Eh]
    ---------------------

    Doubly Occupied:

       1A    -20.610373     2A    -20.540119     3A    -11.385551
       4A    -11.268062     5A    -11.247442     6A    -11.241305
       7A    -11.228511     8A     -1.452926     9A     -1.348024
      10A     -1.111335    11A     -1.024019    12A     -0.916223
      13A     -0.842507    14A     -0.737822    15A     -0.705027
      16A     -0.694177    17A     -0.632107    18A     -0.620736
      19A     -0.615947    20A     -0.599725    21A     -0.568708
      22A     -0.514982    23A     -0.512365    24A     -0.504777
      25A     -0.482529    26A     -0.450674    27A     -0.380258

  @DF-RHF Final Energy:  -343.85883709537910

   => Energetics <=

    Nuclear Repulsion Energy =            285.4073136261814625
    One-Electron Energy =               -1034.0598399319276268
    Two-Electron Energy =                 404.7936892103670630
    Total Energy =                       -343.8588370953791014
  Basis Set: (AUG-CC-PVTZ AUX)
    Blend: AUG-CC-PVTZ-RI
    Molecular point group: c1

    Geometry (in Angstrom), charge = 0, multiplicity = 1:

       Center              X                  Y                   Z               Mass
    ------------   -----------------  -----------------  -----------------  -----------------
         O            2.179323791379    -1.188401149683     0.008594003167    15.994914619570
         O            2.014718791379     1.070332850317     0.005264003167    15.994914619570
         C           -2.333367208621     0.637331850317    -0.004902996833    12.000000000000
         C           -2.892952208621    -0.778674149683    -0.004404996833    12.000000000000
         C           -0.840713208621     0.739028850317    -0.001594996833    12.000000000000
         C            0.022218791379    -0.286651149683     0.001664003167    12.000000000000
         C            1.473281791379    -0.023865149683     0.004563003167    12.000000000000
         H           -2.710152208621     1.187445850317    -0.877485996833     1.007825032230
         H           -2.714132208621     1.189634850317     0.864546003167     1.007825032230
         H           -3.985376208621    -0.757731149683    -0.006936996833     1.007825032230
         H           -2.569426208621    -1.330125149683     0.882038003167     1.007825032230
         H           -2.565364208621    -1.332359149683    -0.887956996833     1.007825032230
         H           -0.415695208621     1.742631850317    -0.001881996833     1.007825032230
         H           -0.291033008621    -1.324641349683    -0.147733496833     1.007825032230
         H            3.121128791379    -0.920313149683     0.011151003167     1.007825032230

  Basis Set: AUG-CC-PVTZ
    Blend: AUG-CC-PVTZ
  Basis Set: (AUG-CC-PVTZ AUX)
    Blend: AUG-CC-PVTZ-JKFIT
	 Reference Energy          =    -343.8588370953791014 [Eh]
	 Singles Energy            =      -0.0000000000000000 [Eh]
	 Same-Spin Energy          =      -0.3406995884013107 [Eh]
	 Opposite-Spin Energy      =      -1.0995251171074669 [Eh]
	 Correlation Energy        =      -1.4402247055087776 [Eh]
	 Total Energy              =    -345.2990618008878982 [Eh]

	 ================> DF-SCS-MP2 Energies <==================
	-----------------------------------------------------------
	 SCS Same-Spin Scale       =       0.3333333333333333 [-]
	 SCS Opposite-Spin Scale   =       1.2000000000000000 [-]
	 SCS Same-Spin Energy      =      -0.1135665294671036 [Eh]
	 SCS Opposite-Spin Energy  =      -1.3194301405289603 [Eh]
	 SCS Correlation Energy    =      -1.4329966699960639 [Eh]
	 SCS Total Energy          =    -345.2918337653751450 [Eh]
	-----------------------------------------------------------

  Dipole Moment: [D]
     X:    -1.8166      Y:    -0.9125      Z:    -0.1030     Total:     2.0355

*** Psi4 exiting successfully. Buy a developer a beer!
