                               Psi4 1.3.2 release

  ==> Input File <==

--------------------------------------------------------------------------
#psi4
#
memory 32 gb

molecule  {
0 1
  O        2.1793270    -1.1884030     0.0070830
  O        2.0147220     1.0703310     0.0037530
  C       -2.3333640     0.6373300    -0.0064140
  C       -2.8929490    -0.7786760    -0.0059160
  C       -0.8407100     0.7390270    -0.0031060
  C        0.0216864    -0.2863972     0.2001521
  C        1.4732850    -0.0238670     0.0030520
  H       -2.7101490     1.1874440    -0.8789970
  H       -2.7141290     1.1896330     0.8630350
  H       -3.9853730    -0.7577330    -0.0084480
  H       -2.5694230    -1.3301270     0.8805270
  H       -2.5653610    -1.3323610    -0.8894680
  H       -0.4156920     1.7426300    -0.0033930
  H       -0.2913660    -1.3244520     0.0007550
  H        3.1211320    -0.9203150     0.0096400
units angstrom
no_reorient  #important for SAPT in psi4, default
symmetry c1  #important for SAPT in psi4, default
}

set PROPERTIES_ORIGIN ["COM"]
properties('MP2/aug-cc-pvtz', properties = ['dipole'])
--------------------------------------------------------------------------

    Molecular point group: c1
  Charge       = 0
  Multiplicity = 1
  Basis Set: AUG-CC-PVTZ
    Blend: AUG-CC-PVTZ
  Basis Set: (AUG-CC-PVTZ AUX)
    Blend: AUG-CC-PVTZ-JKFIT

    Orbital Energies [Eh]
    ---------------------

    Doubly Occupied:

       1A    -20.609666     2A    -20.539627     3A    -11.385885
       4A    -11.273304     5A    -11.248705     6A    -11.243718
       7A    -11.229013     8A     -1.452091     9A     -1.347417
      10A     -1.110344    11A     -1.022349    12A     -0.915429
      13A     -0.840542    14A     -0.737452    15A     -0.702099
      16A     -0.693476    17A     -0.632517    18A     -0.621167
      19A     -0.615945    20A     -0.594946    21A     -0.565998
      22A     -0.516633    23A     -0.511770    24A     -0.504817
      25A     -0.481913    26A     -0.448487    27A     -0.379524

  @DF-RHF Final Energy:  -343.84951937638198

   => Energetics <=

    Nuclear Repulsion Energy =            284.9997264885028017
    One-Electron Energy =               -1033.2488168028758082
    Two-Electron Energy =                 404.3995709379910295
    Total Energy =                       -343.8495193763819771
  Basis Set: (AUG-CC-PVTZ AUX)
    Blend: AUG-CC-PVTZ-RI
    Molecular point group: c1

    Geometry (in Angstrom), charge = 0, multiplicity = 1:

       Center              X                  Y                   Z               Mass
    ------------   -----------------  -----------------  -----------------  -----------------
         O            2.179391416232    -1.188433755549    -0.016904252734    15.994914619570
         O            2.014786416232     1.070300244451    -0.020234252734    15.994914619570
         C           -2.333299583768     0.637299244451    -0.030401252734    12.000000000000
         C           -2.892884583768    -0.778706755549    -0.029903252734    12.000000000000
         C           -0.840645583768     0.738996244451    -0.027093252734    12.000000000000
         C            0.021750816232    -0.286427955549     0.176164847266    12.000000000000
         C            1.473349416232    -0.023897755549    -0.020935252734    12.000000000000
         H           -2.710084583768     1.187413244451    -0.902984252734     1.007825032230
         H           -2.714064583768     1.189602244451     0.839047747266     1.007825032230
         H           -3.985308583768    -0.757763755549    -0.032435252734     1.007825032230
         H           -2.569358583768    -1.330157755549     0.856539747266     1.007825032230
         H           -2.565296583768    -1.332391755549    -0.913455252734     1.007825032230
         H           -0.415627583768     1.742599244451    -0.027380252734     1.007825032230
         H           -0.291301583768    -1.324482755549    -0.023232252734     1.007825032230
         H            3.121196416232    -0.920345755549    -0.014347252734     1.007825032230

  Basis Set: AUG-CC-PVTZ
    Blend: AUG-CC-PVTZ
  Basis Set: (AUG-CC-PVTZ AUX)
    Blend: AUG-CC-PVTZ-JKFIT
	 Reference Energy          =    -343.8495193763819771 [Eh]
	 Singles Energy            =      -0.0000000000000000 [Eh]
	 Same-Spin Energy          =      -0.3411234440978518 [Eh]
	 Opposite-Spin Energy      =      -1.1005957474960315 [Eh]
	 Correlation Energy        =      -1.4417191915938834 [Eh]
	 Total Energy              =    -345.2912385679758813 [Eh]

	 ================> DF-SCS-MP2 Energies <==================
	-----------------------------------------------------------
	 SCS Same-Spin Scale       =       0.3333333333333333 [-]
	 SCS Opposite-Spin Scale   =       1.2000000000000000 [-]
	 SCS Same-Spin Energy      =      -0.1137078146992839 [Eh]
	 SCS Opposite-Spin Energy  =      -1.3207148969952378 [Eh]
	 SCS Correlation Energy    =      -1.4344227116945216 [Eh]
	 SCS Total Energy          =    -345.2839420880765147 [Eh]
	-----------------------------------------------------------

  Dipole Moment: [D]
     X:    -1.8507      Y:    -0.8711      Z:    -0.1515     Total:     2.0510

*** Psi4 exiting successfully. Buy a developer a beer!
