                               Psi4 1.3.2 release

  ==> Input File <==

--------------------------------------------------------------------------
#psi4
#
memory 32 gb

molecule  {
0 1
  O        2.1793270    -1.1884030     0.0070830
  O        2.0147220     1.0703310     0.0037530
  C       -2.3333640     0.6373300    -0.0064140
  C       -2.8929490    -0.7786760    -0.0059160
  C       -0.8407100     0.7390270    -0.0031060
  C        0.0220881    -0.2865890     0.0501528
  C        1.4732850    -0.0238670     0.0030520
  H       -2.7101490     1.1874440    -0.8789970
  H       -2.7141290     1.1896330     0.8630350
  H       -3.9853730    -0.7577330    -0.0084480
  H       -2.5694230    -1.3301270     0.8805270
  H       -2.5653610    -1.3323610    -0.8894680
  H       -0.4156920     1.7426300    -0.0033930
  H       -0.2913660    -1.3244520     0.0007550
  H        3.1211320    -0.9203150     0.0096400
units angstrom
no_reorient  #important for SAPT in psi4, default
symmetry c1  #important for SAPT in psi4, default
}

set PROPERTIES_ORIGIN ["COM"]
properties('MP2/aug-cc-pvtz', properties = ['dipole'])
--------------------------------------------------------------------------

    Molecular point group: c1
  Charge       = 0
  Multiplicity = 1
  Basis Set: AUG-CC-PVTZ
    Blend: AUG-CC-PVTZ
  Basis Set: (AUG-CC-PVTZ AUX)
    Blend: AUG-CC-PVTZ-JKFIT

    Orbital Energies [Eh]
    ---------------------

    Doubly Occupied:

       1A    -20.610385     2A    -20.540032     3A    -11.385577
       4A    -11.268089     5A    -11.247432     6A    -11.240611
       7A    -11.228584     8A     -1.452904     9A     -1.347976
      10A     -1.111309    11A     -1.024055    12A     -0.916277
      13A     -0.842364    14A     -0.738903    15A     -0.705307
      16A     -0.694189    17A     -0.631967    18A     -0.620704
      19A     -0.615919    20A     -0.600433    21A     -0.569149
      22A     -0.515095    23A     -0.512293    24A     -0.504909
      25A     -0.482538    26A     -0.450544    27A     -0.380529

  @DF-RHF Final Energy:  -343.85955673781785

   => Energetics <=

    Nuclear Repulsion Energy =            285.4226118384018491
    One-Electron Energy =               -1034.0881868140008919
    Two-Electron Energy =                 404.8060182377811884
    Total Energy =                       -343.8595567378178544
  Basis Set: (AUG-CC-PVTZ AUX)
    Blend: AUG-CC-PVTZ-RI
    Molecular point group: c1

    Geometry (in Angstrom), charge = 0, multiplicity = 1:

       Center              X                  Y                   Z               Mass
    ------------   -----------------  -----------------  -----------------  -----------------
         O            2.179343237492    -1.188410751610     0.001086230945    15.994914619570
         O            2.014738237492     1.070323248390    -0.002243769055    15.994914619570
         C           -2.333347762508     0.637322248390    -0.012410769055    12.000000000000
         C           -2.892932762508    -0.778683751610    -0.011912769055    12.000000000000
         C           -0.840693762508     0.739019248390    -0.009102769055    12.000000000000
         C            0.022104337492    -0.286596751610     0.044156030945    12.000000000000
         C            1.473301237492    -0.023874751610    -0.002944769055    12.000000000000
         H           -2.710132762508     1.187436248390    -0.884993769055     1.007825032230
         H           -2.714112762508     1.189625248390     0.857038230945     1.007825032230
         H           -3.985356762508    -0.757740751610    -0.014444769055     1.007825032230
         H           -2.569406762508    -1.330134751610     0.874530230945     1.007825032230
         H           -2.565344762508    -1.332368751610    -0.895464769055     1.007825032230
         H           -0.415675762508     1.742622248390    -0.009389769055     1.007825032230
         H           -0.291349762508    -1.324459751610    -0.005241769055     1.007825032230
         H            3.121148237492    -0.920322751610     0.003643230945     1.007825032230

  Basis Set: AUG-CC-PVTZ
    Blend: AUG-CC-PVTZ
  Basis Set: (AUG-CC-PVTZ AUX)
    Blend: AUG-CC-PVTZ-JKFIT
	 Reference Energy          =    -343.8595567378178544 [Eh]
	 Singles Energy            =      -0.0000000000000000 [Eh]
	 Same-Spin Energy          =      -0.3406692451020538 [Eh]
	 Opposite-Spin Energy      =      -1.0994646615656998 [Eh]
	 Correlation Energy        =      -1.4401339066677536 [Eh]
	 Total Energy              =    -345.2996906444856222 [Eh]

	 ================> DF-SCS-MP2 Energies <==================
	-----------------------------------------------------------
	 SCS Same-Spin Scale       =       0.3333333333333333 [-]
	 SCS Opposite-Spin Scale   =       1.2000000000000000 [-]
	 SCS Same-Spin Energy      =      -0.1135564150340179 [Eh]
	 SCS Opposite-Spin Energy  =      -1.3193575938788398 [Eh]
	 SCS Correlation Energy    =      -1.4329140089128578 [Eh]
	 SCS Total Energy          =    -345.2924707467307144 [Eh]
	-----------------------------------------------------------

  Dipole Moment: [D]
     X:    -1.8211      Y:    -0.9198      Z:    -0.0399     Total:     2.0406

*** Psi4 exiting successfully. Buy a developer a beer!
