                               Psi4 1.3.2 release

  ==> Input File <==

--------------------------------------------------------------------------
#psi4
#
memory 32 gb

molecule  {
0 1
  O        2.1793270    -1.1884030     0.0070830
  O        2.0147220     1.0703310     0.0037530
  C       -2.3333640     0.6373300    -0.0064140
  C       -2.8929490    -0.7786760    -0.0059160
  C       -0.8407100     0.7390270    -0.0031060
  C        0.0222220    -0.2866530     0.0001530
  C        1.4732850    -0.0238670     0.0030520
  H       -2.7101490     1.1874440    -0.8789970
  H       -2.7141290     1.1896330     0.8630350
  H       -3.9853730    -0.7577330    -0.0084480
  H       -2.5694230    -1.3301270     0.8805270
  H       -2.5653610    -1.3323610    -0.8894680
  H       -0.4156920     1.7426300    -0.0033930
  H       -0.2909178    -1.3247069    -0.1992443
  H        3.1211320    -0.9203150     0.0096400
units angstrom
no_reorient  #important for SAPT in psi4, default
symmetry c1  #important for SAPT in psi4, default
}

set PROPERTIES_ORIGIN ["COM"]
properties('MP2/aug-cc-pvtz', properties = ['dipole'])
--------------------------------------------------------------------------

    Molecular point group: c1
  Charge       = 0
  Multiplicity = 1
  Basis Set: AUG-CC-PVTZ
    Blend: AUG-CC-PVTZ
  Basis Set: (AUG-CC-PVTZ AUX)
    Blend: AUG-CC-PVTZ-JKFIT

    Orbital Energies [Eh]
    ---------------------

    Doubly Occupied:

       1A    -20.610326     2A    -20.540167     3A    -11.385553
       4A    -11.268310     5A    -11.247514     6A    -11.241999
       7A    -11.228476     8A     -1.452901     9A     -1.348033
      10A     -1.111306    11A     -1.023909    12A     -0.916134
      13A     -0.842523    14A     -0.736958    15A     -0.704630
      16A     -0.694132    17A     -0.632232    18A     -0.620790
      19A     -0.615969    20A     -0.598923    21A     -0.568174
      22A     -0.514999    23A     -0.512364    24A     -0.504669
      25A     -0.482492    26A     -0.450667    27A     -0.379996

  @DF-RHF Final Energy:  -343.85769563125484

   => Energetics <=

    Nuclear Repulsion Energy =            285.3738706037203769
    One-Electron Energy =               -1033.9948383892599395
    Two-Electron Energy =                 404.7632721542846639
    Total Energy =                       -343.8576956312548418
  Basis Set: (AUG-CC-PVTZ AUX)
    Blend: AUG-CC-PVTZ-RI
    Molecular point group: c1

    Geometry (in Angstrom), charge = 0, multiplicity = 1:

       Center              X                  Y                   Z               Mass
    ------------   -----------------  -----------------  -----------------  -----------------
         O            2.179322663207    -1.188400508035     0.009097649609    15.994914619570
         O            2.014717663207     1.070333491965     0.005767649609    15.994914619570
         C           -2.333368336793     0.637332491965    -0.004399350391    12.000000000000
         C           -2.892953336793    -0.778673508035    -0.003901350391    12.000000000000
         C           -0.840714336793     0.739029491965    -0.001091350391    12.000000000000
         C            0.022217663207    -0.286650508035     0.002167649609    12.000000000000
         C            1.473280663207    -0.023864508035     0.005066649609    12.000000000000
         H           -2.710153336793     1.187446491965    -0.876982350391     1.007825032230
         H           -2.714133336793     1.189635491965     0.865049649609     1.007825032230
         H           -3.985377336793    -0.757730508035    -0.006433350391     1.007825032230
         H           -2.569427336793    -1.330124508035     0.882541649609     1.007825032230
         H           -2.565365336793    -1.332358508035    -0.887453350391     1.007825032230
         H           -0.415696336793     1.742632491965    -0.001378350391     1.007825032230
         H           -0.290922136793    -1.324704408035    -0.197229650391     1.007825032230
         H            3.121127663207    -0.920312508035     0.011654649609     1.007825032230

  Basis Set: AUG-CC-PVTZ
    Blend: AUG-CC-PVTZ
  Basis Set: (AUG-CC-PVTZ AUX)
    Blend: AUG-CC-PVTZ-JKFIT
	 Reference Energy          =    -343.8576956312548418 [Eh]
	 Singles Energy            =      -0.0000000000000000 [Eh]
	 Same-Spin Energy          =      -0.3407466479382887 [Eh]
	 Opposite-Spin Energy      =      -1.0996289653670830 [Eh]
	 Correlation Energy        =      -1.4403756133053718 [Eh]
	 Total Energy              =    -345.2980712445602194 [Eh]

	 ================> DF-SCS-MP2 Energies <==================
	-----------------------------------------------------------
	 SCS Same-Spin Scale       =       0.3333333333333333 [-]
	 SCS Opposite-Spin Scale   =       1.2000000000000000 [-]
	 SCS Same-Spin Energy      =      -0.1135822159794296 [Eh]
	 SCS Opposite-Spin Energy  =      -1.3195547584404996 [Eh]
	 SCS Correlation Energy    =      -1.4331369744199292 [Eh]
	 SCS Total Energy          =    -345.2908326056747796 [Eh]
	-----------------------------------------------------------

  Dipole Moment: [D]
     X:    -1.8147      Y:    -0.9043      Z:    -0.1357     Total:     2.0320

*** Psi4 exiting successfully. Buy a developer a beer!
