                               Psi4 1.3.2 release

  ==> Input File <==

--------------------------------------------------------------------------
#psi4
#
memory 32 gb

molecule  {
0 1
  O        2.1793270    -1.1884030     0.0070830
  O        2.0147220     1.0703310     0.0037530
  C       -2.3333640     0.6373300    -0.0064140
  C       -2.8929490    -0.7786760    -0.0059160
  C       -0.8407100     0.7390270    -0.0031060
  C        0.0222220    -0.2866530     0.0001530
  C        1.4732850    -0.0238670     0.0030520
  H       -2.7101490     1.1874440    -0.8789970
  H       -2.7141290     1.1896330     0.8630350
  H       -3.9853730    -0.7577330    -0.0084480
  H       -2.5694230    -1.3301270     0.8805270
  H       -2.5653610    -1.3323610    -0.8894680
  H       -0.4156920     1.7426300    -0.0033930
  H       -0.2911419    -1.3245795    -0.0992447
  H        3.1211320    -0.9203150     0.0096400
units angstrom
no_reorient  #important for SAPT in psi4, default
symmetry c1  #important for SAPT in psi4, default
}

set PROPERTIES_ORIGIN ["COM"]
properties('MP2/aug-cc-pvtz', properties = ['dipole'])
--------------------------------------------------------------------------

    Molecular point group: c1
  Charge       = 0
  Multiplicity = 1
  Basis Set: AUG-CC-PVTZ
    Blend: AUG-CC-PVTZ
  Basis Set: (AUG-CC-PVTZ AUX)
    Blend: AUG-CC-PVTZ-JKFIT

    Orbital Energies [Eh]
    ---------------------

    Doubly Occupied:

       1A    -20.610407     2A    -20.540085     3A    -11.385552
       4A    -11.267884     5A    -11.247390     6A    -11.240804
       7A    -11.228536     8A     -1.452944     9A     -1.348018
      10A     -1.111358    11A     -1.024100    12A     -0.916288
      13A     -0.842496    14A     -0.738474    15A     -0.705310
      16A     -0.694208    17A     -0.632012    18A     -0.620692
      19A     -0.615932    20A     -0.600323    21A     -0.569077
      22A     -0.514968    23A     -0.512367    24A     -0.504850
      25A     -0.482557    26A     -0.450678    27A     -0.380448

  @DF-RHF Final Energy:  -343.85961854796170

   => Energetics <=

    Nuclear Repulsion Energy =            285.4315230701801624
    One-Electron Energy =               -1034.1067695037147587
    Two-Electron Energy =                 404.8156278855728374
    Total Energy =                       -343.8596185479617020
  Basis Set: (AUG-CC-PVTZ AUX)
    Blend: AUG-CC-PVTZ-RI
    Molecular point group: c1

    Geometry (in Angstrom), charge = 0, multiplicity = 1:

       Center              X                  Y                   Z               Mass
    ------------   -----------------  -----------------  -----------------  -----------------
         O            2.179324920559    -1.188401791331     0.008090356726    15.994914619570
         O            2.014719920559     1.070332208669     0.004760356726    15.994914619570
         C           -2.333366079441     0.637331208669    -0.005406643274    12.000000000000
         C           -2.892951079441    -0.778674791331    -0.004908643274    12.000000000000
         C           -0.840712079441     0.739028208669    -0.002098643274    12.000000000000
         C            0.022219920559    -0.286651791331     0.001160356726    12.000000000000
         C            1.473282920559    -0.023865791331     0.004059356726    12.000000000000
         H           -2.710151079441     1.187445208669    -0.877989643274     1.007825032230
         H           -2.714131079441     1.189634208669     0.864042356726     1.007825032230
         H           -3.985375079441    -0.757731791331    -0.007440643274     1.007825032230
         H           -2.569425079441    -1.330125791331     0.881534356726     1.007825032230
         H           -2.565363079441    -1.332359791331    -0.888460643274     1.007825032230
         H           -0.415694079441     1.742631208669    -0.002385643274     1.007825032230
         H           -0.291143979441    -1.324578291331    -0.098237343274     1.007825032230
         H            3.121129920559    -0.920313791331     0.010647356726     1.007825032230

  Basis Set: AUG-CC-PVTZ
    Blend: AUG-CC-PVTZ
  Basis Set: (AUG-CC-PVTZ AUX)
    Blend: AUG-CC-PVTZ-JKFIT
	 Reference Energy          =    -343.8596185479617020 [Eh]
	 Singles Energy            =      -0.0000000000000000 [Eh]
	 Same-Spin Energy          =      -0.3406657786467794 [Eh]
	 Opposite-Spin Energy      =      -1.0994553067522259 [Eh]
	 Correlation Energy        =      -1.4401210853990052 [Eh]
	 Total Energy              =    -345.2997396333607298 [Eh]

	 ================> DF-SCS-MP2 Energies <==================
	-----------------------------------------------------------
	 SCS Same-Spin Scale       =       0.3333333333333333 [-]
	 SCS Opposite-Spin Scale   =       1.2000000000000000 [-]
	 SCS Same-Spin Energy      =      -0.1135552595489265 [Eh]
	 SCS Opposite-Spin Energy  =      -1.3193463681026711 [Eh]
	 SCS Correlation Energy    =      -1.4329016276515976 [Eh]
	 SCS Total Energy          =    -345.2925201756132765 [Eh]
	-----------------------------------------------------------

  Dipole Moment: [D]
     X:    -1.8179      Y:    -0.9184      Z:    -0.0700     Total:     2.0379

*** Psi4 exiting successfully. Buy a developer a beer!
