                               Psi4 1.3.2 release

  ==> Input File <==

--------------------------------------------------------------------------
#psi4
#
memory 32 gb

molecule  {
0 1
  O        2.1793270    -1.1884030     0.0070830
  O        2.0147220     1.0703310     0.0037530
  C       -2.3333640     0.6373300    -0.0064140
  C       -2.8929490    -0.7786760    -0.0059160
  C       -0.8407100     0.7390270    -0.0031060
  C        0.0214186    -0.2862693     0.3001517
  C        1.4732850    -0.0238670     0.0030520
  H       -2.7101490     1.1874440    -0.8789970
  H       -2.7141290     1.1896330     0.8630350
  H       -3.9853730    -0.7577330    -0.0084480
  H       -2.5694230    -1.3301270     0.8805270
  H       -2.5653610    -1.3323610    -0.8894680
  H       -0.4156920     1.7426300    -0.0033930
  H       -0.2913660    -1.3244520     0.0007550
  H        3.1211320    -0.9203150     0.0096400
units angstrom
no_reorient  #important for SAPT in psi4, default
symmetry c1  #important for SAPT in psi4, default
}

set PROPERTIES_ORIGIN ["COM"]
properties('MP2/aug-cc-pvtz', properties = ['dipole'])
--------------------------------------------------------------------------

    Molecular point group: c1
  Charge       = 0
  Multiplicity = 1
  Basis Set: AUG-CC-PVTZ
    Blend: AUG-CC-PVTZ
  Basis Set: (AUG-CC-PVTZ AUX)
    Blend: AUG-CC-PVTZ-JKFIT

    Orbital Energies [Eh]
    ---------------------

    Doubly Occupied:

       1A    -20.608779     2A    -20.539188     3A    -11.386231
       4A    -11.280025     5A    -11.250371     6A    -11.247678
       7A    -11.229573     8A     -1.451076     9A     -1.346741
      10A     -1.109230    11A     -1.019911    12A     -0.914505
      13A     -0.838198    14A     -0.736129    15A     -0.698484
      16A     -0.692281    17A     -0.633333    18A     -0.621324
      19A     -0.616029    20A     -0.588206    21A     -0.562006
      22A     -0.518096    23A     -0.511764    24A     -0.504176
      25A     -0.481148    26A     -0.445662    27A     -0.378449

  @DF-RHF Final Energy:  -343.83576286495082

   => Energetics <=

    Nuclear Repulsion Energy =            284.4516217128429503
    One-Electron Energy =               -1032.1575843905675356
    Two-Electron Energy =                 403.8701998127737056
    Total Energy =                       -343.8357628649508229
  Basis Set: (AUG-CC-PVTZ AUX)
    Blend: AUG-CC-PVTZ-RI
    Molecular point group: c1

    Geometry (in Angstrom), charge = 0, multiplicity = 1:

       Center              X                  Y                   Z               Mass
    ------------   -----------------  -----------------  -----------------  -----------------
         O            2.179423535392    -1.188449095506    -0.028897916517    15.994914619570
         O            2.014818535392     1.070284904494    -0.032227916517    15.994914619570
         C           -2.333267464608     0.637283904494    -0.042394916517    12.000000000000
         C           -2.892852464608    -0.778722095506    -0.041896916517    12.000000000000
         C           -0.840613464608     0.738980904494    -0.039086916517    12.000000000000
         C            0.021515135392    -0.286315395506     0.264170783483    12.000000000000
         C            1.473381535392    -0.023913095506    -0.032928916517    12.000000000000
         H           -2.710052464608     1.187397904494    -0.914977916517     1.007825032230
         H           -2.714032464608     1.189586904494     0.827054083483     1.007825032230
         H           -3.985276464608    -0.757779095506    -0.044428916517     1.007825032230
         H           -2.569326464608    -1.330173095506     0.844546083483     1.007825032230
         H           -2.565264464608    -1.332407095506    -0.925448916517     1.007825032230
         H           -0.415595464608     1.742583904494    -0.039373916517     1.007825032230
         H           -0.291269464608    -1.324498095506    -0.035225916517     1.007825032230
         H            3.121228535392    -0.920361095506    -0.026340916517     1.007825032230

  Basis Set: AUG-CC-PVTZ
    Blend: AUG-CC-PVTZ
  Basis Set: (AUG-CC-PVTZ AUX)
    Blend: AUG-CC-PVTZ-JKFIT
	 Reference Energy          =    -343.8357628649508229 [Eh]
	 Singles Energy            =      -0.0000000000000000 [Eh]
	 Same-Spin Energy          =      -0.3417176873730293 [Eh]
	 Opposite-Spin Energy      =      -1.1022545831818336 [Eh]
	 Correlation Energy        =      -1.4439722705548630 [Eh]
	 Total Energy              =    -345.2797351355056890 [Eh]

	 ================> DF-SCS-MP2 Energies <==================
	-----------------------------------------------------------
	 SCS Same-Spin Scale       =       0.3333333333333333 [-]
	 SCS Opposite-Spin Scale   =       1.2000000000000000 [-]
	 SCS Same-Spin Energy      =      -0.1139058957910098 [Eh]
	 SCS Opposite-Spin Energy  =      -1.3227054998182002 [Eh]
	 SCS Correlation Energy    =      -1.4366113956092099 [Eh]
	 SCS Total Energy          =    -345.2723742605600137 [Eh]
	-----------------------------------------------------------

  Dipole Moment: [D]
     X:    -1.8851      Y:    -0.8091      Z:    -0.2280     Total:     2.0640

*** Psi4 exiting successfully. Buy a developer a beer!
