                               Psi4 1.3.2 release

  ==> Input File <==

--------------------------------------------------------------------------
#psi4
#
memory 32 gb

molecule  {
0 1
  O        2.1793270    -1.1884030     0.0070830
  O        2.0147220     1.0703310     0.0037530
  C       -2.3333640     0.6373300    -0.0064140
  C       -2.8929490    -0.7786760    -0.0059160
  C       -0.8407100     0.7390270    -0.0031060
  C        0.0222220    -0.2866530     0.0001530
  C        1.4732850    -0.0238670     0.0030520
  H       -2.7101490     1.1874440    -0.8789970
  H       -2.7141290     1.1896330     0.8630350
  H       -3.9853730    -0.7577330    -0.0084480
  H       -2.5694230    -1.3301270     0.8805270
  H       -2.5653610    -1.3323610    -0.8894680
  H       -0.4163810     1.7430055     0.2966060
  H       -0.2913660    -1.3244520     0.0007550
  H        3.1211320    -0.9203150     0.0096400
units angstrom
no_reorient  #important for SAPT in psi4, default
symmetry c1  #important for SAPT in psi4, default
}

set PROPERTIES_ORIGIN ["COM"]
properties('MP2/aug-cc-pvtz', properties = ['dipole'])
--------------------------------------------------------------------------

    Molecular point group: c1
  Charge       = 0
  Multiplicity = 1
  Basis Set: AUG-CC-PVTZ
    Blend: AUG-CC-PVTZ
  Basis Set: (AUG-CC-PVTZ AUX)
    Blend: AUG-CC-PVTZ-JKFIT

    Orbital Energies [Eh]
    ---------------------

    Doubly Occupied:

       1A    -20.610583     2A    -20.540184     3A    -11.385692
       4A    -11.271627     5A    -11.247259     6A    -11.241587
       7A    -11.228664     8A     -1.453094     9A     -1.348071
      10A     -1.110791    11A     -1.024274    12A     -0.915230
      13A     -0.842546    14A     -0.734510    15A     -0.705161
      16A     -0.692565    17A     -0.632569    18A     -0.620817
      19A     -0.615637    20A     -0.598431    21A     -0.569295
      22A     -0.517397    23A     -0.512438    24A     -0.498822
      25A     -0.482095    26A     -0.450793    27A     -0.379466

  @DF-RHF Final Energy:  -343.85352105072570

   => Energetics <=

    Nuclear Repulsion Energy =            285.2877024113124094
    One-Electron Energy =               -1033.8232497316178069
    Two-Electron Energy =                 404.6820262695796373
    Total Energy =                       -343.8535210507257034
  Basis Set: (AUG-CC-PVTZ AUX)
    Blend: AUG-CC-PVTZ-RI
    Molecular point group: c1

    Geometry (in Angstrom), charge = 0, multiplicity = 1:

       Center              X                  Y                   Z               Mass
    ------------   -----------------  -----------------  -----------------  -----------------
         O            2.179334118187    -1.188406858034     0.004061182175    15.994914619570
         O            2.014729118187     1.070327141966     0.000731182175    15.994914619570
         C           -2.333356881813     0.637326141966    -0.009435817825    12.000000000000
         C           -2.892941881813    -0.778679858034    -0.008937817825    12.000000000000
         C           -0.840702881813     0.739023141966    -0.006127817825    12.000000000000
         C            0.022229118187    -0.286656858034    -0.002868817825    12.000000000000
         C            1.473292118187    -0.023870858034     0.000030182175    12.000000000000
         H           -2.710141881813     1.187440141966    -0.882018817825     1.007825032230
         H           -2.714121881813     1.189629141966     0.860013182175     1.007825032230
         H           -3.985365881813    -0.757736858034    -0.011469817825     1.007825032230
         H           -2.569415881813    -1.330130858034     0.877505182175     1.007825032230
         H           -2.565353881813    -1.332364858034    -0.892489817825     1.007825032230
         H           -0.416373881813     1.743001641966     0.293584182175     1.007825032230
         H           -0.291358881813    -1.324455858034    -0.002266817825     1.007825032230
         H            3.121139118187    -0.920318858034     0.006618182175     1.007825032230

  Basis Set: AUG-CC-PVTZ
    Blend: AUG-CC-PVTZ
  Basis Set: (AUG-CC-PVTZ AUX)
    Blend: AUG-CC-PVTZ-JKFIT
	 Reference Energy          =    -343.8535210507257034 [Eh]
	 Singles Energy            =      -0.0000000000000000 [Eh]
	 Same-Spin Energy          =      -0.3409928984148961 [Eh]
	 Opposite-Spin Energy      =      -1.1002735715446581 [Eh]
	 Correlation Energy        =      -1.4412664699595541 [Eh]
	 Total Energy              =    -345.2947875206852473 [Eh]

	 ================> DF-SCS-MP2 Energies <==================
	-----------------------------------------------------------
	 SCS Same-Spin Scale       =       0.3333333333333333 [-]
	 SCS Opposite-Spin Scale   =       1.2000000000000000 [-]
	 SCS Same-Spin Energy      =      -0.1136642994716320 [Eh]
	 SCS Opposite-Spin Energy  =      -1.3203282858535896 [Eh]
	 SCS Correlation Energy    =      -1.4339925853252216 [Eh]
	 SCS Total Energy          =    -345.2875136360509032 [Eh]
	-----------------------------------------------------------

  Dipole Moment: [D]
     X:    -1.8134      Y:    -0.9672      Z:     0.1646     Total:     2.0618

*** Psi4 exiting successfully. Buy a developer a beer!
