                               Psi4 1.3.2 release

  ==> Input File <==

--------------------------------------------------------------------------
#psi4
#
memory 32 gb

molecule  {
0 1
  O        2.1793270    -1.1884030     0.0070830
  O        2.0147220     1.0703310     0.0037530
  C       -2.3333640     0.6373300    -0.0064140
  C       -2.8929490    -0.7786760    -0.0059160
  C       -0.8407100     0.7390270    -0.0031060
  C        0.0222220    -0.2866530     0.0001530
  C        1.4732850    -0.0238670     0.0030520
  H       -2.7101490     1.1874440    -0.8789970
  H       -2.7141290     1.1896330     0.8630350
  H       -3.9853730    -0.7577330    -0.0084480
  H       -2.5694230    -1.3301270     0.8805270
  H       -2.5653610    -1.3323610    -0.8894680
  H       -0.4160365     1.7428178     0.1466065
  H       -0.2913660    -1.3244520     0.0007550
  H        3.1211320    -0.9203150     0.0096400
units angstrom
no_reorient  #important for SAPT in psi4, default
symmetry c1  #important for SAPT in psi4, default
}

set PROPERTIES_ORIGIN ["COM"]
properties('MP2/aug-cc-pvtz', properties = ['dipole'])
--------------------------------------------------------------------------

    Molecular point group: c1
  Charge       = 0
  Multiplicity = 1
  Basis Set: AUG-CC-PVTZ
    Blend: AUG-CC-PVTZ
  Basis Set: (AUG-CC-PVTZ AUX)
    Blend: AUG-CC-PVTZ-JKFIT

    Orbital Energies [Eh]
    ---------------------

    Doubly Occupied:

       1A    -20.610472     2A    -20.540092     3A    -11.385589
       4A    -11.268736     5A    -11.247319     6A    -11.240702
       7A    -11.228580     8A     -1.452994     9A     -1.348030
      10A     -1.111217    11A     -1.024189    12A     -0.916040
      13A     -0.842498    14A     -0.737769    15A     -0.705431
      16A     -0.693841    17A     -0.632108    18A     -0.620697
      19A     -0.615826    20A     -0.600208    21A     -0.569352
      22A     -0.515826    23A     -0.512366    24A     -0.503132
      25A     -0.482481    26A     -0.450711    27A     -0.380307

  @DF-RHF Final Energy:  -343.85866543393445

   => Energetics <=

    Nuclear Repulsion Energy =            285.4090621514198460
    One-Electron Energy =               -1034.0624285376629814
    Two-Electron Energy =                 404.7947009523086308
    Total Energy =                       -343.8586654339344477
  Basis Set: (AUG-CC-PVTZ AUX)
    Blend: AUG-CC-PVTZ-RI
    Molecular point group: c1

    Geometry (in Angstrom), charge = 0, multiplicity = 1:

       Center              X                  Y                   Z               Mass
    ------------   -----------------  -----------------  -----------------  -----------------
         O            2.179330648050    -1.188404967338     0.005572122506    15.994914619570
         O            2.014725648050     1.070329032662     0.002242122506    15.994914619570
         C           -2.333360351950     0.637328032662    -0.007924877494    12.000000000000
         C           -2.892945351950    -0.778677967338    -0.007426877494    12.000000000000
         C           -0.840706351950     0.739025032662    -0.004616877494    12.000000000000
         C            0.022225648050    -0.286654967338    -0.001357877494    12.000000000000
         C            1.473288648050    -0.023868967338     0.001541122506    12.000000000000
         H           -2.710145351950     1.187442032662    -0.880507877494     1.007825032230
         H           -2.714125351950     1.189631032662     0.861524122506     1.007825032230
         H           -3.985369351950    -0.757734967338    -0.009958877494     1.007825032230
         H           -2.569419351950    -1.330128967338     0.879016122506     1.007825032230
         H           -2.565357351950    -1.332362967338    -0.890978877494     1.007825032230
         H           -0.416032851950     1.742815832662     0.145095622506     1.007825032230
         H           -0.291362351950    -1.324453967338    -0.000755877494     1.007825032230
         H            3.121135648050    -0.920316967338     0.008129122506     1.007825032230

  Basis Set: AUG-CC-PVTZ
    Blend: AUG-CC-PVTZ
  Basis Set: (AUG-CC-PVTZ AUX)
    Blend: AUG-CC-PVTZ-JKFIT
	 Reference Energy          =    -343.8586654339344477 [Eh]
	 Singles Energy            =      -0.0000000000000000 [Eh]
	 Same-Spin Energy          =      -0.3407287477340443 [Eh]
	 Opposite-Spin Energy      =      -1.0996122106177306 [Eh]
	 Correlation Energy        =      -1.4403409583517748 [Eh]
	 Total Energy              =    -345.2990063922862305 [Eh]

	 ================> DF-SCS-MP2 Energies <==================
	-----------------------------------------------------------
	 SCS Same-Spin Scale       =       0.3333333333333333 [-]
	 SCS Opposite-Spin Scale   =       1.2000000000000000 [-]
	 SCS Same-Spin Energy      =      -0.1135762492446814 [Eh]
	 SCS Opposite-Spin Energy  =      -1.3195346527412768 [Eh]
	 SCS Correlation Energy    =      -1.4331109019859583 [Eh]
	 SCS Total Energy          =    -345.2917763359204173 [Eh]
	-----------------------------------------------------------

  Dipole Moment: [D]
     X:    -1.8174      Y:    -0.9342      Z:     0.0820     Total:     2.0451

*** Psi4 exiting successfully. Buy a developer a beer!
