                               Psi4 1.3.2 release

  ==> Input File <==

--------------------------------------------------------------------------
#psi4
#
memory 32 gb

molecule  {
0 1
  O        2.1793270    -1.1884030     0.0070830
  O        2.0147220     1.0703310     0.0037530
  C       -2.3333640     0.6373300    -0.0064140
  C       -2.8929490    -0.7786760    -0.0059160
  C       -0.8407100     0.7390270    -0.0031060
  C        0.0222220    -0.2866530     0.0001530
  C        1.4732850    -0.0238670     0.0030520
  H       -2.7101490     1.1874440    -0.8789970
  H       -2.7141290     1.1896330     0.8630350
  H       -3.9853730    -0.7577330    -0.0084480
  H       -2.5694230    -1.3301270     0.8805270
  H       -2.5653610    -1.3323610    -0.8894680
  H       -0.4158068     1.7426926     0.0466068
  H       -0.2913660    -1.3244520     0.0007550
  H        3.1211320    -0.9203150     0.0096400
units angstrom
no_reorient  #important for SAPT in psi4, default
symmetry c1  #important for SAPT in psi4, default
}

set PROPERTIES_ORIGIN ["COM"]
properties('MP2/aug-cc-pvtz', properties = ['dipole'])
--------------------------------------------------------------------------

    Molecular point group: c1
  Charge       = 0
  Multiplicity = 1
  Basis Set: AUG-CC-PVTZ
    Blend: AUG-CC-PVTZ
  Basis Set: (AUG-CC-PVTZ AUX)
    Blend: AUG-CC-PVTZ-JKFIT

    Orbital Energies [Eh]
    ---------------------

    Doubly Occupied:

       1A    -20.610439     2A    -20.540063     3A    -11.385558
       4A    -11.267851     5A    -11.247344     6A    -11.240434
       7A    -11.228558     8A     -1.452964     9A     -1.348016
      10A     -1.111358    11A     -1.024169    12A     -0.916307
      13A     -0.842488    14A     -0.738874    15A     -0.705523
      16A     -0.694190    17A     -0.631954    18A     -0.620659
      19A     -0.615908    20A     -0.600747    21A     -0.569364
      22A     -0.515069    23A     -0.512367    24A     -0.504692
      25A     -0.482571    26A     -0.450685    27A     -0.380568

  @DF-RHF Final Energy:  -343.86005319843719

   => Energetics <=

    Nuclear Repulsion Energy =            285.4464034766961618
    One-Electron Energy =               -1034.1354704732518712
    Two-Electron Energy =                 404.8290137981185808
    Total Energy =                       -343.8600531984371855
  Basis Set: (AUG-CC-PVTZ AUX)
    Blend: AUG-CC-PVTZ-RI
    Molecular point group: c1

    Geometry (in Angstrom), charge = 0, multiplicity = 1:

       Center              X                  Y                   Z               Mass
    ------------   -----------------  -----------------  -----------------  -----------------
         O            2.179328334289    -1.188403706202     0.006579416395    15.994914619570
         O            2.014723334289     1.070330293798     0.003249416395    15.994914619570
         C           -2.333362665711     0.637329293798    -0.006917583605    12.000000000000
         C           -2.892947665711    -0.778676706202    -0.006419583605    12.000000000000
         C           -0.840708665711     0.739026293798    -0.003609583605    12.000000000000
         C            0.022223334289    -0.286653706202    -0.000350583605    12.000000000000
         C            1.473286334289    -0.023867706202     0.002548416395    12.000000000000
         H           -2.710147665711     1.187443293798    -0.879500583605     1.007825032230
         H           -2.714127665711     1.189632293798     0.862531416395     1.007825032230
         H           -3.985371665711    -0.757733706202    -0.008951583605     1.007825032230
         H           -2.569421665711    -1.330127706202     0.880023416395     1.007825032230
         H           -2.565359665711    -1.332361706202    -0.889971583605     1.007825032230
         H           -0.415805465711     1.742691893798     0.046103216395     1.007825032230
         H           -0.291364665711    -1.324452706202     0.000251416395     1.007825032230
         H            3.121133334289    -0.920315706202     0.009136416395     1.007825032230

  Basis Set: AUG-CC-PVTZ
    Blend: AUG-CC-PVTZ
  Basis Set: (AUG-CC-PVTZ AUX)
    Blend: AUG-CC-PVTZ-JKFIT
	 Reference Energy          =    -343.8600531984371855 [Eh]
	 Singles Energy            =      -0.0000000000000000 [Eh]
	 Same-Spin Energy          =      -0.3406486601416432 [Eh]
	 Opposite-Spin Energy      =      -1.0994254901074179 [Eh]
	 Correlation Energy        =      -1.4400741502490610 [Eh]
	 Total Energy              =    -345.3001273486862601 [Eh]

	 ================> DF-SCS-MP2 Energies <==================
	-----------------------------------------------------------
	 SCS Same-Spin Scale       =       0.3333333333333333 [-]
	 SCS Opposite-Spin Scale   =       1.2000000000000000 [-]
	 SCS Same-Spin Energy      =      -0.1135495533805477 [Eh]
	 SCS Opposite-Spin Energy  =      -1.3193105881289013 [Eh]
	 SCS Correlation Energy    =      -1.4328601415094491 [Eh]
	 SCS Total Energy          =    -345.2929133399466082 [Eh]
	-----------------------------------------------------------

  Dipole Moment: [D]
     X:    -1.8189      Y:    -0.9243      Z:     0.0252     Total:     2.0405

*** Psi4 exiting successfully. Buy a developer a beer!
