                               Psi4 1.3.2 release

  ==> Input File <==

--------------------------------------------------------------------------
#psi4
#
memory 32 gb

molecule  {
0 1
  O        2.1793270    -1.1884030     0.0070830
  O        2.0147220     1.0703310     0.0037530
  C       -2.3333640     0.6373300    -0.0064140
  C       -2.8929490    -0.7786760    -0.0059160
  C       -0.8407100     0.7390270    -0.0031060
  C        0.0222220    -0.2866530     0.0001530
  C        1.4732850    -0.0238670     0.0030520
  H       -2.7101490     1.1874440    -0.8789970
  H       -2.7141290     1.1896330     0.8630350
  H       -3.9853730    -0.7577330    -0.0084480
  H       -2.5694230    -1.3301270     0.8805270
  H       -2.5653610    -1.3323610    -0.8894680
  H       -0.4159217     1.7427552     0.0966067
  H       -0.2913660    -1.3244520     0.0007550
  H        3.1211320    -0.9203150     0.0096400
units angstrom
no_reorient  #important for SAPT in psi4, default
symmetry c1  #important for SAPT in psi4, default
}

set PROPERTIES_ORIGIN ["COM"]
properties('MP2/aug-cc-pvtz', properties = ['dipole'])
--------------------------------------------------------------------------

    Molecular point group: c1
  Charge       = 0
  Multiplicity = 1
  Basis Set: AUG-CC-PVTZ
    Blend: AUG-CC-PVTZ
  Basis Set: (AUG-CC-PVTZ AUX)
    Blend: AUG-CC-PVTZ-JKFIT

    Orbital Energies [Eh]
    ---------------------

    Doubly Occupied:

       1A    -20.610452     2A    -20.540074     3A    -11.385570
       4A    -11.268185     5A    -11.247334     6A    -11.240535
       7A    -11.228566     8A     -1.452975     9A     -1.348021
      10A     -1.111304    11A     -1.024176    12A     -0.916206
      13A     -0.842491    14A     -0.738452    15A     -0.705488
      16A     -0.694061    17A     -0.632013    18A     -0.620673
      19A     -0.615876    20A     -0.600545    21A     -0.569360
      22A     -0.515381    23A     -0.512363    24A     -0.504082
      25A     -0.482538    26A     -0.450695    27A     -0.380469

  @DF-RHF Final Energy:  -343.85954100704976

   => Energetics <=

    Nuclear Repulsion Energy =            285.4323250738218007
    One-Electron Energy =               -1034.1079631620277723
    Two-Electron Energy =                 404.8160970811561583
    Total Energy =                       -343.8595410070497564
  Basis Set: (AUG-CC-PVTZ AUX)
    Blend: AUG-CC-PVTZ-RI
    Molecular point group: c1

    Geometry (in Angstrom), charge = 0, multiplicity = 1:

       Center              X                  Y                   Z               Mass
    ------------   -----------------  -----------------  -----------------  -----------------
         O            2.179329491673    -1.188404336770     0.006075768947    15.994914619570
         O            2.014724491673     1.070329663230     0.002745768947    15.994914619570
         C           -2.333361508327     0.637328663230    -0.007421231053    12.000000000000
         C           -2.892946508327    -0.778677336770    -0.006923231053    12.000000000000
         C           -0.840707508327     0.739025663230    -0.004113231053    12.000000000000
         C            0.022224491673    -0.286654336770    -0.000854231053    12.000000000000
         C            1.473287491673    -0.023868336770     0.002044768947    12.000000000000
         H           -2.710146508327     1.187442663230    -0.880004231053     1.007825032230
         H           -2.714126508327     1.189631663230     0.862027768947     1.007825032230
         H           -3.985370508327    -0.757734336770    -0.009455231053     1.007825032230
         H           -2.569420508327    -1.330128336770     0.879519768947     1.007825032230
         H           -2.565358508327    -1.332362336770    -0.890475231053     1.007825032230
         H           -0.415919208327     1.742753863230     0.095599468947     1.007825032230
         H           -0.291363508327    -1.324453336770    -0.000252231053     1.007825032230
         H            3.121134491673    -0.920316336770     0.008632768947     1.007825032230

  Basis Set: AUG-CC-PVTZ
    Blend: AUG-CC-PVTZ
  Basis Set: (AUG-CC-PVTZ AUX)
    Blend: AUG-CC-PVTZ-JKFIT
	 Reference Energy          =    -343.8595410070497564 [Eh]
	 Singles Energy            =      -0.0000000000000000 [Eh]
	 Same-Spin Energy          =      -0.3406787859189723 [Eh]
	 Opposite-Spin Energy      =      -1.0994947659077419 [Eh]
	 Correlation Energy        =      -1.4401735518267142 [Eh]
	 Total Energy              =    -345.2997145588764738 [Eh]

	 ================> DF-SCS-MP2 Energies <==================
	-----------------------------------------------------------
	 SCS Same-Spin Scale       =       0.3333333333333333 [-]
	 SCS Opposite-Spin Scale   =       1.2000000000000000 [-]
	 SCS Same-Spin Energy      =      -0.1135595953063241 [Eh]
	 SCS Opposite-Spin Energy  =      -1.3193937190892902 [Eh]
	 SCS Correlation Energy    =      -1.4329533143956144 [Eh]
	 SCS Total Energy          =    -345.2924943214453606 [Eh]
	-----------------------------------------------------------

  Dipole Moment: [D]
     X:    -1.8184      Y:    -0.9280      Z:     0.0537     Total:     2.0422

*** Psi4 exiting successfully. Buy a developer a beer!
