                               Psi4 1.3.2 release

  ==> Input File <==

--------------------------------------------------------------------------
#psi4
#
memory 32 gb

molecule  {
0 1
  O        2.1793270    -1.1884030     0.0070830
  O        2.0147220     1.0703310     0.0037530
  C       -2.3333640     0.6373300    -0.0064140
  C       -2.8929490    -0.7786760    -0.0059160
  C       -0.8407100     0.7390270    -0.0031060
  C        0.0222220    -0.2866530     0.0001530
  C        1.4732850    -0.0238670     0.0030520
  H       -2.7101490     1.1874440    -0.8789970
  H       -2.7141290     1.1896330     0.8630350
  H       -3.9853730    -0.7577330    -0.0084480
  H       -2.5694230    -1.3301270     0.8805270
  H       -2.5653610    -1.3323610    -0.8894680
  H       -0.4156920     1.7426300    -0.0033930
  H       -0.2912539    -1.3245157    -0.0492448
  H        3.1211320    -0.9203150     0.0096400
units angstrom
no_reorient  #important for SAPT in psi4, default
symmetry c1  #important for SAPT in psi4, default
}

set PROPERTIES_ORIGIN ["COM"]
properties('MP2/aug-cc-pvtz', properties = ['dipole'])
--------------------------------------------------------------------------

    Molecular point group: c1
  Charge       = 0
  Multiplicity = 1
  Basis Set: AUG-CC-PVTZ
    Blend: AUG-CC-PVTZ
  Basis Set: (AUG-CC-PVTZ AUX)
    Blend: AUG-CC-PVTZ-JKFIT

    Orbital Energies [Eh]
    ---------------------

    Doubly Occupied:

       1A    -20.610428     2A    -20.540065     3A    -11.385553
       4A    -11.267776     5A    -11.247358     6A    -11.240502
       7A    -11.228551     8A     -1.452956     9A     -1.348015
      10A     -1.111372    11A     -1.024150    12A     -0.916328
      13A     -0.842489    14A     -0.738879    15A     -0.705479
      16A     -0.694226    17A     -0.631954    18A     -0.620664
      19A     -0.615923    20A     -0.600691    21A     -0.569294
      22A     -0.514959    23A     -0.512369    24A     -0.504891
      25A     -0.482575    26A     -0.450680    27A     -0.380563

  @DF-RHF Final Energy:  -343.86007299014557

   => Energetics <=

    Nuclear Repulsion Energy =            285.4461865737470703
    One-Electron Energy =               -1034.1351423388471176
    Two-Electron Energy =                 404.8288827749544225
    Total Energy =                       -343.8600729901455679
  Basis Set: (AUG-CC-PVTZ AUX)
    Blend: AUG-CC-PVTZ-RI
    Molecular point group: c1

    Geometry (in Angstrom), charge = 0, multiplicity = 1:

       Center              X                  Y                   Z               Mass
    ------------   -----------------  -----------------  -----------------  -----------------
         O            2.179326048732    -1.188402433986     0.007586709278    15.994914619570
         O            2.014721048732     1.070331566014     0.004256709278    15.994914619570
         C           -2.333364951268     0.637330566014    -0.005910290722    12.000000000000
         C           -2.892949951268    -0.778675433986    -0.005412290722    12.000000000000
         C           -0.840710951268     0.739027566014    -0.002602290722    12.000000000000
         C            0.022221048732    -0.286652433986     0.000656709278    12.000000000000
         C            1.473284048732    -0.023866433986     0.003555709278    12.000000000000
         H           -2.710149951268     1.187444566014    -0.878493290722     1.007825032230
         H           -2.714129951268     1.189633566014     0.863538709278     1.007825032230
         H           -3.985373951268    -0.757732433986    -0.007944290722     1.007825032230
         H           -2.569423951268    -1.330126433986     0.881030709278     1.007825032230
         H           -2.565361951268    -1.332360433986    -0.888964290722     1.007825032230
         H           -0.415692951268     1.742630566014    -0.002889290722     1.007825032230
         H           -0.291254851268    -1.324515133986    -0.048741090722     1.007825032230
         H            3.121131048732    -0.920314433986     0.010143709278     1.007825032230

  Basis Set: AUG-CC-PVTZ
    Blend: AUG-CC-PVTZ
  Basis Set: (AUG-CC-PVTZ AUX)
    Blend: AUG-CC-PVTZ-JKFIT
	 Reference Energy          =    -343.8600729901455679 [Eh]
	 Singles Energy            =      -0.0000000000000000 [Eh]
	 Same-Spin Energy          =      -0.3406454117620084 [Eh]
	 Opposite-Spin Energy      =      -1.0994155110608934 [Eh]
	 Correlation Energy        =      -1.4400609228229018 [Eh]
	 Total Energy              =    -345.3001339129684766 [Eh]

	 ================> DF-SCS-MP2 Energies <==================
	-----------------------------------------------------------
	 SCS Same-Spin Scale       =       0.3333333333333333 [-]
	 SCS Opposite-Spin Scale   =       1.2000000000000000 [-]
	 SCS Same-Spin Energy      =      -0.1135484705873361 [Eh]
	 SCS Opposite-Spin Energy  =      -1.3192986132730720 [Eh]
	 SCS Correlation Energy    =      -1.4328470838604082 [Eh]
	 SCS Total Energy          =    -345.2929200740059628 [Eh]
	-----------------------------------------------------------

  Dipole Moment: [D]
     X:    -1.8188      Y:    -0.9219      Z:    -0.0367     Total:     2.0394

*** Psi4 exiting successfully. Buy a developer a beer!
