                               Psi4 1.3.2 release

  ==> Input File <==

--------------------------------------------------------------------------
#psi4
#
memory 32 gb

molecule  {
0 1
  O        2.1793270    -1.1884030     0.0070830
  O        2.0147220     1.0703310     0.0037530
  C       -2.3333640     0.6373300    -0.0064140
  C       -2.8929490    -0.7786760    -0.0059160
  C       -0.8407100     0.7390270    -0.0031060
  C        0.0215525    -0.2863332     0.2501519
  C        1.4732850    -0.0238670     0.0030520
  H       -2.7101490     1.1874440    -0.8789970
  H       -2.7141290     1.1896330     0.8630350
  H       -3.9853730    -0.7577330    -0.0084480
  H       -2.5694230    -1.3301270     0.8805270
  H       -2.5653610    -1.3323610    -0.8894680
  H       -0.4156920     1.7426300    -0.0033930
  H       -0.2913660    -1.3244520     0.0007550
  H        3.1211320    -0.9203150     0.0096400
units angstrom
no_reorient  #important for SAPT in psi4, default
symmetry c1  #important for SAPT in psi4, default
}

set PROPERTIES_ORIGIN ["COM"]
properties('MP2/aug-cc-pvtz', properties = ['dipole'])
--------------------------------------------------------------------------

    Molecular point group: c1
  Charge       = 0
  Multiplicity = 1
  Basis Set: AUG-CC-PVTZ
    Blend: AUG-CC-PVTZ
  Basis Set: (AUG-CC-PVTZ AUX)
    Blend: AUG-CC-PVTZ-JKFIT

    Orbital Energies [Eh]
    ---------------------

    Doubly Occupied:

       1A    -20.609257     2A    -20.539416     3A    -11.386049
       4A    -11.276362     5A    -11.249459     6A    -11.245524
       7A    -11.229267     8A     -1.451624     9A     -1.347103
      10A     -1.109818    11A     -1.021274    12A     -0.914988
      13A     -0.839474    14A     -0.736783    15A     -0.700363
      16A     -0.692986    17A     -0.632875    18A     -0.621282
      19A     -0.615980    20A     -0.591840    21A     -0.564169
      22A     -0.517339    23A     -0.511711    24A     -0.504601
      25A     -0.481560    26A     -0.447229    27A     -0.379004

  @DF-RHF Final Energy:  -343.84337645736304

   => Energetics <=

    Nuclear Repulsion Energy =            284.7508959503593928
    One-Electron Energy =               -1032.7538689422692642
    Two-Electron Energy =                 404.1595965345468926
    Total Energy =                       -343.8433764573630356
  Basis Set: (AUG-CC-PVTZ AUX)
    Blend: AUG-CC-PVTZ-RI
    Molecular point group: c1

    Geometry (in Angstrom), charge = 0, multiplicity = 1:

       Center              X                  Y                   Z               Mass
    ------------   -----------------  -----------------  -----------------  -----------------
         O            2.179407475812    -1.188441431525    -0.022901084626    15.994914619570
         O            2.014802475812     1.070292568475    -0.026231084626    15.994914619570
         C           -2.333283524188     0.637291568475    -0.036398084626    12.000000000000
         C           -2.892868524188    -0.778714431525    -0.035900084626    12.000000000000
         C           -0.840629524188     0.738988568475    -0.033090084626    12.000000000000
         C            0.021632975812    -0.286371631525     0.220167815374    12.000000000000
         C            1.473365475812    -0.023905431525    -0.026932084626    12.000000000000
         H           -2.710068524188     1.187405568475    -0.908981084626     1.007825032230
         H           -2.714048524188     1.189594568475     0.833050915374     1.007825032230
         H           -3.985292524188    -0.757771431525    -0.038432084626     1.007825032230
         H           -2.569342524188    -1.330165431525     0.850542915374     1.007825032230
         H           -2.565280524188    -1.332399431525    -0.919452084626     1.007825032230
         H           -0.415611524188     1.742591568475    -0.033377084626     1.007825032230
         H           -0.291285524188    -1.324490431525    -0.029229084626     1.007825032230
         H            3.121212475812    -0.920353431525    -0.020344084626     1.007825032230

  Basis Set: AUG-CC-PVTZ
    Blend: AUG-CC-PVTZ
  Basis Set: (AUG-CC-PVTZ AUX)
    Blend: AUG-CC-PVTZ-JKFIT
	 Reference Energy          =    -343.8433764573630356 [Eh]
	 Singles Energy            =      -0.0000000000000000 [Eh]
	 Same-Spin Energy          =      -0.3413926042023683 [Eh]
	 Opposite-Spin Energy      =      -1.1013369447243968 [Eh]
	 Correlation Energy        =      -1.4427295489267651 [Eh]
	 Total Energy              =    -345.2861060062897991 [Eh]

	 ================> DF-SCS-MP2 Energies <==================
	-----------------------------------------------------------
	 SCS Same-Spin Scale       =       0.3333333333333333 [-]
	 SCS Opposite-Spin Scale   =       1.2000000000000000 [-]
	 SCS Same-Spin Energy      =      -0.1137975347341228 [Eh]
	 SCS Opposite-Spin Energy  =      -1.3216043336692762 [Eh]
	 SCS Correlation Energy    =      -1.4354018684033989 [Eh]
	 SCS Total Energy          =    -345.2787783257664387 [Eh]
	-----------------------------------------------------------

  Dipole Moment: [D]
     X:    -1.8668      Y:    -0.8428      Z:    -0.1896     Total:     2.0570

*** Psi4 exiting successfully. Buy a developer a beer!
