                               Psi4 1.3.2 release

  ==> Input File <==

--------------------------------------------------------------------------
#psi4
#
memory 32 gb

molecule  {
0 1
  O        2.1793270    -1.1884030     0.0070830
  O        2.0147220     1.0703310     0.0037530
  C       -2.3333640     0.6373300    -0.0064140
  C       -2.8929490    -0.7786760    -0.0059160
  C       -0.8407100     0.7390270    -0.0031060
  C        0.0219542    -0.2865251     0.1001526
  C        1.4732850    -0.0238670     0.0030520
  H       -2.7101490     1.1874440    -0.8789970
  H       -2.7141290     1.1896330     0.8630350
  H       -3.9853730    -0.7577330    -0.0084480
  H       -2.5694230    -1.3301270     0.8805270
  H       -2.5653610    -1.3323610    -0.8894680
  H       -0.4156920     1.7426300    -0.0033930
  H       -0.2913660    -1.3244520     0.0007550
  H        3.1211320    -0.9203150     0.0096400
units angstrom
no_reorient  #important for SAPT in psi4, default
symmetry c1  #important for SAPT in psi4, default
}

set PROPERTIES_ORIGIN ["COM"]
properties('MP2/aug-cc-pvtz', properties = ['dipole'])
--------------------------------------------------------------------------

    Molecular point group: c1
  Charge       = 0
  Multiplicity = 1
  Basis Set: AUG-CC-PVTZ
    Blend: AUG-CC-PVTZ
  Basis Set: (AUG-CC-PVTZ AUX)
    Blend: AUG-CC-PVTZ-JKFIT

    Orbital Energies [Eh]
    ---------------------

    Doubly Occupied:

       1A    -20.610237     2A    -20.539946     3A    -11.385643
       4A    -11.269143     5A    -11.247687     6A    -11.241243
       7A    -11.228670     8A     -1.452738     9A     -1.347861
      10A     -1.111107    11A     -1.023722    12A     -0.916094
      13A     -0.841995    14A     -0.738575    15A     -0.704638
      16A     -0.694054    17A     -0.632072    18A     -0.620834
      19A     -0.615918    20A     -0.599299    21A     -0.568509
      22A     -0.515469    23A     -0.512115    24A     -0.504917
      25A     -0.482409    26A     -0.450136    27A     -0.380315

  @DF-RHF Final Energy:  -343.85756919766072

   => Energetics <=

    Nuclear Repulsion Energy =            285.3372225449867869
    One-Electron Energy =               -1033.9188869687202441
    Two-Electron Energy =                 404.7240952260726772
    Total Energy =                       -343.8575691976607231
  Basis Set: (AUG-CC-PVTZ AUX)
    Blend: AUG-CC-PVTZ-RI
    Molecular point group: c1

    Geometry (in Angstrom), charge = 0, multiplicity = 1:

       Center              X                  Y                   Z               Mass
    ------------   -----------------  -----------------  -----------------  -----------------
         O            2.179359297072    -1.188418415592    -0.004910600946    15.994914619570
         O            2.014754297072     1.070315584408    -0.008240600946    15.994914619570
         C           -2.333331702928     0.637314584408    -0.018407600946    12.000000000000
         C           -2.892916702928    -0.778691415592    -0.017909600946    12.000000000000
         C           -0.840677702928     0.739011584408    -0.015099600946    12.000000000000
         C            0.021986497072    -0.286540515592     0.088158999054    12.000000000000
         C            1.473317297072    -0.023882415592    -0.008941600946    12.000000000000
         H           -2.710116702928     1.187428584408    -0.890990600946     1.007825032230
         H           -2.714096702928     1.189617584408     0.851041399054     1.007825032230
         H           -3.985340702928    -0.757748415592    -0.020441600946     1.007825032230
         H           -2.569390702928    -1.330142415592     0.868533399054     1.007825032230
         H           -2.565328702928    -1.332376415592    -0.901461600946     1.007825032230
         H           -0.415659702928     1.742614584408    -0.015386600946     1.007825032230
         H           -0.291333702928    -1.324467415592    -0.011238600946     1.007825032230
         H            3.121164297072    -0.920330415592    -0.002353600946     1.007825032230

  Basis Set: AUG-CC-PVTZ
    Blend: AUG-CC-PVTZ
  Basis Set: (AUG-CC-PVTZ AUX)
    Blend: AUG-CC-PVTZ-JKFIT
	 Reference Energy          =    -343.8575691976607231 [Eh]
	 Singles Energy            =      -0.0000000000000000 [Eh]
	 Same-Spin Energy          =      -0.3407606367945337 [Eh]
	 Opposite-Spin Energy      =      -1.0996672443658100 [Eh]
	 Correlation Energy        =      -1.4404278811603437 [Eh]
	 Total Energy              =    -345.2979970788210835 [Eh]

	 ================> DF-SCS-MP2 Energies <==================
	-----------------------------------------------------------
	 SCS Same-Spin Scale       =       0.3333333333333333 [-]
	 SCS Opposite-Spin Scale   =       1.2000000000000000 [-]
	 SCS Same-Spin Energy      =      -0.1135868789315112 [Eh]
	 SCS Opposite-Spin Energy  =      -1.3196006932389719 [Eh]
	 SCS Correlation Energy    =      -1.4331875721704832 [Eh]
	 SCS Total Energy          =    -345.2907567698312050 [Eh]
	-----------------------------------------------------------

  Dipole Moment: [D]
     X:    -1.8272      Y:    -0.9100      Z:    -0.0767     Total:     2.0427

*** Psi4 exiting successfully. Buy a developer a beer!
