                               Psi4 1.3.2 release

  ==> Input File <==

--------------------------------------------------------------------------
#psi4
#
memory 32 gb

molecule  {
0 1
  O        2.1793270    -1.1884030     0.0070830
  O        2.0147220     1.0703310     0.0037530
  C       -2.3333640     0.6373300    -0.0064140
  C       -2.8929490    -0.7786760    -0.0059160
  C       -0.8407100     0.7390270    -0.0031060
  C        0.0218203    -0.2864611     0.1501523
  C        1.4732850    -0.0238670     0.0030520
  H       -2.7101490     1.1874440    -0.8789970
  H       -2.7141290     1.1896330     0.8630350
  H       -3.9853730    -0.7577330    -0.0084480
  H       -2.5694230    -1.3301270     0.8805270
  H       -2.5653610    -1.3323610    -0.8894680
  H       -0.4156920     1.7426300    -0.0033930
  H       -0.2913660    -1.3244520     0.0007550
  H        3.1211320    -0.9203150     0.0096400
units angstrom
no_reorient  #important for SAPT in psi4, default
symmetry c1  #important for SAPT in psi4, default
}

set PROPERTIES_ORIGIN ["COM"]
properties('MP2/aug-cc-pvtz', properties = ['dipole'])
--------------------------------------------------------------------------

    Molecular point group: c1
  Charge       = 0
  Multiplicity = 1
  Basis Set: AUG-CC-PVTZ
    Blend: AUG-CC-PVTZ
  Basis Set: (AUG-CC-PVTZ AUX)
    Blend: AUG-CC-PVTZ-JKFIT

    Orbital Energies [Eh]
    ---------------------

    Doubly Occupied:

       1A    -20.609996     2A    -20.539809     3A    -11.385747
       4A    -11.270888     5A    -11.248113     6A    -11.242284
       7A    -11.228814     8A     -1.452464     9A     -1.347673
      10A     -1.110781    11A     -1.023159    12A     -0.915805
      13A     -0.841386    14A     -0.738072    15A     -0.703552
      16A     -0.693822    17A     -0.632252    18A     -0.621005
      19A     -0.615925    20A     -0.597453    21A     -0.567453
      22A     -0.515999    23A     -0.511919    24A     -0.504901
      25A     -0.482199    26A     -0.449453    27A     -0.379972

  @DF-RHF Final Energy:  -343.85423562496214

   => Energetics <=

    Nuclear Repulsion Energy =            285.1957975111139376
    One-Electron Energy =               -1033.6382755955585253
    Two-Electron Energy =                 404.5882424594824442
    Total Energy =                       -343.8542356249621434
  Basis Set: (AUG-CC-PVTZ AUX)
    Blend: AUG-CC-PVTZ-RI
    Molecular point group: c1

    Geometry (in Angstrom), charge = 0, multiplicity = 1:

       Center              X                  Y                   Z               Mass
    ------------   -----------------  -----------------  -----------------  -----------------
         O            2.179375356652    -1.188426091567    -0.010907420843    15.994914619570
         O            2.014770356652     1.070307908433    -0.014237420843    15.994914619570
         C           -2.333315643348     0.637306908433    -0.024404420843    12.000000000000
         C           -2.892900643348    -0.778699091567    -0.023906420843    12.000000000000
         C           -0.840661643348     0.739003908433    -0.021096420843    12.000000000000
         C            0.021868656652    -0.286484191567     0.132161879157    12.000000000000
         C            1.473333356652    -0.023890091567    -0.014938420843    12.000000000000
         H           -2.710100643348     1.187420908433    -0.896987420843     1.007825032230
         H           -2.714080643348     1.189609908433     0.845044579157     1.007825032230
         H           -3.985324643348    -0.757756091567    -0.026438420843     1.007825032230
         H           -2.569374643348    -1.330150091567     0.862536579157     1.007825032230
         H           -2.565312643348    -1.332384091567    -0.907458420843     1.007825032230
         H           -0.415643643348     1.742606908433    -0.021383420843     1.007825032230
         H           -0.291317643348    -1.324475091567    -0.017235420843     1.007825032230
         H            3.121180356652    -0.920338091567    -0.008350420843     1.007825032230

  Basis Set: AUG-CC-PVTZ
    Blend: AUG-CC-PVTZ
  Basis Set: (AUG-CC-PVTZ AUX)
    Blend: AUG-CC-PVTZ-JKFIT
	 Reference Energy          =    -343.8542356249621434 [Eh]
	 Singles Energy            =      -0.0000000000000000 [Eh]
	 Same-Spin Energy          =      -0.3409123338787681 [Eh]
	 Opposite-Spin Energy      =      -1.1000393556586250 [Eh]
	 Correlation Energy        =      -1.4409516895373931 [Eh]
	 Total Energy              =    -345.2951873144995147 [Eh]

	 ================> DF-SCS-MP2 Energies <==================
	-----------------------------------------------------------
	 SCS Same-Spin Scale       =       0.3333333333333333 [-]
	 SCS Opposite-Spin Scale   =       1.2000000000000000 [-]
	 SCS Same-Spin Energy      =      -0.1136374446262560 [Eh]
	 SCS Opposite-Spin Energy  =      -1.3200472267903500 [Eh]
	 SCS Correlation Energy    =      -1.4336846714166060 [Eh]
	 SCS Total Energy          =    -345.2879202963787293 [Eh]
	-----------------------------------------------------------

  Dipole Moment: [D]
     X:    -1.8373      Y:    -0.8937      Z:    -0.1138     Total:     2.0462

*** Psi4 exiting successfully. Buy a developer a beer!
