                               Psi4 1.3.2 release

  ==> Input File <==

--------------------------------------------------------------------------
#psi4
#
memory 32 gb

molecule  {
0 1
  O        2.1793270    -1.1884030     0.0070830
  O        2.0147220     1.0703310     0.0037530
  C       -2.3333640     0.6373300    -0.0064140
  C       -2.8929490    -0.7786760    -0.0059160
  C       -0.8407100     0.7390270    -0.0031060
  C        0.0222220    -0.2866530     0.0001530
  C        1.4732850    -0.0238670     0.0030520
  H       -2.7101490     1.1874440    -0.8789970
  H       -2.7141290     1.1896330     0.8630350
  H       -3.9853730    -0.7577330    -0.0084480
  H       -2.5694230    -1.3301270     0.8805270
  H       -2.5653610    -1.3323610    -0.8894680
  H       -0.4161514     1.7428804     0.1966063
  H       -0.2913660    -1.3244520     0.0007550
  H        3.1211320    -0.9203150     0.0096400
units angstrom
no_reorient  #important for SAPT in psi4, default
symmetry c1  #important for SAPT in psi4, default
}

set PROPERTIES_ORIGIN ["COM"]
properties('MP2/aug-cc-pvtz', properties = ['dipole'])
--------------------------------------------------------------------------

    Molecular point group: c1
  Charge       = 0
  Multiplicity = 1
  Basis Set: AUG-CC-PVTZ
    Blend: AUG-CC-PVTZ
  Basis Set: (AUG-CC-PVTZ AUX)
    Blend: AUG-CC-PVTZ-JKFIT

    Orbital Energies [Eh]
    ---------------------

    Doubly Occupied:

       1A    -20.610501     2A    -20.540117     3A    -11.385617
       4A    -11.269500     5A    -11.247300     6A    -11.240934
       7A    -11.228601     8A     -1.453021     9A     -1.348041
      10A     -1.111099    11A     -1.024209    12A     -0.915817
      13A     -0.842508    14A     -0.736856    15A     -0.705355
      16A     -0.693524    17A     -0.632236    18A     -0.620729
      19A     -0.615765    20A     -0.599741    21A     -0.569339
      22A     -0.516339    23A     -0.512378    24A     -0.501906
      25A     -0.482394    26A     -0.450733    27A     -0.380083

  @DF-RHF Final Energy:  -343.85739593615858

   => Energetics <=

    Nuclear Repulsion Energy =            285.3769191077500977
    One-Electron Energy =               -1033.9993445310678908
    Two-Electron Energy =                 404.7650294871591541
    Total Energy =                       -343.8573959361585821
  Basis Set: (AUG-CC-PVTZ AUX)
    Blend: AUG-CC-PVTZ-RI
    Molecular point group: c1

    Geometry (in Angstrom), charge = 0, multiplicity = 1:

       Center              X                  Y                   Z               Mass
    ------------   -----------------  -----------------  -----------------  -----------------
         O            2.179331805434    -1.188405597906     0.005068476065    15.994914619570
         O            2.014726805434     1.070328402094     0.001738476065    15.994914619570
         C           -2.333359194566     0.637327402094    -0.008428523935    12.000000000000
         C           -2.892944194566    -0.778678597906    -0.007930523935    12.000000000000
         C           -0.840705194566     0.739024402094    -0.005120523935    12.000000000000
         C            0.022226805434    -0.286655597906    -0.001861523935    12.000000000000
         C            1.473289805434    -0.023869597906     0.001037476065    12.000000000000
         H           -2.710144194566     1.187441402094    -0.881011523935     1.007825032230
         H           -2.714124194566     1.189630402094     0.861020476065     1.007825032230
         H           -3.985368194566    -0.757735597906    -0.010462523935     1.007825032230
         H           -2.569418194566    -1.330129597906     0.878512476065     1.007825032230
         H           -2.565356194566    -1.332363597906    -0.891482523935     1.007825032230
         H           -0.416146594566     1.742877802094     0.194591776065     1.007825032230
         H           -0.291361194566    -1.324454597906    -0.001259523935     1.007825032230
         H            3.121136805434    -0.920317597906     0.007625476065     1.007825032230

  Basis Set: AUG-CC-PVTZ
    Blend: AUG-CC-PVTZ
  Basis Set: (AUG-CC-PVTZ AUX)
    Blend: AUG-CC-PVTZ-JKFIT
	 Reference Energy          =    -343.8573959361585821 [Eh]
	 Singles Energy            =      -0.0000000000000000 [Eh]
	 Same-Spin Energy          =      -0.3407981573831030 [Eh]
	 Opposite-Spin Energy      =      -1.0997799859756454 [Eh]
	 Correlation Energy        =      -1.4405781433587483 [Eh]
	 Total Energy              =    -345.2979740795173029 [Eh]

	 ================> DF-SCS-MP2 Energies <==================
	-----------------------------------------------------------
	 SCS Same-Spin Scale       =       0.3333333333333333 [-]
	 SCS Opposite-Spin Scale   =       1.2000000000000000 [-]
	 SCS Same-Spin Energy      =      -0.1135993857943677 [Eh]
	 SCS Opposite-Spin Energy  =      -1.3197359831707745 [Eh]
	 SCS Correlation Energy    =      -1.4333353689651420 [Eh]
	 SCS Total Energy          =    -345.2907313051236997 [Eh]
	-----------------------------------------------------------

  Dipole Moment: [D]
     X:    -1.8162      Y:    -0.9428      Z:     0.1099     Total:     2.0493

*** Psi4 exiting successfully. Buy a developer a beer!
