                               Psi4 1.3.2 release

  ==> Input File <==

--------------------------------------------------------------------------
#psi4
#
memory 32 gb

molecule  {
0 1
  O        2.1793270    -1.1884030     0.0070830
  O        2.0147220     1.0703310     0.0037530
  C       -2.3333640     0.6373300    -0.0064140
  C       -2.8929490    -0.7786760    -0.0059160
  C       -0.8407100     0.7390270    -0.0031060
  C        0.0222220    -0.2866530     0.0001530
  C        1.4732850    -0.0238670     0.0030520
  H       -2.7101490     1.1874440    -0.8789970
  H       -2.7141290     1.1896330     0.8630350
  H       -3.9853730    -0.7577330    -0.0084480
  H       -2.5694230    -1.3301270     0.8805270
  H       -2.5653610    -1.3323610    -0.8894680
  H       -0.4156920     1.7426300    -0.0033930
  H       -0.2908057    -1.3247706    -0.2492442
  H        3.1211320    -0.9203150     0.0096400
units angstrom
no_reorient  #important for SAPT in psi4, default
symmetry c1  #important for SAPT in psi4, default
}

set PROPERTIES_ORIGIN ["COM"]
properties('MP2/aug-cc-pvtz', properties = ['dipole'])
--------------------------------------------------------------------------

    Molecular point group: c1
  Charge       = 0
  Multiplicity = 1
  Basis Set: AUG-CC-PVTZ
    Blend: AUG-CC-PVTZ
  Basis Set: (AUG-CC-PVTZ AUX)
    Blend: AUG-CC-PVTZ-JKFIT

    Orbital Energies [Eh]
    ---------------------

    Doubly Occupied:

       1A    -20.610268     2A    -20.540229     3A    -11.385558
       4A    -11.268626     5A    -11.247604     6A    -11.242878
       7A    -11.228431     8A     -1.452870     9A     -1.348046
      10A     -1.111273    11A     -1.023774    12A     -0.916026
      13A     -0.842544    14A     -0.735928    15A     -0.704119
      16A     -0.694073    17A     -0.632383    18A     -0.620850
      19A     -0.615997    20A     -0.597948    21A     -0.567457
      22A     -0.515019    23A     -0.512365    24A     -0.504517
      25A     -0.482445    26A     -0.450657    27A     -0.379670

  @DF-RHF Final Energy:  -343.85615322109072

   => Energetics <=

    Nuclear Repulsion Energy =            285.3316119350434974
    One-Electron Energy =               -1033.9124199853297341
    Two-Electron Energy =                 404.7246548291955150
    Total Energy =                       -343.8561532210907217
  Basis Set: (AUG-CC-PVTZ AUX)
    Blend: AUG-CC-PVTZ-RI
    Molecular point group: c1

    Geometry (in Angstrom), charge = 0, multiplicity = 1:

       Center              X                  Y                   Z               Mass
    ------------   -----------------  -----------------  -----------------  -----------------
         O            2.179321534027    -1.188399866386     0.009601297057    15.994914619570
         O            2.014716534027     1.070334133614     0.006271297057    15.994914619570
         C           -2.333369465973     0.637333133614    -0.003895702943    12.000000000000
         C           -2.892954465973    -0.778672866386    -0.003397702943    12.000000000000
         C           -0.840715465973     0.739030133614    -0.000587702943    12.000000000000
         C            0.022216534027    -0.286649866386     0.002671297057    12.000000000000
         C            1.473279534027    -0.023863866386     0.005570297057    12.000000000000
         H           -2.710154465973     1.187447133614    -0.876478702943     1.007825032230
         H           -2.714134465973     1.189636133614     0.865553297057     1.007825032230
         H           -3.985378465973    -0.757729866386    -0.005929702943     1.007825032230
         H           -2.569428465973    -1.330123866386     0.883045297057     1.007825032230
         H           -2.565366465973    -1.332357866386    -0.886949702943     1.007825032230
         H           -0.415697465973     1.742633133614    -0.000874702943     1.007825032230
         H           -0.290811165973    -1.324767466386    -0.246725902943     1.007825032230
         H            3.121126534027    -0.920311866386     0.012158297057     1.007825032230

  Basis Set: AUG-CC-PVTZ
    Blend: AUG-CC-PVTZ
  Basis Set: (AUG-CC-PVTZ AUX)
    Blend: AUG-CC-PVTZ-JKFIT
	 Reference Energy          =    -343.8561532210907217 [Eh]
	 Singles Energy            =      -0.0000000000000000 [Eh]
	 Same-Spin Energy          =      -0.3408066542085464 [Eh]
	 Opposite-Spin Energy      =      -1.0997707266341459 [Eh]
	 Correlation Energy        =      -1.4405773808426923 [Eh]
	 Total Energy              =    -345.2967306019334046 [Eh]

	 ================> DF-SCS-MP2 Energies <==================
	-----------------------------------------------------------
	 SCS Same-Spin Scale       =       0.3333333333333333 [-]
	 SCS Opposite-Spin Scale   =       1.2000000000000000 [-]
	 SCS Same-Spin Energy      =      -0.1136022180695155 [Eh]
	 SCS Opposite-Spin Energy  =      -1.3197248719609751 [Eh]
	 SCS Correlation Energy    =      -1.4333270900304906 [Eh]
	 SCS Total Energy          =    -345.2894803111212241 [Eh]
	-----------------------------------------------------------

  Dipole Moment: [D]
     X:    -1.8122      Y:    -0.8938      Z:    -0.1680     Total:     2.0276

*** Psi4 exiting successfully. Buy a developer a beer!
