                               Psi4 1.3.2 release

  ==> Input File <==

--------------------------------------------------------------------------
#psi4
#
memory 32 gb

molecule  {
0 1
  O        2.1793270    -1.1884030     0.0070830
  O        2.0147220     1.0703310     0.0037530
  C       -2.3333640     0.6373300    -0.0064140
  C       -2.8929490    -0.7786760    -0.0059160
  C       -0.8407100     0.7390270    -0.0031060
  C        0.0222220    -0.2866530     0.0001530
  C        1.4732850    -0.0238670     0.0030520
  H       -2.7101490     1.1874440    -0.8789970
  H       -2.7141290     1.1896330     0.8630350
  H       -3.9853730    -0.7577330    -0.0084480
  H       -2.5694230    -1.3301270     0.8805270
  H       -2.5653610    -1.3323610    -0.8894680
  H       -0.4156920     1.7426300    -0.0033930
  H       -0.2906937    -1.3248344    -0.2992440
  H        3.1211320    -0.9203150     0.0096400
units angstrom
no_reorient  #important for SAPT in psi4, default
symmetry c1  #important for SAPT in psi4, default
}

set PROPERTIES_ORIGIN ["COM"]
properties('MP2/aug-cc-pvtz', properties = ['dipole'])
--------------------------------------------------------------------------

    Molecular point group: c1
  Charge       = 0
  Multiplicity = 1
  Basis Set: AUG-CC-PVTZ
    Blend: AUG-CC-PVTZ
  Basis Set: (AUG-CC-PVTZ AUX)
    Blend: AUG-CC-PVTZ-JKFIT

    Orbital Energies [Eh]
    ---------------------

    Doubly Occupied:

       1A    -20.610199     2A    -20.540306     3A    -11.385569
       4A    -11.269010     5A    -11.247713     6A    -11.243934
       7A    -11.228375     8A     -1.452835     9A     -1.348064
      10A     -1.111238    11A     -1.023616    12A     -0.915902
      13A     -0.842571    14A     -0.734782    15A     -0.703496
      16A     -0.693996    17A     -0.632553    18A     -0.620910
      19A     -0.616031    20A     -0.596841    21A     -0.566536
      22A     -0.515040    23A     -0.512370    24A     -0.504313
      25A     -0.482391    26A     -0.450640    27A     -0.379284

  @DF-RHF Final Energy:  -343.85416535383155

   => Energetics <=

    Nuclear Repulsion Energy =            285.2810416233958790
    One-Electron Energy =               -1033.8133837170112201
    Two-Electron Energy =                 404.6781767397838507
    Total Energy =                       -343.8541653538315472
  Basis Set: (AUG-CC-PVTZ AUX)
    Blend: AUG-CC-PVTZ-RI
    Molecular point group: c1

    Geometry (in Angstrom), charge = 0, multiplicity = 1:

       Center              X                  Y                   Z               Mass
    ------------   -----------------  -----------------  -----------------  -----------------
         O            2.179320405855    -1.188399223731     0.010104943498    15.994914619570
         O            2.014715405855     1.070334776269     0.006774943498    15.994914619570
         C           -2.333370594145     0.637333776269    -0.003392056502    12.000000000000
         C           -2.892955594145    -0.778672223731    -0.002894056502    12.000000000000
         C           -0.840716594145     0.739030776269    -0.000084056502    12.000000000000
         C            0.022215405855    -0.286649223731     0.003174943498    12.000000000000
         C            1.473278405855    -0.023863223731     0.006073943498    12.000000000000
         H           -2.710155594145     1.187447776269    -0.875975056502     1.007825032230
         H           -2.714135594145     1.189636776269     0.866056943498     1.007825032230
         H           -3.985379594145    -0.757729223731    -0.005426056502     1.007825032230
         H           -2.569429594145    -1.330123223731     0.883548943498     1.007825032230
         H           -2.565367594145    -1.332357223731    -0.886446056502     1.007825032230
         H           -0.415698594145     1.742633776269    -0.000371056502     1.007825032230
         H           -0.290700294145    -1.324830623731    -0.296222056502     1.007825032230
         H            3.121125405855    -0.920311223731     0.012661943498     1.007825032230

  Basis Set: AUG-CC-PVTZ
    Blend: AUG-CC-PVTZ
  Basis Set: (AUG-CC-PVTZ AUX)
    Blend: AUG-CC-PVTZ-JKFIT
	 Reference Energy          =    -343.8541653538315472 [Eh]
	 Singles Energy            =      -0.0000000000000000 [Eh]
	 Same-Spin Energy          =      -0.3408791882411566 [Eh]
	 Opposite-Spin Energy      =      -1.0999534719012809 [Eh]
	 Correlation Energy        =      -1.4408326601424375 [Eh]
	 Total Energy              =    -345.2949980139740092 [Eh]

	 ================> DF-SCS-MP2 Energies <==================
	-----------------------------------------------------------
	 SCS Same-Spin Scale       =       0.3333333333333333 [-]
	 SCS Opposite-Spin Scale   =       1.2000000000000000 [-]
	 SCS Same-Spin Energy      =      -0.1136263960803855 [Eh]
	 SCS Opposite-Spin Energy  =      -1.3199441662815370 [Eh]
	 SCS Correlation Energy    =      -1.4335705623619226 [Eh]
	 SCS Total Energy          =    -345.2877359161934692 [Eh]
	-----------------------------------------------------------

  Dipole Moment: [D]
     X:    -1.8091      Y:    -0.8811      Z:    -0.1997     Total:     2.0221

*** Psi4 exiting successfully. Buy a developer a beer!
