                               Psi4 1.3.2 release

  ==> Input File <==

--------------------------------------------------------------------------
#psi4
#
memory 32 gb

molecule  {
0 1
  S       -2.7468414    -0.3589621    -0.0747508
  S        2.7978520    -0.2715570    -0.0789790
  C       -0.0046350    -0.1692960    -0.0145170
  C       -1.2611610     0.6942450     0.0320770
  C        1.2550670     0.6870920     0.0422130
  H       -0.0121870    -0.8698730     0.8286010
  H        0.0048720    -0.7692750    -0.9300540
  H       -1.2744540     1.2874770     0.9507400
  H       -1.2751080     1.3772510    -0.8218930
  H        1.2709800     1.2945630     0.9518460
  H        1.2830650     1.3753670    -0.8081880
  H       -3.6465450     0.5877870     0.0421630
  H        2.6042880    -0.9975790     1.0326360
units angstrom
no_reorient  #important for SAPT in psi4, default
symmetry c1  #important for SAPT in psi4, default
}

set PROPERTIES_ORIGIN ["COM"]
properties('MP2/aug-cc-pvtz', properties = ['dipole'])
--------------------------------------------------------------------------

    Molecular point group: c1
  Charge       = 0
  Multiplicity = 1
  Basis Set: AUG-CC-PVTZ
    Blend: AUG-CC-PVTZ
  Basis Set: (AUG-CC-PVTZ AUX)
    Blend: AUG-CC-PVTZ-JKFIT

    Orbital Energies [Eh]
    ---------------------

    Doubly Occupied:

       1A    -91.956592     2A    -91.953622     3A    -11.270653
       4A    -11.269510     5A    -11.244686     6A     -8.957745
       7A     -8.955622     8A     -6.639089     9A     -6.638075
      10A     -6.637056    11A     -6.637046    12A     -6.635989
      13A     -6.634909    14A     -1.109843    15A     -1.037957
      16A     -0.948426    17A     -0.852110    18A     -0.813906
      19A     -0.670418    20A     -0.612528    21A     -0.596437
      22A     -0.566918    23A     -0.529665    24A     -0.517474
      25A     -0.499575    26A     -0.460299    27A     -0.447452
      28A     -0.362260    29A     -0.360191

  @DF-RHF Final Energy:  -913.39863325451336

   => Energetics <=

    Nuclear Repulsion Energy =            267.4088591964364809
    One-Electron Energy =               -1789.9828821015203175
    Two-Electron Energy =                 609.1753896505705370
    Total Energy =                       -913.3986332545133564
  Basis Set: (AUG-CC-PVTZ AUX)
    Blend: AUG-CC-PVTZ-RI
    Molecular point group: c1

    Geometry (in Angstrom), charge = 0, multiplicity = 1:

       Center              X                  Y                   Z               Mass
    ------------   -----------------  -----------------  -----------------  -----------------
         S           -2.750997619028    -0.337638610029    -0.047510053617    31.972071174400
         S            2.793695780972    -0.250233510029    -0.051738253617    31.972071174400
         C           -0.008791219028    -0.147972510029     0.012723746383    12.000000000000
         C           -1.265317219028     0.715568489971     0.059317746383    12.000000000000
         C            1.250910780972     0.708415489971     0.069453746383    12.000000000000
         H           -0.016343219028    -0.848549510029     0.855841746383     1.007825032230
         H            0.000715780972    -0.747951510029    -0.902813253617     1.007825032230
         H           -1.278610219028     1.308800489971     0.977980746383     1.007825032230
         H           -1.279264219028     1.398574489971    -0.794652253617     1.007825032230
         H            1.266823780972     1.315886489971     0.979086746383     1.007825032230
         H            1.278908780972     1.396690489971    -0.780947253617     1.007825032230
         H           -3.650701219028     0.609110489971     0.069403746383     1.007825032230
         H            2.600131780972    -0.976255510029     1.059876746383     1.007825032230

  Basis Set: AUG-CC-PVTZ
    Blend: AUG-CC-PVTZ
  Basis Set: (AUG-CC-PVTZ AUX)
    Blend: AUG-CC-PVTZ-JKFIT
	 Reference Energy          =    -913.3986332545133564 [Eh]
	 Singles Energy            =      -0.0000000000000000 [Eh]
	 Same-Spin Energy          =      -0.2362348874132816 [Eh]
	 Opposite-Spin Energy      =      -0.8010814663812668 [Eh]
	 Correlation Energy        =      -1.0373163537945485 [Eh]
	 Total Energy              =    -914.4359496083078511 [Eh]

	 ================> DF-SCS-MP2 Energies <==================
	-----------------------------------------------------------
	 SCS Same-Spin Scale       =       0.3333333333333333 [-]
	 SCS Opposite-Spin Scale   =       1.2000000000000000 [-]
	 SCS Same-Spin Energy      =      -0.0787449624710939 [Eh]
	 SCS Opposite-Spin Energy  =      -0.9612977596575201 [Eh]
	 SCS Correlation Energy    =      -1.0400427221286139 [Eh]
	 SCS Total Energy          =    -914.4386759766420028 [Eh]
	-----------------------------------------------------------

  Dipole Moment: [D]
     X:    -0.5758      Y:     1.6310      Z:     0.7606     Total:     1.8895

*** Psi4 exiting successfully. Buy a developer a beer!
