                               Psi4 1.3.2 release

  ==> Input File <==

--------------------------------------------------------------------------
#psi4
#
memory 32 gb

molecule  {
0 1
  S       -2.7285110    -0.3883160    -0.0213010
  S        2.7978520    -0.2715570    -0.0789790
  C       -0.0046350    -0.1692960    -0.0145170
  C       -1.1891330     0.5894538     0.0254452
  C        1.2550670     0.6870920     0.0422130
  H       -0.0121870    -0.8698730     0.8286010
  H        0.0048720    -0.7692750    -0.9300540
  H       -1.2744540     1.2874770     0.9507400
  H       -1.2751080     1.3772510    -0.8218930
  H        1.2709800     1.2945630     0.9518460
  H        1.2830650     1.3753670    -0.8081880
  H       -3.6465450     0.5877870     0.0421630
  H        2.6042880    -0.9975790     1.0326360
units angstrom
no_reorient  #important for SAPT in psi4, default
symmetry c1  #important for SAPT in psi4, default
}

set PROPERTIES_ORIGIN ["COM"]
properties('MP2/aug-cc-pvtz', properties = ['dipole'])
--------------------------------------------------------------------------

    Molecular point group: c1
  Charge       = 0
  Multiplicity = 1
  Basis Set: AUG-CC-PVTZ
    Blend: AUG-CC-PVTZ
  Basis Set: (AUG-CC-PVTZ AUX)
    Blend: AUG-CC-PVTZ-JKFIT

    Orbital Energies [Eh]
    ---------------------

    Doubly Occupied:

       1A    -91.957538     2A    -91.956351     3A    -11.276671
       4A    -11.272460     5A    -11.238810     6A     -8.958672
       7A     -8.957648     8A     -6.640017     9A     -6.639003
      10A     -6.639002    11A     -6.638107    12A     -6.637971
      13A     -6.637007    14A     -1.127143    15A     -1.038704
      16A     -0.953963    17A     -0.852870    18A     -0.803976
      19A     -0.673089    20A     -0.621468    21A     -0.593399
      22A     -0.577523    23A     -0.531051    24A     -0.516922
      25A     -0.488179    26A     -0.462923    27A     -0.441561
      28A     -0.363189    29A     -0.356338

  @DF-RHF Final Energy:  -913.38074619621182

   => Energetics <=

    Nuclear Repulsion Energy =            268.9097999851076679
    One-Electron Energy =               -1792.8779876832209084
    Two-Electron Energy =                 610.5874415019014805
    Total Energy =                       -913.3807461962118168
  Basis Set: (AUG-CC-PVTZ AUX)
    Blend: AUG-CC-PVTZ-RI
    Molecular point group: c1

    Geometry (in Angstrom), charge = 0, multiplicity = 1:

       Center              X                  Y                   Z               Mass
    ------------   -----------------  -----------------  -----------------  -----------------
         S           -2.746095981144    -0.346660451798    -0.009145600796    31.972071174400
         S            2.780267018856    -0.229901451798    -0.066823600796    31.972071174400
         C           -0.022219981144    -0.127640451798    -0.002361600796    12.000000000000
         C           -1.206717981144     0.631109348202     0.037600599204    12.000000000000
         C            1.237482018856     0.728747548202     0.054368399204    12.000000000000
         H           -0.029771981144    -0.828217451798     0.840756399204     1.007825032230
         H           -0.012712981144    -0.727619451798    -0.917898600796     1.007825032230
         H           -1.292038981144     1.329132548202     0.962895399204     1.007825032230
         H           -1.292692981144     1.418906548202    -0.809737600796     1.007825032230
         H            1.253395018856     1.336218548202     0.964001399204     1.007825032230
         H            1.265480018856     1.417022548202    -0.796032600796     1.007825032230
         H           -3.664129981144     0.629442548202     0.054318399204     1.007825032230
         H            2.586703018856    -0.955923451798     1.044791399204     1.007825032230

  Basis Set: AUG-CC-PVTZ
    Blend: AUG-CC-PVTZ
  Basis Set: (AUG-CC-PVTZ AUX)
    Blend: AUG-CC-PVTZ-JKFIT
	 Reference Energy          =    -913.3807461962118168 [Eh]
	 Singles Energy            =      -0.0000000000000000 [Eh]
	 Same-Spin Energy          =      -0.2374504080170064 [Eh]
	 Opposite-Spin Energy      =      -0.8027637320722234 [Eh]
	 Correlation Energy        =      -1.0402141400892297 [Eh]
	 Total Energy              =    -914.4209603363010501 [Eh]

	 ================> DF-SCS-MP2 Energies <==================
	-----------------------------------------------------------
	 SCS Same-Spin Scale       =       0.3333333333333333 [-]
	 SCS Opposite-Spin Scale   =       1.2000000000000000 [-]
	 SCS Same-Spin Energy      =      -0.0791501360056688 [Eh]
	 SCS Opposite-Spin Energy  =      -0.9633164784866680 [Eh]
	 SCS Correlation Energy    =      -1.0424666144923369 [Eh]
	 SCS Total Energy          =    -914.4232128107041717 [Eh]
	-----------------------------------------------------------

  Dipole Moment: [D]
     X:    -0.5247      Y:     1.6319      Z:     0.7002     Total:     1.8517

*** Psi4 exiting successfully. Buy a developer a beer!
