                               Psi4 1.3.2 release

  ==> Input File <==

--------------------------------------------------------------------------
#psi4
#
memory 32 gb

molecule  {
0 1
  S       -2.6897905    -0.4387953    -0.0239672
  S        2.7978520    -0.2715570    -0.0789790
  C       -0.0046350    -0.1692960    -0.0145170
  C       -1.2611610     0.6942450     0.0320770
  C        1.2550670     0.6870920     0.0422130
  H       -0.0121870    -0.8698730     0.8286010
  H        0.0048720    -0.7692750    -0.9300540
  H       -1.2744540     1.2874770     0.9507400
  H       -1.2751080     1.3772510    -0.8218930
  H        1.2709800     1.2945630     0.9518460
  H        1.2830650     1.3753670    -0.8081880
  H       -3.6465450     0.5877870     0.0421630
  H        2.6042880    -0.9975790     1.0326360
units angstrom
no_reorient  #important for SAPT in psi4, default
symmetry c1  #important for SAPT in psi4, default
}

set PROPERTIES_ORIGIN ["COM"]
properties('MP2/aug-cc-pvtz', properties = ['dipole'])
--------------------------------------------------------------------------

    Molecular point group: c1
  Charge       = 0
  Multiplicity = 1
  Basis Set: AUG-CC-PVTZ
    Blend: AUG-CC-PVTZ
  Basis Set: (AUG-CC-PVTZ AUX)
    Blend: AUG-CC-PVTZ-JKFIT

    Orbital Energies [Eh]
    ---------------------

    Doubly Occupied:

       1A    -91.961631     2A    -91.955927     3A    -11.269790
       4A    -11.269132     5A    -11.243429     6A     -8.961338
       7A     -8.957095     8A     -6.642530     9A     -6.641583
      10A     -6.640575    11A     -6.638441    12A     -6.637428
      13A     -6.636400    14A     -1.109823    15A     -1.035679
      16A     -0.941534    17A     -0.846852    18A     -0.813564
      19A     -0.670069    20A     -0.608262    21A     -0.595570
      22A     -0.564453    23A     -0.518825    24A     -0.516676
      25A     -0.498462    26A     -0.464095    27A     -0.446137
      28A     -0.362919    29A     -0.359929

  @DF-RHF Final Energy:  -913.39524440102832

   => Energetics <=

    Nuclear Repulsion Energy =            267.7879740211457715
    One-Electron Energy =               -1790.7501388371697431
    Two-Electron Energy =                 609.5669204149955931
    Total Energy =                       -913.3952444010283216
  Basis Set: (AUG-CC-PVTZ AUX)
    Blend: AUG-CC-PVTZ-RI
    Molecular point group: c1

    Geometry (in Angstrom), charge = 0, multiplicity = 1:

       Center              X                  Y                   Z               Mass
    ------------   -----------------  -----------------  -----------------  -----------------
         S           -2.710834881668    -0.393839648824    -0.011759375030    31.972071174400
         S            2.776807618332    -0.226601348824    -0.066771175030    31.972071174400
         C           -0.025679381668    -0.124340348824    -0.002309175030    12.000000000000
         C           -1.282205381668     0.739200651176     0.044284824970    12.000000000000
         C            1.234022618332     0.732047651176     0.054420824970    12.000000000000
         H           -0.033231381668    -0.824917348824     0.840808824970     1.007825032230
         H           -0.016172381668    -0.724319348824    -0.917846175030     1.007825032230
         H           -1.295498381668     1.332432651176     0.962947824970     1.007825032230
         H           -1.296152381668     1.422206651176    -0.809685175030     1.007825032230
         H            1.249935618332     1.339518651176     0.964053824970     1.007825032230
         H            1.262020618332     1.420322651176    -0.795980175030     1.007825032230
         H           -3.667589381668     0.632742651176     0.054370824970     1.007825032230
         H            2.583243618332    -0.952623348824     1.044843824970     1.007825032230

  Basis Set: AUG-CC-PVTZ
    Blend: AUG-CC-PVTZ
  Basis Set: (AUG-CC-PVTZ AUX)
    Blend: AUG-CC-PVTZ-JKFIT
	 Reference Energy          =    -913.3952444010283216 [Eh]
	 Singles Energy            =      -0.0000000000000000 [Eh]
	 Same-Spin Energy          =      -0.2365666570974921 [Eh]
	 Opposite-Spin Energy      =      -0.8021782144415894 [Eh]
	 Correlation Energy        =      -1.0387448715390815 [Eh]
	 Total Energy              =    -914.4339892725673735 [Eh]

	 ================> DF-SCS-MP2 Energies <==================
	-----------------------------------------------------------
	 SCS Same-Spin Scale       =       0.3333333333333333 [-]
	 SCS Opposite-Spin Scale   =       1.2000000000000000 [-]
	 SCS Same-Spin Energy      =      -0.0788555523658307 [Eh]
	 SCS Opposite-Spin Energy  =      -0.9626138573299072 [Eh]
	 SCS Correlation Energy    =      -1.0414694096957380 [Eh]
	 SCS Total Energy          =    -914.4367138107240862 [Eh]
	-----------------------------------------------------------

  Dipole Moment: [D]
     X:    -0.6502      Y:     1.6276      Z:     0.6993     Total:     1.8870

*** Psi4 exiting successfully. Buy a developer a beer!
