                               Psi4 1.3.2 release

  ==> Input File <==

--------------------------------------------------------------------------
#psi4
#
memory 32 gb

molecule  {
0 1
  S       -2.6071772    -0.5355526    -0.0290917
  S        2.7978520    -0.2715570    -0.0789790
  C       -0.0046350    -0.1692960    -0.0145170
  C       -1.2611610     0.6942450     0.0320770
  C        1.2550670     0.6870920     0.0422130
  H       -0.0121870    -0.8698730     0.8286010
  H        0.0048720    -0.7692750    -0.9300540
  H       -1.2744540     1.2874770     0.9507400
  H       -1.2751080     1.3772510    -0.8218930
  H        1.2709800     1.2945630     0.9518460
  H        1.2830650     1.3753670    -0.8081880
  H       -3.6465450     0.5877870     0.0421630
  H        2.6042880    -0.9975790     1.0326360
units angstrom
no_reorient  #important for SAPT in psi4, default
symmetry c1  #important for SAPT in psi4, default
}

set PROPERTIES_ORIGIN ["COM"]
properties('MP2/aug-cc-pvtz', properties = ['dipole'])
--------------------------------------------------------------------------

    Molecular point group: c1
  Charge       = 0
  Multiplicity = 1
  Basis Set: AUG-CC-PVTZ
    Blend: AUG-CC-PVTZ
  Basis Set: (AUG-CC-PVTZ AUX)
    Blend: AUG-CC-PVTZ-JKFIT

    Orbital Energies [Eh]
    ---------------------

    Doubly Occupied:

       1A    -91.971148     2A    -91.955266     3A    -11.269212
       4A    -11.268884     5A    -11.242315     6A     -8.968718
       7A     -8.956452     8A     -6.649705     9A     -6.648678
      10A     -6.647742    11A     -6.637798    12A     -6.636787
      13A     -6.635760    14A     -1.110625    15A     -1.034181
      16A     -0.934301    17A     -0.841236    18A     -0.814505
      19A     -0.670221    20A     -0.603742    21A     -0.595255
      22A     -0.562789    23A     -0.516196    24A     -0.504753
      25A     -0.495871    26A     -0.468030    27A     -0.441623
      28A     -0.364457    29A     -0.359341

  @DF-RHF Final Energy:  -913.37783843732927

   => Energetics <=

    Nuclear Repulsion Energy =            268.4815213003055874
    One-Electron Energy =               -1792.1075355503637638
    Two-Electron Energy =                 610.2481758127289595
    Total Energy =                       -913.3778384373292738
  Basis Set: (AUG-CC-PVTZ AUX)
    Blend: AUG-CC-PVTZ-RI
    Molecular point group: c1

    Geometry (in Angstrom), charge = 0, multiplicity = 1:

       Center              X                  Y                   Z               Mass
    ------------   -----------------  -----------------  -----------------  -----------------
         S           -2.652676705892    -0.461954928821    -0.015366924562    31.972071174400
         S            2.752352494108    -0.197959328821    -0.065254224562    31.972071174400
         C           -0.050134505892    -0.095698328821    -0.000792224562    12.000000000000
         C           -1.306660505892     0.767842671179     0.045801775438    12.000000000000
         C            1.209567494108     0.760689671179     0.055937775438    12.000000000000
         H           -0.057686505892    -0.796275328821     0.842325775438     1.007825032230
         H           -0.040627505892    -0.695677328821    -0.916329224562     1.007825032230
         H           -1.319953505892     1.361074671179     0.964464775438     1.007825032230
         H           -1.320607505892     1.450848671179    -0.808168224562     1.007825032230
         H            1.225480494108     1.368160671179     0.965570775438     1.007825032230
         H            1.237565494108     1.448964671179    -0.794463224562     1.007825032230
         H           -3.692044505892     0.661384671179     0.055887775438     1.007825032230
         H            2.558788494108    -0.923981328821     1.046360775438     1.007825032230

  Basis Set: AUG-CC-PVTZ
    Blend: AUG-CC-PVTZ
  Basis Set: (AUG-CC-PVTZ AUX)
    Blend: AUG-CC-PVTZ-JKFIT
	 Reference Energy          =    -913.3778384373292738 [Eh]
	 Singles Energy            =      -0.0000000000000000 [Eh]
	 Same-Spin Energy          =      -0.2372335581027071 [Eh]
	 Opposite-Spin Energy      =      -0.8043756930726251 [Eh]
	 Correlation Energy        =      -1.0416092511753323 [Eh]
	 Total Energy              =    -914.4194476885046470 [Eh]

	 ================> DF-SCS-MP2 Energies <==================
	-----------------------------------------------------------
	 SCS Same-Spin Scale       =       0.3333333333333333 [-]
	 SCS Opposite-Spin Scale   =       1.2000000000000000 [-]
	 SCS Same-Spin Energy      =      -0.0790778527009024 [Eh]
	 SCS Opposite-Spin Energy  =      -0.9652508316871501 [Eh]
	 SCS Correlation Energy    =      -1.0443286843880524 [Eh]
	 SCS Total Energy          =    -914.4221671217172798 [Eh]
	-----------------------------------------------------------

  Dipole Moment: [D]
     X:    -0.7063      Y:     1.6222      Z:     0.6969     Total:     1.9016

*** Psi4 exiting successfully. Buy a developer a beer!
