                               Psi4 1.3.2 release

  ==> Input File <==

--------------------------------------------------------------------------
#psi4
#
memory 32 gb

molecule  {
0 1
  S       -2.7186739    -0.4025005     0.0054524
  S        2.7978520    -0.2715570    -0.0789790
  C       -0.0046350    -0.1692960    -0.0145170
  C       -1.2611610     0.6942450     0.0320770
  C        1.2550670     0.6870920     0.0422130
  H       -0.0121870    -0.8698730     0.8286010
  H        0.0048720    -0.7692750    -0.9300540
  H       -1.2744540     1.2874770     0.9507400
  H       -1.2751080     1.3772510    -0.8218930
  H        1.2709800     1.2945630     0.9518460
  H        1.2830650     1.3753670    -0.8081880
  H       -3.6465450     0.5877870     0.0421630
  H        2.6042880    -0.9975790     1.0326360
units angstrom
no_reorient  #important for SAPT in psi4, default
symmetry c1  #important for SAPT in psi4, default
}

set PROPERTIES_ORIGIN ["COM"]
properties('MP2/aug-cc-pvtz', properties = ['dipole'])
--------------------------------------------------------------------------

    Molecular point group: c1
  Charge       = 0
  Multiplicity = 1
  Basis Set: AUG-CC-PVTZ
    Blend: AUG-CC-PVTZ
  Basis Set: (AUG-CC-PVTZ AUX)
    Blend: AUG-CC-PVTZ-JKFIT

    Orbital Energies [Eh]
    ---------------------

    Doubly Occupied:

       1A    -91.957713     2A    -91.956239     3A    -11.270204
       4A    -11.269280     5A    -11.244018     6A     -8.958488
       7A     -8.957400     8A     -6.639785     9A     -6.638812
      10A     -6.638744    11A     -6.637766    12A     -6.637731
      13A     -6.636702    14A     -1.109776    15A     -1.036682
      16A     -0.944824    17A     -0.849383    18A     -0.813640
      19A     -0.670140    20A     -0.610796    21A     -0.595553
      22A     -0.565260    23A     -0.524817    24A     -0.517167
      25A     -0.498904    26A     -0.462090    27A     -0.447047
      28A     -0.362760    29A     -0.359891

  @DF-RHF Final Energy:  -913.39824233961622

   => Energetics <=

    Nuclear Repulsion Energy =            267.5877782652346468
    One-Electron Energy =               -1790.3488194764572654
    Two-Electron Energy =                 609.3627988716064010
    Total Energy =                       -913.3982423396162176
  Basis Set: (AUG-CC-PVTZ AUX)
    Blend: AUG-CC-PVTZ-RI
    Molecular point group: c1

    Geometry (in Angstrom), charge = 0, multiplicity = 1:

       Center              X                  Y                   Z               Mass
    ------------   -----------------  -----------------  -----------------  -----------------
         S           -2.731168240270    -0.368288807033     0.008951458069    31.972071174400
         S            2.785357659730    -0.237345307033    -0.075479941931    31.972071174400
         C           -0.017129340270    -0.135084307033    -0.011017941931    12.000000000000
         C           -1.273655340270     0.728456692967     0.035576058069    12.000000000000
         C            1.242572659730     0.721303692967     0.045712058069    12.000000000000
         H           -0.024681340270    -0.835661307033     0.832100058069     1.007825032230
         H           -0.007622340270    -0.735063307033    -0.926554941931     1.007825032230
         H           -1.286948340270     1.321688692967     0.954239058069     1.007825032230
         H           -1.287602340270     1.411462692967    -0.818393941931     1.007825032230
         H            1.258485659730     1.328774692967     0.955345058069     1.007825032230
         H            1.270570659730     1.409578692967    -0.804688941931     1.007825032230
         H           -3.659039340270     0.621998692967     0.045662058069     1.007825032230
         H            2.591793659730    -0.963367307033     1.036135058069     1.007825032230

  Basis Set: AUG-CC-PVTZ
    Blend: AUG-CC-PVTZ
  Basis Set: (AUG-CC-PVTZ AUX)
    Blend: AUG-CC-PVTZ-JKFIT
	 Reference Energy          =    -913.3982423396162176 [Eh]
	 Singles Energy            =      -0.0000000000000000 [Eh]
	 Same-Spin Energy          =      -0.2363804364667985 [Eh]
	 Opposite-Spin Energy      =      -0.8015646943817505 [Eh]
	 Correlation Energy        =      -1.0379451308485490 [Eh]
	 Total Energy              =    -914.4361874704648017 [Eh]

	 ================> DF-SCS-MP2 Energies <==================
	-----------------------------------------------------------
	 SCS Same-Spin Scale       =       0.3333333333333333 [-]
	 SCS Opposite-Spin Scale   =       1.2000000000000000 [-]
	 SCS Same-Spin Energy      =      -0.0787934788222662 [Eh]
	 SCS Opposite-Spin Energy  =      -0.9618776332581005 [Eh]
	 SCS Correlation Energy    =      -1.0406711120803667 [Eh]
	 SCS Total Energy          =    -914.4389134516966351 [Eh]
	-----------------------------------------------------------

  Dipole Moment: [D]
     X:    -0.6169      Y:     1.6328      Z:     0.6720     Total:     1.8703

*** Psi4 exiting successfully. Buy a developer a beer!
