                               Psi4 1.3.2 release

  ==> Input File <==

--------------------------------------------------------------------------
#psi4
#
memory 32 gb

molecule  {
0 1
  S       -2.6493295    -0.4878941    -0.0265652
  S        2.7978520    -0.2715570    -0.0789790
  C       -0.0046350    -0.1692960    -0.0145170
  C       -1.2611610     0.6942450     0.0320770
  C        1.2550670     0.6870920     0.0422130
  H       -0.0121870    -0.8698730     0.8286010
  H        0.0048720    -0.7692750    -0.9300540
  H       -1.2744540     1.2874770     0.9507400
  H       -1.2751080     1.3772510    -0.8218930
  H        1.2709800     1.2945630     0.9518460
  H        1.2830650     1.3753670    -0.8081880
  H       -3.6465450     0.5877870     0.0421630
  H        2.6042880    -0.9975790     1.0326360
units angstrom
no_reorient  #important for SAPT in psi4, default
symmetry c1  #important for SAPT in psi4, default
}

set PROPERTIES_ORIGIN ["COM"]
properties('MP2/aug-cc-pvtz', properties = ['dipole'])
--------------------------------------------------------------------------

    Molecular point group: c1
  Charge       = 0
  Multiplicity = 1
  Basis Set: AUG-CC-PVTZ
    Blend: AUG-CC-PVTZ
  Basis Set: (AUG-CC-PVTZ AUX)
    Blend: AUG-CC-PVTZ-JKFIT

    Orbital Energies [Eh]
    ---------------------

    Doubly Occupied:

       1A    -91.966563     2A    -91.955563     3A    -11.269298
       4A    -11.269091     5A    -11.242788     6A     -8.965084
       7A     -8.956741     8A     -6.646165     9A     -6.645193
      10A     -6.644229    11A     -6.638087    12A     -6.637075
      13A     -6.636047    14A     -1.110103    15A     -1.034739
      16A     -0.937654    17A     -0.843841    18A     -0.813830
      19A     -0.670072    20A     -0.605723    21A     -0.595375
      22A     -0.563487    23A     -0.516519    24A     -0.510834
      25A     -0.497583    26A     -0.466470    27A     -0.444262
      28A     -0.363576    29A     -0.359673

  @DF-RHF Final Energy:  -913.38797317968977

   => Energetics <=

    Nuclear Repulsion Energy =            268.1074189332387618
    One-Electron Energy =               -1791.3794521259719659
    Two-Electron Energy =                 609.8840600130434950
    Total Energy =                       -913.3879731796897659
  Basis Set: (AUG-CC-PVTZ AUX)
    Blend: AUG-CC-PVTZ-RI
    Molecular point group: c1

    Geometry (in Angstrom), charge = 0, multiplicity = 1:

       Center              X                  Y                   Z               Mass
    ------------   -----------------  -----------------  -----------------  -----------------
         S           -2.682351115131    -0.428404260585    -0.013588317109    31.972071174400
         S            2.764830384869    -0.212067160585    -0.066002117109    31.972071174400
         C           -0.037656615131    -0.109806160585    -0.001540117109    12.000000000000
         C           -1.294182615131     0.753734839415     0.045053882891    12.000000000000
         C            1.222045384869     0.746581839415     0.055189882891    12.000000000000
         H           -0.045208615131    -0.810383160585     0.841577882891     1.007825032230
         H           -0.028149615131    -0.709785160585    -0.917077117109     1.007825032230
         H           -1.307475615131     1.346966839415     0.963716882891     1.007825032230
         H           -1.308129615131     1.436740839415    -0.808916117109     1.007825032230
         H            1.237958384869     1.354052839415     0.964822882891     1.007825032230
         H            1.250043384869     1.434856839415    -0.795211117109     1.007825032230
         H           -3.679566615131     0.647276839415     0.055139882891     1.007825032230
         H            2.571266384869    -0.938089160585     1.045612882891     1.007825032230

  Basis Set: AUG-CC-PVTZ
    Blend: AUG-CC-PVTZ
  Basis Set: (AUG-CC-PVTZ AUX)
    Blend: AUG-CC-PVTZ-JKFIT
	 Reference Energy          =    -913.3879731796897659 [Eh]
	 Singles Energy            =      -0.0000000000000000 [Eh]
	 Same-Spin Energy          =      -0.2368716418243026 [Eh]
	 Opposite-Spin Energy      =      -0.8031798376370396 [Eh]
	 Correlation Energy        =      -1.0400514794613422 [Eh]
	 Total Energy              =    -914.4280246591511059 [Eh]

	 ================> DF-SCS-MP2 Energies <==================
	-----------------------------------------------------------
	 SCS Same-Spin Scale       =       0.3333333333333333 [-]
	 SCS Opposite-Spin Scale   =       1.2000000000000000 [-]
	 SCS Same-Spin Energy      =      -0.0789572139414342 [Eh]
	 SCS Opposite-Spin Energy  =      -0.9638158051644474 [Eh]
	 SCS Correlation Energy    =      -1.0427730191058817 [Eh]
	 SCS Total Energy          =    -914.4307461987956458 [Eh]
	-----------------------------------------------------------

  Dipole Moment: [D]
     X:    -0.6842      Y:     1.6241      Z:     0.6980     Total:     1.8955

*** Psi4 exiting successfully. Buy a developer a beer!
