                               Psi4 1.3.2 release

  ==> Input File <==

--------------------------------------------------------------------------
#psi4
#
memory 32 gb

molecule  {
0 1
  S       -2.7285110    -0.3883160    -0.0213010
  S        2.7978520    -0.2715570    -0.0789790
  C       -0.0046350    -0.1692960    -0.0145170
  C       -1.3415966     0.6349023     0.0291510
  C        1.2550670     0.6870920     0.0422130
  H       -0.0121870    -0.8698730     0.8286010
  H        0.0048720    -0.7692750    -0.9300540
  H       -1.2744540     1.2874770     0.9507400
  H       -1.2751080     1.3772510    -0.8218930
  H        1.2709800     1.2945630     0.9518460
  H        1.2830650     1.3753670    -0.8081880
  H       -3.6465450     0.5877870     0.0421630
  H        2.6042880    -0.9975790     1.0326360
units angstrom
no_reorient  #important for SAPT in psi4, default
symmetry c1  #important for SAPT in psi4, default
}

set PROPERTIES_ORIGIN ["COM"]
properties('MP2/aug-cc-pvtz', properties = ['dipole'])
--------------------------------------------------------------------------

    Molecular point group: c1
  Charge       = 0
  Multiplicity = 1
  Basis Set: AUG-CC-PVTZ
    Blend: AUG-CC-PVTZ
  Basis Set: (AUG-CC-PVTZ AUX)
    Blend: AUG-CC-PVTZ-JKFIT

    Orbital Energies [Eh]
    ---------------------

    Doubly Occupied:

       1A    -91.957793     2A    -91.956983     3A    -11.270675
       4A    -11.270030     5A    -11.245432     6A     -8.960551
       7A     -8.958086     8A     -6.642027     9A     -6.641025
      10A     -6.639820    11A     -6.639425    12A     -6.638410
      13A     -6.637378    14A     -1.108795    15A     -1.047916
      16A     -0.949069    17A     -0.847186    18A     -0.805230
      19A     -0.663617    20A     -0.619783    21A     -0.588526
      22A     -0.558561    23A     -0.535617    24A     -0.512498
      25A     -0.495804    26A     -0.464994    27A     -0.449760
      28A     -0.362381    29A     -0.358469

  @DF-RHF Final Energy:  -913.38918078916822

   => Energetics <=

    Nuclear Repulsion Energy =            268.1977968759426290
    One-Electron Energy =               -1791.5222796031594044
    Two-Electron Energy =                 609.9353019380484966
    Total Energy =                       -913.3891807891682220
  Basis Set: (AUG-CC-PVTZ AUX)
    Blend: AUG-CC-PVTZ-RI
    Molecular point group: c1

    Geometry (in Angstrom), charge = 0, multiplicity = 1:

       Center              X                  Y                   Z               Mass
    ------------   -----------------  -----------------  -----------------  -----------------
         S           -2.729156638694    -0.351709969882    -0.009557330646    31.972071174400
         S            2.797206361306    -0.234950969882    -0.067235330646    31.972071174400
         C           -0.005280638694    -0.132689969882    -0.002773330646    12.000000000000
         C           -1.342242238694     0.671508330118     0.040894669354    12.000000000000
         C            1.254421361306     0.723698030118     0.053956669354    12.000000000000
         H           -0.012832638694    -0.833266969882     0.840344669354     1.007825032230
         H            0.004226361306    -0.732668969882    -0.918310330646     1.007825032230
         H           -1.275099638694     1.324083030118     0.962483669354     1.007825032230
         H           -1.275753638694     1.413857030118    -0.810149330646     1.007825032230
         H            1.270334361306     1.331169030118     0.963589669354     1.007825032230
         H            1.282419361306     1.411973030118    -0.796444330646     1.007825032230
         H           -3.647190638694     0.624393030118     0.053906669354     1.007825032230
         H            2.603642361306    -0.960972969882     1.044379669354     1.007825032230

  Basis Set: AUG-CC-PVTZ
    Blend: AUG-CC-PVTZ
  Basis Set: (AUG-CC-PVTZ AUX)
    Blend: AUG-CC-PVTZ-JKFIT
	 Reference Energy          =    -913.3891807891682220 [Eh]
	 Singles Energy            =      -0.0000000000000000 [Eh]
	 Same-Spin Energy          =      -0.2369915183550077 [Eh]
	 Opposite-Spin Energy      =      -0.8021690474577865 [Eh]
	 Correlation Energy        =      -1.0391605658127943 [Eh]
	 Total Energy              =    -914.4283413549810575 [Eh]

	 ================> DF-SCS-MP2 Energies <==================
	-----------------------------------------------------------
	 SCS Same-Spin Scale       =       0.3333333333333333 [-]
	 SCS Opposite-Spin Scale   =       1.2000000000000000 [-]
	 SCS Same-Spin Energy      =      -0.0789971727850026 [Eh]
	 SCS Opposite-Spin Energy  =      -0.9626028569493438 [Eh]
	 SCS Correlation Energy    =      -1.0416000297343464 [Eh]
	 SCS Total Energy          =    -914.4307808189025764 [Eh]
	-----------------------------------------------------------

  Dipole Moment: [D]
     X:    -0.7038      Y:     1.5446      Z:     0.6977     Total:     1.8352

*** Psi4 exiting successfully. Buy a developer a beer!
