                               Psi4 1.3.2 release

  ==> Input File <==

--------------------------------------------------------------------------
#psi4
#
memory 32 gb

molecule  {
0 1
  S       -2.7285110    -0.3883160    -0.0213010
  S        2.7978520    -0.2715570    -0.0789790
  C       -0.0046350    -0.1692960    -0.0145170
  C       -1.3824877     0.8413903     0.0415273
  C        1.2550670     0.6870920     0.0422130
  H       -0.0121870    -0.8698730     0.8286010
  H        0.0048720    -0.7692750    -0.9300540
  H       -1.2744540     1.2874770     0.9507400
  H       -1.2751080     1.3772510    -0.8218930
  H        1.2709800     1.2945630     0.9518460
  H        1.2830650     1.3753670    -0.8081880
  H       -3.6465450     0.5877870     0.0421630
  H        2.6042880    -0.9975790     1.0326360
units angstrom
no_reorient  #important for SAPT in psi4, default
symmetry c1  #important for SAPT in psi4, default
}

set PROPERTIES_ORIGIN ["COM"]
properties('MP2/aug-cc-pvtz', properties = ['dipole'])
--------------------------------------------------------------------------

    Molecular point group: c1
  Charge       = 0
  Multiplicity = 1
  Basis Set: AUG-CC-PVTZ
    Blend: AUG-CC-PVTZ
  Basis Set: (AUG-CC-PVTZ AUX)
    Blend: AUG-CC-PVTZ-JKFIT

    Orbital Energies [Eh]
    ---------------------

    Doubly Occupied:

       1A    -91.958938     2A    -91.955145     3A    -11.268604
       4A    -11.264538     5A    -11.250593     6A     -8.959652
       7A     -8.956339     8A     -6.640937     9A     -6.639854
      10A     -6.638816    11A     -6.637674    12A     -6.636666
      13A     -6.635638    14A     -1.094036    15A     -1.037115
      16A     -0.937441    17A     -0.855836    18A     -0.817644
      19A     -0.674603    20A     -0.617701    21A     -0.595100
      22A     -0.555928    23A     -0.523345    24A     -0.516222
      25A     -0.492089    26A     -0.471412    27A     -0.427187
      28A     -0.366478    29A     -0.358336

  @DF-RHF Final Energy:  -913.37100986113728

   => Energetics <=

    Nuclear Repulsion Energy =            265.5517918477742114
    One-Electron Energy =               -1786.2778712030522001
    Two-Electron Energy =                 607.3550694941407073
    Total Energy =                       -913.3710098611372814
  Basis Set: (AUG-CC-PVTZ AUX)
    Blend: AUG-CC-PVTZ-RI
    Molecular point group: c1

    Geometry (in Angstrom), charge = 0, multiplicity = 1:

       Center              X                  Y                   Z               Mass
    ------------   -----------------  -----------------  -----------------  -----------------
         S           -2.724613466775    -0.374651648709    -0.010932389244    31.972071174400
         S            2.801749533225    -0.257892648709    -0.068610389244    31.972071174400
         C           -0.000737466775    -0.155631648709    -0.004148389244    12.000000000000
         C           -1.378590166775     0.855054651291     0.051895910756    12.000000000000
         C            1.258964533225     0.700756351291     0.052581610756    12.000000000000
         H           -0.008289466775    -0.856208648709     0.838969610756     1.007825032230
         H            0.008769533225    -0.755610648709    -0.919685389244     1.007825032230
         H           -1.270556466775     1.301141351291     0.961108610756     1.007825032230
         H           -1.271210466775     1.390915351291    -0.811524389244     1.007825032230
         H            1.274877533225     1.308227351291     0.962214610756     1.007825032230
         H            1.286962533225     1.389031351291    -0.797819389244     1.007825032230
         H           -3.642647466775     0.601451351291     0.052531610756     1.007825032230
         H            2.608185533225    -0.983914648709     1.043004610756     1.007825032230

  Basis Set: AUG-CC-PVTZ
    Blend: AUG-CC-PVTZ
  Basis Set: (AUG-CC-PVTZ AUX)
    Blend: AUG-CC-PVTZ-JKFIT
	 Reference Energy          =    -913.3710098611372814 [Eh]
	 Singles Energy            =      -0.0000000000000000 [Eh]
	 Same-Spin Energy          =      -0.2367352171788796 [Eh]
	 Opposite-Spin Energy      =      -0.8034103427509708 [Eh]
	 Correlation Energy        =      -1.0401455599298504 [Eh]
	 Total Energy              =    -914.4111554210671784 [Eh]

	 ================> DF-SCS-MP2 Energies <==================
	-----------------------------------------------------------
	 SCS Same-Spin Scale       =       0.3333333333333333 [-]
	 SCS Opposite-Spin Scale   =       1.2000000000000000 [-]
	 SCS Same-Spin Energy      =      -0.0789117390596265 [Eh]
	 SCS Opposite-Spin Energy  =      -0.9640924113011649 [Eh]
	 SCS Correlation Energy    =      -1.0430041503607914 [Eh]
	 SCS Total Energy          =    -914.4140140114981250 [Eh]
	-----------------------------------------------------------

  Dipole Moment: [D]
     X:    -0.6647      Y:     1.5541      Z:     0.6964     Total:     1.8281

*** Psi4 exiting successfully. Buy a developer a beer!
