                               Psi4 1.3.2 release

  ==> Input File <==

--------------------------------------------------------------------------
#psi4
#
memory 32 gb

molecule  {
0 1
  S       -2.7654437    -0.3365178    -0.0185697
  S        2.7978520    -0.2715570    -0.0789790
  C       -0.0046350    -0.1692960    -0.0145170
  C       -1.2611610     0.6942450     0.0320770
  C        1.2550670     0.6870920     0.0422130
  H       -0.0121870    -0.8698730     0.8286010
  H        0.0048720    -0.7692750    -0.9300540
  H       -1.2744540     1.2874770     0.9507400
  H       -1.2751080     1.3772510    -0.8218930
  H        1.2709800     1.2945630     0.9518460
  H        1.2830650     1.3753670    -0.8081880
  H       -3.6465450     0.5877870     0.0421630
  H        2.6042880    -0.9975790     1.0326360
units angstrom
no_reorient  #important for SAPT in psi4, default
symmetry c1  #important for SAPT in psi4, default
}

set PROPERTIES_ORIGIN ["COM"]
properties('MP2/aug-cc-pvtz', properties = ['dipole'])
--------------------------------------------------------------------------

    Molecular point group: c1
  Charge       = 0
  Multiplicity = 1
  Basis Set: AUG-CC-PVTZ
    Blend: AUG-CC-PVTZ
  Basis Set: (AUG-CC-PVTZ AUX)
    Blend: AUG-CC-PVTZ-JKFIT

    Orbital Energies [Eh]
    ---------------------

    Doubly Occupied:

       1A    -91.956851     2A    -91.950588     3A    -11.270994
       4A    -11.269785     5A    -11.245203     6A     -8.957999
       7A     -8.953585     8A     -6.639342     9A     -6.638329
      10A     -6.637298    11A     -6.635147    12A     -6.633952
      13A     -6.632856    14A     -1.109992    15A     -1.039063
      16A     -0.951191    17A     -0.854208    18A     -0.814258
      19A     -0.670482    20A     -0.615109    21A     -0.596205
      22A     -0.567542    23A     -0.533758    24A     -0.517816
      25A     -0.499785    26A     -0.459058    27A     -0.447334
      28A     -0.362637    29A     -0.359895

  @DF-RHF Final Energy:  -913.39732903846289

   => Energetics <=

    Nuclear Repulsion Energy =            267.3187408966301746
    One-Electron Energy =               -1789.7916217672213861
    Two-Electron Energy =                 609.0755518321284399
    Total Energy =                       -913.3973290384628854
  Basis Set: (AUG-CC-PVTZ AUX)
    Blend: AUG-CC-PVTZ-RI
    Molecular point group: c1

    Geometry (in Angstrom), charge = 0, multiplicity = 1:

       Center              X                  Y                   Z               Mass
    ------------   -----------------  -----------------  -----------------  -----------------
         S           -2.764093280782    -0.321838254099    -0.007959638744    31.972071174400
         S            2.799202419218    -0.256877454099    -0.068368938744    31.972071174400
         C           -0.003284580782    -0.154616454099    -0.003906938744    12.000000000000
         C           -1.259810580782     0.708924545901     0.042687061256    12.000000000000
         C            1.256417419218     0.701771545901     0.052823061256    12.000000000000
         H           -0.010836580782    -0.855193454099     0.839211061256     1.007825032230
         H            0.006222419218    -0.754595454099    -0.919443938744     1.007825032230
         H           -1.273103580782     1.302156545901     0.961350061256     1.007825032230
         H           -1.273757580782     1.391930545901    -0.811282938744     1.007825032230
         H            1.272330419218     1.309242545901     0.962456061256     1.007825032230
         H            1.284415419218     1.390046545901    -0.797577938744     1.007825032230
         H           -3.645194580782     0.602466545901     0.052773061256     1.007825032230
         H            2.605638419218    -0.982899454099     1.043246061256     1.007825032230

  Basis Set: AUG-CC-PVTZ
    Blend: AUG-CC-PVTZ
  Basis Set: (AUG-CC-PVTZ AUX)
    Blend: AUG-CC-PVTZ-JKFIT
	 Reference Energy          =    -913.3973290384628854 [Eh]
	 Singles Energy            =      -0.0000000000000000 [Eh]
	 Same-Spin Energy          =      -0.2361472945688585 [Eh]
	 Opposite-Spin Energy      =      -0.8007946025813220 [Eh]
	 Correlation Energy        =      -1.0369418971501805 [Eh]
	 Total Energy              =    -914.4342709356130854 [Eh]

	 ================> DF-SCS-MP2 Energies <==================
	-----------------------------------------------------------
	 SCS Same-Spin Scale       =       0.3333333333333333 [-]
	 SCS Opposite-Spin Scale   =       1.2000000000000000 [-]
	 SCS Same-Spin Energy      =      -0.0787157648562862 [Eh]
	 SCS Opposite-Spin Energy  =      -0.9609535230975863 [Eh]
	 SCS Correlation Energy    =      -1.0396692879538725 [Eh]
	 SCS Total Energy          =    -914.4369983264167558 [Eh]
	-----------------------------------------------------------

  Dipole Moment: [D]
     X:    -0.5439      Y:     1.6397      Z:     0.7024     Total:     1.8649

*** Psi4 exiting successfully. Buy a developer a beer!
