                               Psi4 1.3.2 release

  ==> Input File <==

--------------------------------------------------------------------------
#psi4
#
memory 32 gb

molecule  {
0 1
  S       -2.7472037    -0.3625779    -0.0199433
  S        2.7978520    -0.2715570    -0.0789790
  C       -0.0046350    -0.1692960    -0.0145170
  C       -1.2611610     0.6942450     0.0320770
  C        1.2550670     0.6870920     0.0422130
  H       -0.0121870    -0.8698730     0.8286010
  H        0.0048720    -0.7692750    -0.9300540
  H       -1.2744540     1.2874770     0.9507400
  H       -1.2751080     1.3772510    -0.8218930
  H        1.2709800     1.2945630     0.9518460
  H        1.2830650     1.3753670    -0.8081880
  H       -3.6465450     0.5877870     0.0421630
  H        2.6042880    -0.9975790     1.0326360
units angstrom
no_reorient  #important for SAPT in psi4, default
symmetry c1  #important for SAPT in psi4, default
}

set PROPERTIES_ORIGIN ["COM"]
properties('MP2/aug-cc-pvtz', properties = ['dipole'])
--------------------------------------------------------------------------

    Molecular point group: c1
  Charge       = 0
  Multiplicity = 1
  Basis Set: AUG-CC-PVTZ
    Blend: AUG-CC-PVTZ
  Basis Set: (AUG-CC-PVTZ AUX)
    Blend: AUG-CC-PVTZ-JKFIT

    Orbital Energies [Eh]
    ---------------------

    Doubly Occupied:

       1A    -91.956596     2A    -91.953506     3A    -11.270666
       4A    -11.269543     5A    -11.244699     6A     -8.957749
       7A     -8.955546     8A     -6.639092     9A     -6.638079
      10A     -6.637049    11A     -6.636985    12A     -6.635913
      13A     -6.634833    14A     -1.109857    15A     -1.037992
      16A     -0.948519    17A     -0.852199    18A     -0.813937
      19A     -0.670327    20A     -0.613181    21A     -0.596014
      22A     -0.566596    23A     -0.530302    24A     -0.517534
      25A     -0.499453    26A     -0.460155    27A     -0.447468
      28A     -0.362566    29A     -0.359982

  @DF-RHF Final Energy:  -913.39873967257643

   => Energetics <=

    Nuclear Repulsion Energy =            267.4142857049014879
    One-Electron Energy =               -1789.9933700624142148
    Two-Electron Energy =                 609.1803446849363581
    Total Energy =                       -913.3987396725764256
  Basis Set: (AUG-CC-PVTZ AUX)
    Blend: AUG-CC-PVTZ-RI
    Molecular point group: c1

    Geometry (in Angstrom), charge = 0, multiplicity = 1:

       Center              X                  Y                   Z               Mass
    ------------   -----------------  -----------------  -----------------  -----------------
         S           -2.751252671266    -0.340184063751    -0.008926626750    31.972071174400
         S            2.793803028734    -0.249163163751    -0.067962326750    31.972071174400
         C           -0.008683971266    -0.146902163751    -0.003500326750    12.000000000000
         C           -1.265209971266     0.716638836249     0.043093673250    12.000000000000
         C            1.251018028734     0.709485836249     0.053229673250    12.000000000000
         H           -0.016235971266    -0.847479163751     0.839617673250     1.007825032230
         H            0.000823028734    -0.746881163751    -0.919037326750     1.007825032230
         H           -1.278502971266     1.309870836249     0.961756673250     1.007825032230
         H           -1.279156971266     1.399644836249    -0.810876326750     1.007825032230
         H            1.266931028734     1.316956836249     0.962862673250     1.007825032230
         H            1.279016028734     1.397760836249    -0.797171326750     1.007825032230
         H           -3.650593971266     0.610180836249     0.053179673250     1.007825032230
         H            2.600239028734    -0.975185163751     1.043652673250     1.007825032230

  Basis Set: AUG-CC-PVTZ
    Blend: AUG-CC-PVTZ
  Basis Set: (AUG-CC-PVTZ AUX)
    Blend: AUG-CC-PVTZ-JKFIT
	 Reference Energy          =    -913.3987396725764256 [Eh]
	 Singles Energy            =      -0.0000000000000000 [Eh]
	 Same-Spin Energy          =      -0.2362264657678463 [Eh]
	 Opposite-Spin Energy      =      -0.8010597343194414 [Eh]
	 Correlation Energy        =      -1.0372862000872878 [Eh]
	 Total Energy              =    -914.4360258726636630 [Eh]

	 ================> DF-SCS-MP2 Energies <==================
	-----------------------------------------------------------
	 SCS Same-Spin Scale       =       0.3333333333333333 [-]
	 SCS Opposite-Spin Scale   =       1.2000000000000000 [-]
	 SCS Same-Spin Energy      =      -0.0787421552559488 [Eh]
	 SCS Opposite-Spin Energy  =      -0.9612716811833297 [Eh]
	 SCS Correlation Energy    =      -1.0400138364392786 [Eh]
	 SCS Total Energy          =    -914.4387535090156689 [Eh]
	-----------------------------------------------------------

  Dipole Moment: [D]
     X:    -0.5754      Y:     1.6361      Z:     0.7016     Total:     1.8708

*** Psi4 exiting successfully. Buy a developer a beer!
