                               Psi4 1.3.2 release

  ==> Input File <==

--------------------------------------------------------------------------
#psi4
#
memory 32 gb

molecule  {
0 1
  S       -2.7285110    -0.3883160    -0.0213010
  S        2.7978520    -0.2715570    -0.0789790
  C       -0.0046350    -0.1692960    -0.0145170
  C       -1.4220322     0.5755597     0.0262250
  C        1.2550670     0.6870920     0.0422130
  H       -0.0121870    -0.8698730     0.8286010
  H        0.0048720    -0.7692750    -0.9300540
  H       -1.2744540     1.2874770     0.9507400
  H       -1.2751080     1.3772510    -0.8218930
  H        1.2709800     1.2945630     0.9518460
  H        1.2830650     1.3753670    -0.8081880
  H       -3.6465450     0.5877870     0.0421630
  H        2.6042880    -0.9975790     1.0326360
units angstrom
no_reorient  #important for SAPT in psi4, default
symmetry c1  #important for SAPT in psi4, default
}

set PROPERTIES_ORIGIN ["COM"]
properties('MP2/aug-cc-pvtz', properties = ['dipole'])
--------------------------------------------------------------------------

    Molecular point group: c1
  Charge       = 0
  Multiplicity = 1
  Basis Set: AUG-CC-PVTZ
    Blend: AUG-CC-PVTZ
  Basis Set: (AUG-CC-PVTZ AUX)
    Blend: AUG-CC-PVTZ-JKFIT

    Orbital Energies [Eh]
    ---------------------

    Doubly Occupied:

       1A    -91.958105     2A    -91.957191     3A    -11.273108
       4A    -11.271704     5A    -11.248386     6A     -8.962469
       7A     -8.959148     8A     -6.644229     9A     -6.642930
      10A     -6.641605    11A     -6.640481    12A     -6.639464
      13A     -6.638429    14A     -1.114337    15A     -1.060789
      16A     -0.950642    17A     -0.844490    18A     -0.795459
      19A     -0.659366    20A     -0.630967    21A     -0.582892
      22A     -0.557438    23A     -0.543080    24A     -0.511363
      25A     -0.494356    26A     -0.468097    27A     -0.440894
      28A     -0.362801    29A     -0.352474

  @DF-RHF Final Energy:  -913.35954939201247

   => Energetics <=

    Nuclear Repulsion Energy =            269.0334038170341273
    One-Electron Energy =               -1793.0925161605671292
    Two-Electron Energy =                 610.6995629515204200
    Total Energy =                       -913.3595493920124682
  Basis Set: (AUG-CC-PVTZ AUX)
    Blend: AUG-CC-PVTZ-RI
    Molecular point group: c1

    Geometry (in Angstrom), charge = 0, multiplicity = 1:

       Center              X                  Y                   Z               Mass
    ------------   -----------------  -----------------  -----------------  -----------------
         S           -2.720219907739    -0.345116759284    -0.009232239831    31.972071174400
         S            2.806143092261    -0.228357759284    -0.066910239831    31.972071174400
         C            0.003656092261    -0.126096759284    -0.002448239831    12.000000000000
         C           -1.413741107739     0.618758940716     0.038293760169    12.000000000000
         C            1.263358092261     0.730291240716     0.054281760169    12.000000000000
         H           -0.003895907739    -0.826673759284     0.840669760169     1.007825032230
         H            0.013163092261    -0.726075759284    -0.917985239831     1.007825032230
         H           -1.266162907739     1.330676240716     0.962808760169     1.007825032230
         H           -1.266816907739     1.420450240716    -0.809824239831     1.007825032230
         H            1.279271092261     1.337762240716     0.963914760169     1.007825032230
         H            1.291356092261     1.418566240716    -0.796119239831     1.007825032230
         H           -3.638253907739     0.630986240716     0.054231760169     1.007825032230
         H            2.612579092261    -0.954379759284     1.044704760169     1.007825032230

  Basis Set: AUG-CC-PVTZ
    Blend: AUG-CC-PVTZ
  Basis Set: (AUG-CC-PVTZ AUX)
    Blend: AUG-CC-PVTZ-JKFIT
	 Reference Energy          =    -913.3595493920124682 [Eh]
	 Singles Energy            =      -0.0000000000000000 [Eh]
	 Same-Spin Energy          =      -0.2384637747416329 [Eh]
	 Opposite-Spin Energy      =      -0.8042346260659378 [Eh]
	 Correlation Energy        =      -1.0426984008075706 [Eh]
	 Total Energy              =    -914.4022477928200487 [Eh]

	 ================> DF-SCS-MP2 Energies <==================
	-----------------------------------------------------------
	 SCS Same-Spin Scale       =       0.3333333333333333 [-]
	 SCS Opposite-Spin Scale   =       1.2000000000000000 [-]
	 SCS Same-Spin Energy      =      -0.0794879249138776 [Eh]
	 SCS Opposite-Spin Energy  =      -0.9650815512791253 [Eh]
	 SCS Correlation Energy    =      -1.0445694761930029 [Eh]
	 SCS Total Energy          =    -914.4041188682055008 [Eh]
	-----------------------------------------------------------

  Dipole Moment: [D]
     X:    -0.7646      Y:     1.4382      Z:     0.6941     Total:     1.7705

*** Psi4 exiting successfully. Buy a developer a beer!
