                               Psi4 1.3.2 release

  ==> Input File <==

--------------------------------------------------------------------------
#psi4
#
memory 32 gb

molecule  {
0 1
  S       -2.7093713    -0.4137244    -0.0226425
  S        2.7978520    -0.2715570    -0.0789790
  C       -0.0046350    -0.1692960    -0.0145170
  C       -1.2611610     0.6942450     0.0320770
  C        1.2550670     0.6870920     0.0422130
  H       -0.0121870    -0.8698730     0.8286010
  H        0.0048720    -0.7692750    -0.9300540
  H       -1.2744540     1.2874770     0.9507400
  H       -1.2751080     1.3772510    -0.8218930
  H        1.2709800     1.2945630     0.9518460
  H        1.2830650     1.3753670    -0.8081880
  H       -3.6465450     0.5877870     0.0421630
  H        2.6042880    -0.9975790     1.0326360
units angstrom
no_reorient  #important for SAPT in psi4, default
symmetry c1  #important for SAPT in psi4, default
}

set PROPERTIES_ORIGIN ["COM"]
properties('MP2/aug-cc-pvtz', properties = ['dipole'])
--------------------------------------------------------------------------

    Molecular point group: c1
  Charge       = 0
  Multiplicity = 1
  Basis Set: AUG-CC-PVTZ
    Blend: AUG-CC-PVTZ
  Basis Set: (AUG-CC-PVTZ AUX)
    Blend: AUG-CC-PVTZ-JKFIT

    Orbital Energies [Eh]
    ---------------------

    Doubly Occupied:

       1A    -91.959024     2A    -91.956134     3A    -11.270063
       4A    -11.269220     5A    -11.243812     6A     -8.959428
       7A     -8.957297     8A     -6.640687     9A     -6.639728
      10A     -6.638695    11A     -6.638642    12A     -6.637629
      13A     -6.636600    14A     -1.109774    15A     -1.036317
      16A     -0.943697    17A     -0.848521    18A     -0.813587
      19A     -0.670120    20A     -0.609753    21A     -0.595697
      22A     -0.565063    23A     -0.522715    24A     -0.517004
      25A     -0.498804    26A     -0.462764    27A     -0.446805
      28A     -0.362705    29A     -0.360001

  @DF-RHF Final Energy:  -913.39753374383599

   => Energetics <=

    Nuclear Repulsion Energy =            267.6491451088256781
    One-Electron Energy =               -1790.4727863621767483
    Two-Electron Energy =                 609.4261075095150773
    Total Energy =                       -913.3975337438359929
  Basis Set: (AUG-CC-PVTZ AUX)
    Blend: AUG-CC-PVTZ-RI
    Molecular point group: c1

    Geometry (in Angstrom), charge = 0, multiplicity = 1:

       Center              X                  Y                   Z               Mass
    ------------   -----------------  -----------------  -----------------  -----------------
         S           -2.724619388620    -0.376190216965    -0.010826811684    31.972071174400
         S            2.782603911380    -0.234022816965    -0.067163311684    31.972071174400
         C           -0.019883088620    -0.131761816965    -0.002701311684    12.000000000000
         C           -1.276409088620     0.731779183035     0.043892688316    12.000000000000
         C            1.239818911380     0.724626183035     0.054028688316    12.000000000000
         H           -0.027435088620    -0.832338816965     0.840416688316     1.007825032230
         H           -0.010376088620    -0.731740816965    -0.918238311684     1.007825032230
         H           -1.289702088620     1.325011183035     0.962555688316     1.007825032230
         H           -1.290356088620     1.414785183035    -0.810077311684     1.007825032230
         H            1.255731911380     1.332097183035     0.963661688316     1.007825032230
         H            1.267816911380     1.412901183035    -0.796372311684     1.007825032230
         H           -3.661793088620     0.625321183035     0.053978688316     1.007825032230
         H            2.589039911380    -0.960044816965     1.044451688316     1.007825032230

  Basis Set: AUG-CC-PVTZ
    Blend: AUG-CC-PVTZ
  Basis Set: (AUG-CC-PVTZ AUX)
    Blend: AUG-CC-PVTZ-JKFIT
	 Reference Energy          =    -913.3975337438359929 [Eh]
	 Singles Energy            =      -0.0000000000000000 [Eh]
	 Same-Spin Energy          =      -0.2364369006660545 [Eh]
	 Opposite-Spin Energy      =      -0.8017528677887582 [Eh]
	 Correlation Energy        =      -1.0381897684548127 [Eh]
	 Total Energy              =    -914.4357235122907923 [Eh]

	 ================> DF-SCS-MP2 Energies <==================
	-----------------------------------------------------------
	 SCS Same-Spin Scale       =       0.3333333333333333 [-]
	 SCS Opposite-Spin Scale   =       1.2000000000000000 [-]
	 SCS Same-Spin Energy      =      -0.0788123002220182 [Eh]
	 SCS Opposite-Spin Energy  =      -0.9621034413465098 [Eh]
	 SCS Correlation Energy    =      -1.0409157415685280 [Eh]
	 SCS Total Energy          =    -914.4384494854044760 [Eh]
	-----------------------------------------------------------

  Dipole Moment: [D]
     X:    -0.6284      Y:     1.6300      Z:     0.7000     Total:     1.8820

*** Psi4 exiting successfully. Buy a developer a beer!
