                               Psi4 1.3.2 release

  ==> Input File <==

--------------------------------------------------------------------------
#psi4
#
memory 32 gb

molecule  {
0 1
  S       -2.7633616    -0.3283251    -0.1280705
  S        2.7978520    -0.2715570    -0.0789790
  C       -0.0046350    -0.1692960    -0.0145170
  C       -1.2611610     0.6942450     0.0320770
  C        1.2550670     0.6870920     0.0422130
  H       -0.0121870    -0.8698730     0.8286010
  H        0.0048720    -0.7692750    -0.9300540
  H       -1.2744540     1.2874770     0.9507400
  H       -1.2751080     1.3772510    -0.8218930
  H        1.2709800     1.2945630     0.9518460
  H        1.2830650     1.3753670    -0.8081880
  H       -3.6465450     0.5877870     0.0421630
  H        2.6042880    -0.9975790     1.0326360
units angstrom
no_reorient  #important for SAPT in psi4, default
symmetry c1  #important for SAPT in psi4, default
}

set PROPERTIES_ORIGIN ["COM"]
properties('MP2/aug-cc-pvtz', properties = ['dipole'])
--------------------------------------------------------------------------

    Molecular point group: c1
  Charge       = 0
  Multiplicity = 1
  Basis Set: AUG-CC-PVTZ
    Blend: AUG-CC-PVTZ
  Basis Set: (AUG-CC-PVTZ AUX)
    Blend: AUG-CC-PVTZ-JKFIT

    Orbital Energies [Eh]
    ---------------------

    Doubly Occupied:

       1A    -91.956822     2A    -91.951091     3A    -11.270936
       4A    -11.269654     5A    -11.245142     6A     -8.957970
       7A     -8.953920     8A     -6.639313     9A     -6.638299
      10A     -6.637269    11A     -6.635456    12A     -6.634288
      13A     -6.633191    14A     -1.109944    15A     -1.038908
      16A     -0.950787    17A     -0.853837    18A     -0.814146
      19A     -0.670746    20A     -0.613540    21A     -0.597019
      22A     -0.568190    23A     -0.532049    24A     -0.517686
      25A     -0.500017    26A     -0.459518    27A     -0.447314
      28A     -0.362050    29A     -0.360138

  @DF-RHF Final Energy:  -913.39712195722927

   => Energetics <=

    Nuclear Repulsion Energy =            267.3056190365537077
    One-Electron Energy =               -1789.7670105647439414
    Two-Electron Energy =                 609.0642695709609598
    Total Energy =                       -913.3971219572292739
  Basis Set: (AUG-CC-PVTZ AUX)
    Blend: AUG-CC-PVTZ-RI
    Molecular point group: c1

    Geometry (in Angstrom), charge = 0, multiplicity = 1:

       Center              X                  Y                   Z               Mass
    ------------   -----------------  -----------------  -----------------  -----------------
         S           -2.762627522390    -0.316070750723    -0.085046097872    31.972071174400
         S            2.798586077610    -0.259302650723    -0.035954597872    31.972071174400
         C           -0.003900922390    -0.157041650723     0.028507402128    12.000000000000
         C           -1.260426922390     0.706499349277     0.075101402128    12.000000000000
         C            1.255801077610     0.699346349277     0.085237402128    12.000000000000
         H           -0.011452922390    -0.857618650723     0.871625402128     1.007825032230
         H            0.005606077610    -0.757020650723    -0.887029597872     1.007825032230
         H           -1.273719922390     1.299731349277     0.993764402128     1.007825032230
         H           -1.274373922390     1.389505349277    -0.778868597872     1.007825032230
         H            1.271714077610     1.306817349277     0.994870402128     1.007825032230
         H            1.283799077610     1.387621349277    -0.765163597872     1.007825032230
         H           -3.645810922390     0.600041349277     0.085187402128     1.007825032230
         H            2.605022077610    -0.985324650723     1.075660402128     1.007825032230

  Basis Set: AUG-CC-PVTZ
    Blend: AUG-CC-PVTZ
  Basis Set: (AUG-CC-PVTZ AUX)
    Blend: AUG-CC-PVTZ-JKFIT
	 Reference Energy          =    -913.3971219572292739 [Eh]
	 Singles Energy            =      -0.0000000000000000 [Eh]
	 Same-Spin Energy          =      -0.2361802440425433 [Eh]
	 Opposite-Spin Energy      =      -0.8008736350938787 [Eh]
	 Correlation Energy        =      -1.0370538791364219 [Eh]
	 Total Energy              =    -914.4341758363657391 [Eh]

	 ================> DF-SCS-MP2 Energies <==================
	-----------------------------------------------------------
	 SCS Same-Spin Scale       =       0.3333333333333333 [-]
	 SCS Opposite-Spin Scale   =       1.2000000000000000 [-]
	 SCS Same-Spin Energy      =      -0.0787267480141811 [Eh]
	 SCS Opposite-Spin Energy  =      -0.9610483621126543 [Eh]
	 SCS Correlation Energy    =      -1.0397751101268353 [Eh]
	 SCS Total Energy          =    -914.4368970673560852 [Eh]
	-----------------------------------------------------------

  Dipole Moment: [D]
     X:    -0.5473      Y:     1.6262      Z:     0.8235     Total:     1.9032

*** Psi4 exiting successfully. Buy a developer a beer!
