                               Psi4 1.3.2 release

  ==> Input File <==

--------------------------------------------------------------------------
#psi4
#
memory 32 gb

molecule  {
0 1
  S       -2.7285110    -0.3883160    -0.0213010
  S        2.7978520    -0.2715570    -0.0789790
  C       -0.0046350    -0.1692960    -0.0145170
  C       -1.2998791     0.7446937     0.0352973
  C        1.2550670     0.6870920     0.0422130
  H       -0.0121870    -0.8698730     0.8286010
  H        0.0048720    -0.7692750    -0.9300540
  H       -1.2744540     1.2874770     0.9507400
  H       -1.2751080     1.3772510    -0.8218930
  H        1.2709800     1.2945630     0.9518460
  H        1.2830650     1.3753670    -0.8081880
  H       -3.6465450     0.5877870     0.0421630
  H        2.6042880    -0.9975790     1.0326360
units angstrom
no_reorient  #important for SAPT in psi4, default
symmetry c1  #important for SAPT in psi4, default
}

set PROPERTIES_ORIGIN ["COM"]
properties('MP2/aug-cc-pvtz', properties = ['dipole'])
--------------------------------------------------------------------------

    Molecular point group: c1
  Charge       = 0
  Multiplicity = 1
  Basis Set: AUG-CC-PVTZ
    Blend: AUG-CC-PVTZ
  Basis Set: (AUG-CC-PVTZ AUX)
    Blend: AUG-CC-PVTZ-JKFIT

    Orbital Energies [Eh]
    ---------------------

    Doubly Occupied:

       1A    -91.956864     2A    -91.955876     3A    -11.269608
       4A    -11.266819     5A    -11.246623     6A     -8.957921
       7A     -8.957047     8A     -6.639247     9A     -6.638389
      10A     -6.638212    11A     -6.637378    12A     -6.637167
      13A     -6.636349    14A     -1.103414    15A     -1.036804
      16A     -0.942694    17A     -0.851173    18A     -0.816274
      19A     -0.670475    20A     -0.607646    21A     -0.600954
      22A     -0.561022    23A     -0.524488    24A     -0.517479
      25A     -0.498341    26A     -0.464100    27A     -0.444003
      28A     -0.363658    29A     -0.359971

  @DF-RHF Final Energy:  -913.39545905338355

   => Energetics <=

    Nuclear Repulsion Energy =            266.8565904796024029
    One-Electron Energy =               -1788.9040991948081682
    Two-Electron Energy =                 608.6520496618222751
    Total Energy =                       -913.3954590533835471
  Basis Set: (AUG-CC-PVTZ AUX)
    Blend: AUG-CC-PVTZ-RI
    Molecular point group: c1

    Geometry (in Angstrom), charge = 0, multiplicity = 1:

       Center              X                  Y                   Z               Mass
    ------------   -----------------  -----------------  -----------------  -----------------
         S           -2.733791627102    -0.363908252769    -0.010240210235    31.972071174400
         S            2.792571372898    -0.247149252769    -0.067918210235    31.972071174400
         C           -0.009915627102    -0.144888252769    -0.003456210235    12.000000000000
         C           -1.305159727102     0.769101447231     0.046358089765    12.000000000000
         C            1.249786372898     0.711499747231     0.053273789765    12.000000000000
         H           -0.017467627102    -0.845465252769     0.839661789765     1.007825032230
         H           -0.000408627102    -0.744867252769    -0.918993210235     1.007825032230
         H           -1.279734627102     1.311884747231     0.961800789765     1.007825032230
         H           -1.280388627102     1.401658747231    -0.810832210235     1.007825032230
         H            1.265699372898     1.318970747231     0.962906789765     1.007825032230
         H            1.277784372898     1.399774747231    -0.797127210235     1.007825032230
         H           -3.651825627102     0.612194747231     0.053223789765     1.007825032230
         H            2.599007372898    -0.973171252769     1.043696789765     1.007825032230

  Basis Set: AUG-CC-PVTZ
    Blend: AUG-CC-PVTZ
  Basis Set: (AUG-CC-PVTZ AUX)
    Blend: AUG-CC-PVTZ-JKFIT
	 Reference Energy          =    -913.3954590533835471 [Eh]
	 Singles Energy            =      -0.0000000000000000 [Eh]
	 Same-Spin Energy          =      -0.2361924305356507 [Eh]
	 Opposite-Spin Energy      =      -0.8015346994490893 [Eh]
	 Correlation Energy        =      -1.0377271299847399 [Eh]
	 Total Energy              =    -914.4331861833683206 [Eh]

	 ================> DF-SCS-MP2 Energies <==================
	-----------------------------------------------------------
	 SCS Same-Spin Scale       =       0.3333333333333333 [-]
	 SCS Opposite-Spin Scale   =       1.2000000000000000 [-]
	 SCS Same-Spin Energy      =      -0.0787308101785502 [Eh]
	 SCS Opposite-Spin Energy  =      -0.9618416393389071 [Eh]
	 SCS Correlation Energy    =      -1.0405724495174573 [Eh]
	 SCS Total Energy          =    -914.4360315029009598 [Eh]
	-----------------------------------------------------------

  Dipole Moment: [D]
     X:    -0.6323      Y:     1.6157      Z:     0.6999     Total:     1.8709

*** Psi4 exiting successfully. Buy a developer a beer!
