                               Psi4 1.3.2 release

  ==> Input File <==

--------------------------------------------------------------------------
#psi4
#
memory 32 gb

molecule  {
0 1
  S       -2.7285110    -0.3883160    -0.0213010
  S        2.7978520    -0.2715570    -0.0789790
  C       -0.0046350    -0.1692960    -0.0145170
  C       -1.2611610     0.6942450     0.0320770
  C        1.2550670     0.6870920     0.0422130
  H       -0.0121870    -0.8698730     0.8286010
  H        0.0048720    -0.7692750    -0.9300540
  H       -1.2744540     1.2874770     0.9507400
  H       -1.2751080     1.3772510    -0.8218930
  H        1.2709800     1.2945630     0.9518460
  H        1.2830650     1.3753670    -0.8081880
  H       -3.6465450     0.5877870     0.0421630
  H        2.6042880    -0.9975790     1.0326360
units angstrom
no_reorient  #important for SAPT in psi4, default
symmetry c1  #important for SAPT in psi4, default
}

set PROPERTIES_ORIGIN ["COM"]
properties('MP2/aug-cc-pvtz', properties = ['dipole'])
--------------------------------------------------------------------------

    Molecular point group: c1
  Charge       = 0
  Multiplicity = 1
  Basis Set: AUG-CC-PVTZ
    Blend: AUG-CC-PVTZ
  Basis Set: (AUG-CC-PVTZ AUX)
    Blend: AUG-CC-PVTZ-JKFIT

    Orbital Energies [Eh]
    ---------------------

    Doubly Occupied:

       1A    -91.956357     2A    -91.956317     3A    -11.270355
       4A    -11.269356     5A    -11.244235     6A     -8.957515
       7A     -8.957496     8A     -6.638859     9A     -6.638835
      10A     -6.637846    11A     -6.637839    12A     -6.636817
      13A     -6.636781    14A     -1.109785    15A     -1.037083
      16A     -0.946023    17A     -0.850303    18A     -0.813712
      19A     -0.670206    20A     -0.611393    21A     -0.595845
      22A     -0.565774    23A     -0.526595    24A     -0.517267
      25A     -0.499129    26A     -0.461424    27A     -0.447266
      28A     -0.362586    29A     -0.360020

  @DF-RHF Final Energy:  -913.39875004321641

   => Energetics <=

    Nuclear Repulsion Energy =            267.5245059751118788
    One-Electron Energy =               -1790.2204792906061357
    Two-Electron Energy =                 609.2972232722778472
    Total Energy =                       -913.3987500432164097
  Basis Set: (AUG-CC-PVTZ AUX)
    Blend: AUG-CC-PVTZ-RI
    Molecular point group: c1

    Geometry (in Angstrom), charge = 0, multiplicity = 1:

       Center              X                  Y                   Z               Mass
    ------------   -----------------  -----------------  -----------------  -----------------
         S           -2.738093369649    -0.358303191590    -0.009882421462    31.972071174400
         S            2.788269630351    -0.241544191590    -0.067560421462    31.972071174400
         C           -0.014217369649    -0.139283191590    -0.003098421462    12.000000000000
         C           -1.270743369649     0.724257808410     0.043495578538    12.000000000000
         C            1.245484630351     0.717104808410     0.053631578538    12.000000000000
         H           -0.021769369649    -0.839860191590     0.840019578538     1.007825032230
         H           -0.004710369649    -0.739262191590    -0.918635421462     1.007825032230
         H           -1.284036369649     1.317489808410     0.962158578538     1.007825032230
         H           -1.284690369649     1.407263808410    -0.810474421462     1.007825032230
         H            1.261397630351     1.324575808410     0.963264578538     1.007825032230
         H            1.273482630351     1.405379808410    -0.796769421462     1.007825032230
         H           -3.656127369649     0.617799808410     0.053581578538     1.007825032230
         H            2.594705630351    -0.967566191590     1.044054578538     1.007825032230

  Basis Set: AUG-CC-PVTZ
    Blend: AUG-CC-PVTZ
  Basis Set: (AUG-CC-PVTZ AUX)
    Blend: AUG-CC-PVTZ-JKFIT
	 Reference Energy          =    -913.3987500432164097 [Eh]
	 Singles Energy            =      -0.0000000000000000 [Eh]
	 Same-Spin Energy          =      -0.2363232485328887 [Eh]
	 Opposite-Spin Energy      =      -0.8013795819603650 [Eh]
	 Correlation Energy        =      -1.0377028304932536 [Eh]
	 Total Energy              =    -914.4364528737096407 [Eh]

	 ================> DF-SCS-MP2 Energies <==================
	-----------------------------------------------------------
	 SCS Same-Spin Scale       =       0.3333333333333333 [-]
	 SCS Opposite-Spin Scale   =       1.2000000000000000 [-]
	 SCS Same-Spin Energy      =      -0.0787744161776295 [Eh]
	 SCS Opposite-Spin Energy  =      -0.9616554983524379 [Eh]
	 SCS Correlation Energy    =      -1.0404299145300675 [Eh]
	 SCS Total Energy          =    -914.4391799577464326 [Eh]
	-----------------------------------------------------------

  Dipole Moment: [D]
     X:    -0.6035      Y:     1.6328      Z:     0.7008     Total:     1.8766

*** Psi4 exiting successfully. Buy a developer a beer!
