                               Psi4 1.3.2 release

  ==> Input File <==

--------------------------------------------------------------------------
#psi4
#
memory 32 gb

molecule  {
0 1
  S       -2.7285110    -0.3883160    -0.0213010
  S        2.7978520    -0.2715570    -0.0789790
  C       -0.0046350    -0.1692960    -0.0145170
  C       -1.1002898     0.8129303     0.0379290
  C        1.2550670     0.6870920     0.0422130
  H       -0.0121870    -0.8698730     0.8286010
  H        0.0048720    -0.7692750    -0.9300540
  H       -1.2744540     1.2874770     0.9507400
  H       -1.2751080     1.3772510    -0.8218930
  H        1.2709800     1.2945630     0.9518460
  H        1.2830650     1.3753670    -0.8081880
  H       -3.6465450     0.5877870     0.0421630
  H        2.6042880    -0.9975790     1.0326360
units angstrom
no_reorient  #important for SAPT in psi4, default
symmetry c1  #important for SAPT in psi4, default
}

set PROPERTIES_ORIGIN ["COM"]
properties('MP2/aug-cc-pvtz', properties = ['dipole'])
--------------------------------------------------------------------------

    Molecular point group: c1
  Charge       = 0
  Multiplicity = 1
  Basis Set: AUG-CC-PVTZ
    Blend: AUG-CC-PVTZ
  Basis Set: (AUG-CC-PVTZ AUX)
    Blend: AUG-CC-PVTZ-JKFIT

    Orbital Energies [Eh]
    ---------------------

    Doubly Occupied:

       1A    -91.956910     2A    -91.946991     3A    -11.278033
       4A    -11.272548     5A    -11.246983     6A     -8.958168
       7A     -8.946916     8A     -6.639509     9A     -6.638509
      10A     -6.637474    11A     -6.628075    12A     -6.627005
      13A     -6.626082    14A     -1.121023    15A     -1.026269
      16A     -0.936620    17A     -0.857417    18A     -0.827404
      19A     -0.689421    20A     -0.612747    21A     -0.605132
      22A     -0.586103    23A     -0.529488    24A     -0.513655
      25A     -0.506772    26A     -0.461583    27A     -0.410707
      28A     -0.361215    29A     -0.357193

  @DF-RHF Final Energy:  -913.37662176276160

   => Energetics <=

    Nuclear Repulsion Energy =            266.4708413660642918
    One-Electron Energy =               -1788.0830245253712292
    Two-Electron Energy =                 608.2355613965452221
    Total Energy =                       -913.3766217627616015
  Basis Set: (AUG-CC-PVTZ AUX)
    Blend: AUG-CC-PVTZ-RI
    Molecular point group: c1

    Geometry (in Angstrom), charge = 0, multiplicity = 1:

       Center              X                  Y                   Z               Mass
    ------------   -----------------  -----------------  -----------------  -----------------
         S           -2.755966831559    -0.371489623896    -0.010532603092    31.972071174400
         S            2.770396168441    -0.254730623896    -0.068210603092    31.972071174400
         C           -0.032090831559    -0.152469623896    -0.003748603092    12.000000000000
         C           -1.127745631559     0.829756676104     0.048697396908    12.000000000000
         C            1.227611168441     0.703918376104     0.052981396908    12.000000000000
         H           -0.039642831559    -0.853046623896     0.839369396908     1.007825032230
         H           -0.022583831559    -0.752448623896    -0.919285603092     1.007825032230
         H           -1.301909831559     1.304303376104     0.961508396908     1.007825032230
         H           -1.302563831559     1.394077376104    -0.811124603092     1.007825032230
         H            1.243524168441     1.311389376104     0.962614396908     1.007825032230
         H            1.255609168441     1.392193376104    -0.797419603092     1.007825032230
         H           -3.674000831559     0.604613376104     0.052931396908     1.007825032230
         H            2.576832168441    -0.980752623896     1.043404396908     1.007825032230

  Basis Set: AUG-CC-PVTZ
    Blend: AUG-CC-PVTZ
  Basis Set: (AUG-CC-PVTZ AUX)
    Blend: AUG-CC-PVTZ-JKFIT
	 Reference Energy          =    -913.3766217627616015 [Eh]
	 Singles Energy            =      -0.0000000000000000 [Eh]
	 Same-Spin Energy          =      -0.2369106064225312 [Eh]
	 Opposite-Spin Energy      =      -0.8029562902706227 [Eh]
	 Correlation Energy        =      -1.0398668966931539 [Eh]
	 Total Energy              =    -914.4164886594547852 [Eh]

	 ================> DF-SCS-MP2 Energies <==================
	-----------------------------------------------------------
	 SCS Same-Spin Scale       =       0.3333333333333333 [-]
	 SCS Opposite-Spin Scale   =       1.2000000000000000 [-]
	 SCS Same-Spin Energy      =      -0.0789702021408437 [Eh]
	 SCS Opposite-Spin Energy  =      -0.9635475483247471 [Eh]
	 SCS Correlation Energy    =      -1.0425177504655909 [Eh]
	 SCS Total Energy          =    -914.4191395132271509 [Eh]
	-----------------------------------------------------------

  Dipole Moment: [D]
     X:    -0.2800      Y:     1.7814      Z:     0.7066     Total:     1.9368

*** Psi4 exiting successfully. Buy a developer a beer!
