                               Psi4 1.3.2 release

  ==> Input File <==

--------------------------------------------------------------------------
#psi4
#
memory 32 gb

molecule  {
0 1
  S       -2.7285110    -0.3883160    -0.0213010
  S        2.7978520    -0.2715570    -0.0789790
  C       -0.0046350    -0.1692960    -0.0145170
  C       -1.1559109     0.5352390     0.0220419
  C        1.2550670     0.6870920     0.0422130
  H       -0.0121870    -0.8698730     0.8286010
  H        0.0048720    -0.7692750    -0.9300540
  H       -1.2744540     1.2874770     0.9507400
  H       -1.2751080     1.3772510    -0.8218930
  H        1.2709800     1.2945630     0.9518460
  H        1.2830650     1.3753670    -0.8081880
  H       -3.6465450     0.5877870     0.0421630
  H        2.6042880    -0.9975790     1.0326360
units angstrom
no_reorient  #important for SAPT in psi4, default
symmetry c1  #important for SAPT in psi4, default
}

set PROPERTIES_ORIGIN ["COM"]
properties('MP2/aug-cc-pvtz', properties = ['dipole'])
--------------------------------------------------------------------------

    Molecular point group: c1
  Charge       = 0
  Multiplicity = 1
  Basis Set: AUG-CC-PVTZ
    Blend: AUG-CC-PVTZ
  Basis Set: (AUG-CC-PVTZ AUX)
    Blend: AUG-CC-PVTZ-JKFIT

    Orbital Energies [Eh]
    ---------------------

    Doubly Occupied:

       1A    -91.958272     2A    -91.956956     3A    -11.281171
       4A    -11.273904     5A    -11.236018     6A     -8.959396
       7A     -8.958244     8A     -6.640741     9A     -6.639726
      10A     -6.639599    11A     -6.638766    12A     -6.638693
      13A     -6.637637    14A     -1.138611    15A     -1.040087
      16A     -0.958402    17A     -0.855886    18A     -0.797500
      19A     -0.676188    20A     -0.626440    21A     -0.600782
      22A     -0.580131    23A     -0.532530    24A     -0.517205
      25A     -0.477680    26A     -0.464797    27A     -0.435808
      28A     -0.363964    29A     -0.353254

  @DF-RHF Final Energy:  -913.35712782097085

   => Energetics <=

    Nuclear Repulsion Energy =            269.6315401574358930
    One-Electron Energy =               -1794.2205596745375260
    Two-Electron Energy =                 611.2318916961307878
    Total Energy =                       -913.3571278209708453
  Basis Set: (AUG-CC-PVTZ AUX)
    Blend: AUG-CC-PVTZ-RI
    Molecular point group: c1

    Geometry (in Angstrom), charge = 0, multiplicity = 1:

       Center              X                  Y                   Z               Mass
    ------------   -----------------  -----------------  -----------------  -----------------
         S           -2.749787095147    -0.340636961187    -0.008767479958    31.972071174400
         S            2.776575904853    -0.223877961187    -0.066445479958    31.972071174400
         C           -0.025911095147    -0.121616961187    -0.001983479958    12.000000000000
         C           -1.177186995147     0.582918038813     0.034575420042    12.000000000000
         C            1.233790904853     0.734771038813     0.054746520042    12.000000000000
         H           -0.033463095147    -0.822193961187     0.841134520042     1.007825032230
         H           -0.016404095147    -0.721595961187    -0.917520479958     1.007825032230
         H           -1.295730095147     1.335156038813     0.963273520042     1.007825032230
         H           -1.296384095147     1.424930038813    -0.809359479958     1.007825032230
         H            1.249703904853     1.342242038813     0.964379520042     1.007825032230
         H            1.261788904853     1.423046038813    -0.795654479958     1.007825032230
         H           -3.667821095147     0.635466038813     0.054696520042     1.007825032230
         H            2.583011904853    -0.949899961187     1.045169520042     1.007825032230

  Basis Set: AUG-CC-PVTZ
    Blend: AUG-CC-PVTZ
  Basis Set: (AUG-CC-PVTZ AUX)
    Blend: AUG-CC-PVTZ-JKFIT
	 Reference Energy          =    -913.3571278209708453 [Eh]
	 Singles Energy            =      -0.0000000000000000 [Eh]
	 Same-Spin Energy          =      -0.2384641065723329 [Eh]
	 Opposite-Spin Energy      =      -0.8043330415683645 [Eh]
	 Correlation Energy        =      -1.0427971481406975 [Eh]
	 Total Energy              =    -914.3999249691115665 [Eh]

	 ================> DF-SCS-MP2 Energies <==================
	-----------------------------------------------------------
	 SCS Same-Spin Scale       =       0.3333333333333333 [-]
	 SCS Opposite-Spin Scale   =       1.2000000000000000 [-]
	 SCS Same-Spin Energy      =      -0.0794880355241110 [Eh]
	 SCS Opposite-Spin Energy  =      -0.9651996498820373 [Eh]
	 SCS Correlation Energy    =      -1.0446876854061482 [Eh]
	 SCS Total Energy          =    -914.4018155063770337 [Eh]
	-----------------------------------------------------------

  Dipole Moment: [D]
     X:    -0.4718      Y:     1.6076      Z:     0.6983     Total:     1.8151

*** Psi4 exiting successfully. Buy a developer a beer!
