                               Psi4 1.4a3.dev225

  ==> Input File <==

--------------------------------------------------------------------------
#psi4
#
memory 32 gb

molecule  {
0 1
  S       -2.7284260    -0.3884000    -0.0211100
  S        2.7978210    -0.2715830    -0.0790280
  C       -0.0046620    -0.1691880    -0.0148200
  C       -1.2773356     0.6824672     0.0312555
  C        1.2550450     0.6870670     0.0425410
  H       -0.0123800    -0.8700300     0.8280760
  H        0.0049040    -0.7688230    -0.9305610
  H       -1.2743340     1.2878300     0.9503460
  H       -1.2752540     1.3771350    -0.8223080
  H        1.2706930     1.2940590     0.9525080
  H        1.2829320     1.3759050    -0.8073940
  H       -3.6464090     0.5878030     0.0414310
  H        2.6047420    -0.9974400     1.0327750
units angstrom
no_reorient  #important for SAPT in psi4, default
symmetry c1  #important for SAPT in psi4, default
}

set PROPERTIES_ORIGIN ["COM"]
properties('MP2/aug-cc-pvtz', properties = ['dipole'])
--------------------------------------------------------------------------

    Molecular point group: c1
  Charge       = 0
  Multiplicity = 1
  Basis Set: AUG-CC-PVTZ
    Blend: AUG-CC-PVTZ
  Basis Set: (AUG-CC-PVTZ AUX)
    Blend: AUG-CC-PVTZ-JKFIT

    Orbital Energies [Eh]
    ---------------------

    Doubly Occupied:

       1A    -91.956791     2A    -91.956445     3A    -11.270347
       4A    -11.269245     5A    -11.244313     6A     -8.958223
       7A     -8.957592     8A     -6.639585     9A     -6.638935
      10A     -6.638596    11A     -6.637922    12A     -6.637511
      13A     -6.636892    14A     -1.109245    15A     -1.038956
      16A     -0.946748    17A     -0.849652    18A     -0.812101
      19A     -0.668692    20A     -0.612799    21A     -0.594294
      22A     -0.563982    23A     -0.528314    24A     -0.516108
      25A     -0.498318    26A     -0.461844    27A     -0.449030
      28A     -0.362578    29A     -0.359940

  @DF-RHF Final Energy:  -913.39819695247343

   => Energetics <=

    Nuclear Repulsion Energy =            267.6502599600320309
    One-Electron Energy =               -1790.4669198186647918
    Two-Electron Energy =                 609.4184629061592204
    Total Energy =                       -913.3981969524734268
  Basis Set: (AUG-CC-PVTZ AUX)
    Blend: AUG-CC-PVTZ-RI
    Molecular point group: c1

    Geometry (in Angstrom), charge = 0, multiplicity = 1:

       Center              X                  Y                   Z               Mass
    ------------   -----------------  -----------------  -----------------  -----------------
         S           -2.736221686368    -0.357062016119    -0.009635835869    31.972071174400
         S            2.790025313632    -0.240245016119    -0.067553835869    31.972071174400
         C           -0.012457686368    -0.137850016119    -0.003345835869    12.000000000000
         C           -1.285131286368     0.713805183881     0.042729664131    12.000000000000
         C            1.247249313632     0.718404983881     0.054015164131    12.000000000000
         H           -0.020175686368    -0.838692016119     0.839550164131     1.007825032230
         H           -0.002891686368    -0.737485016119    -0.919086835869     1.007825032230
         H           -1.282129686368     1.319167983881     0.961820164131     1.007825032230
         H           -1.283049686368     1.408472983881    -0.810833835869     1.007825032230
         H            1.262897313632     1.325396983881     0.963982164131     1.007825032230
         H            1.275136313632     1.407242983881    -0.795919835869     1.007825032230
         H           -3.654204686368     0.619140983881     0.052905164131     1.007825032230
         H            2.596946313632    -0.966102016119     1.044249164131     1.007825032230

  Basis Set: AUG-CC-PVTZ
    Blend: AUG-CC-PVTZ
  Basis Set: (AUG-CC-PVTZ AUX)
    Blend: AUG-CC-PVTZ-JKFIT
	 Reference Energy          =    -913.3981969524734268 [Eh]
	 Singles Energy            =      -0.0000000000000000 [Eh]
	 Same-Spin Energy          =      -0.2363990355662656 [Eh]
	 Opposite-Spin Energy      =      -0.8014458632302939 [Eh]
	 Correlation Energy        =      -1.0378448987965594 [Eh]
	 Total Energy              =    -914.4360418512700335 [Eh]

	 ================> DF-SCS-MP2 Energies <==================
	-----------------------------------------------------------
	 SCS Same-Spin Scale       =       0.3333333333333333 [-]
	 SCS Opposite-Spin Scale   =       1.2000000000000000 [-]
	 SCS Same-Spin Energy      =      -0.0787996785220885 [Eh]
	 SCS Opposite-Spin Energy  =      -0.9617350358763526 [Eh]
	 SCS Correlation Energy    =      -1.0405347143984411 [Eh]
	 SCS Total Energy          =    -914.4387316668718313 [Eh]
	-----------------------------------------------------------

  Dipole Moment: [D]
     X:    -0.6271      Y:     1.6159      Z:     0.6997     Total:     1.8692

*** Psi4 exiting successfully. Buy a developer a beer!
