                               Psi4 1.3.2 release

  ==> Input File <==

--------------------------------------------------------------------------
#psi4
#
memory 32 gb

molecule  {
0 1
  S       -2.7285110    -0.3883160    -0.0213010
  S        2.7978520    -0.2715570    -0.0789790
  C       -0.0046350    -0.1692960    -0.0145170
  C       -1.2611610     0.6942450     0.0320770
  C        1.2550670     0.6870920     0.0422130
  H       -0.0121870    -0.8698730     0.8286010
  H        0.0048720    -0.7692750    -0.9300540
  H       -1.2744540     1.2874770     0.9507400
  H       -1.2751080     1.3772510    -0.8218930
  H        1.2709800     1.2945630     0.9518460
  H        1.2830650     1.3753670    -0.8081880
  H       -3.5096770     0.4422616     0.0327013
  H        2.6042880    -0.9975790     1.0326360
units angstrom
no_reorient  #important for SAPT in psi4, default
symmetry c1  #important for SAPT in psi4, default
}

set PROPERTIES_ORIGIN ["COM"]
properties('MP2/aug-cc-pvtz', properties = ['dipole'])
--------------------------------------------------------------------------

    Molecular point group: c1
  Charge       = 0
  Multiplicity = 1
  Basis Set: AUG-CC-PVTZ
    Blend: AUG-CC-PVTZ
  Basis Set: (AUG-CC-PVTZ AUX)
    Blend: AUG-CC-PVTZ-JKFIT

    Orbital Energies [Eh]
    ---------------------

    Doubly Occupied:

       1A    -91.956106     2A    -91.938459     3A    -11.269960
       4A    -11.269347     5A    -11.243818     6A     -8.957265
       7A     -8.946944     8A     -6.638610     9A     -6.637597
      10A     -6.636568    11A     -6.629293    12A     -6.626790
      13A     -6.625635    14A     -1.111689    15A     -1.046494
      16A     -0.962190    17A     -0.861319    18A     -0.815294
      19A     -0.670037    20A     -0.625302    21A     -0.596105
      22A     -0.566866    23A     -0.537103    24A     -0.517109
      25A     -0.499055    26A     -0.464770    27A     -0.447412
      28A     -0.363351    29A     -0.360305

  @DF-RHF Final Energy:  -913.37235272897237

   => Energetics <=

    Nuclear Repulsion Energy =            268.8226869550863967
    One-Electron Energy =               -1792.7484930759658255
    Two-Electron Energy =                 610.5534533919069418
    Total Energy =                       -913.3723527289723734
  Basis Set: (AUG-CC-PVTZ AUX)
    Blend: AUG-CC-PVTZ-RI
    Molecular point group: c1

    Geometry (in Angstrom), charge = 0, multiplicity = 1:

       Center              X                  Y                   Z               Mass
    ------------   -----------------  -----------------  -----------------  -----------------
         S           -2.739370502846    -0.356945275062    -0.009794133102    31.972071174400
         S            2.786992497154    -0.240186275062    -0.067472133102    31.972071174400
         C           -0.015494502846    -0.137925275062    -0.003010133102    12.000000000000
         C           -1.272020502846     0.725615724938     0.043583866898    12.000000000000
         C            1.244207497154     0.718462724938     0.053719866898    12.000000000000
         H           -0.023046502846    -0.838502275062     0.840107866898     1.007825032230
         H           -0.005987502846    -0.737904275062    -0.918547133102     1.007825032230
         H           -1.285313502846     1.318847724938     0.962246866898     1.007825032230
         H           -1.285967502846     1.408621724938    -0.810386133102     1.007825032230
         H            1.260120497154     1.325933724938     0.963352866898     1.007825032230
         H            1.272205497154     1.406737724938    -0.796681133102     1.007825032230
         H           -3.520536502846     0.473632324938     0.044208166898     1.007825032230
         H            2.593428497154    -0.966208275062     1.044142866898     1.007825032230

  Basis Set: AUG-CC-PVTZ
    Blend: AUG-CC-PVTZ
  Basis Set: (AUG-CC-PVTZ AUX)
    Blend: AUG-CC-PVTZ-JKFIT
	 Reference Energy          =    -913.3723527289723734 [Eh]
	 Singles Energy            =      -0.0000000000000000 [Eh]
	 Same-Spin Energy          =      -0.2364776818085618 [Eh]
	 Opposite-Spin Energy      =      -0.8010252659583503 [Eh]
	 Correlation Energy        =      -1.0375029477669122 [Eh]
	 Total Energy              =    -914.4098556767393120 [Eh]

	 ================> DF-SCS-MP2 Energies <==================
	-----------------------------------------------------------
	 SCS Same-Spin Scale       =       0.3333333333333333 [-]
	 SCS Opposite-Spin Scale   =       1.2000000000000000 [-]
	 SCS Same-Spin Energy      =      -0.0788258939361873 [Eh]
	 SCS Opposite-Spin Energy  =      -0.9612303191500203 [Eh]
	 SCS Correlation Energy    =      -1.0400562130862077 [Eh]
	 SCS Total Energy          =    -914.4124089420586188 [Eh]
	-----------------------------------------------------------

  Dipole Moment: [D]
     X:    -0.6247      Y:     1.6328      Z:     0.7008     Total:     1.8834

*** Psi4 exiting successfully. Buy a developer a beer!
