                               Psi4 1.4a3.dev225

  ==> Input File <==

--------------------------------------------------------------------------
#psi4
#
memory 32 gb

molecule  {
0 1
  S       -2.7284260    -0.3884000    -0.0211100
  S        2.7978210    -0.2715830    -0.0790280
  C       -0.0046620    -0.1691880    -0.0148200
  C       -1.2451644     0.7062088     0.0324165
  C        1.2550450     0.6870670     0.0425410
  H       -0.0123800    -0.8700300     0.8280760
  H        0.0049040    -0.7688230    -0.9305610
  H       -1.2743340     1.2878300     0.9503460
  H       -1.2752540     1.3771350    -0.8223080
  H        1.2706930     1.2940590     0.9525080
  H        1.2829320     1.3759050    -0.8073940
  H       -3.6464090     0.5878030     0.0414310
  H        2.6047420    -0.9974400     1.0327750
units angstrom
no_reorient  #important for SAPT in psi4, default
symmetry c1  #important for SAPT in psi4, default
}

set PROPERTIES_ORIGIN ["COM"]
properties('MP2/aug-cc-pvtz', properties = ['dipole'])
--------------------------------------------------------------------------

    Molecular point group: c1
  Charge       = 0
  Multiplicity = 1
  Basis Set: AUG-CC-PVTZ
    Blend: AUG-CC-PVTZ
  Basis Set: (AUG-CC-PVTZ AUX)
    Blend: AUG-CC-PVTZ-JKFIT

    Orbital Energies [Eh]
    ---------------------

    Doubly Occupied:

       1A    -91.956306     2A    -91.955761     3A    -11.270388
       4A    -11.269587     5A    -11.244190     6A     -8.957474
       7A     -8.956714     8A     -6.638818     9A     -6.638034
      10A     -6.637806    11A     -6.637027    12A     -6.636777
      13A     -6.635993    14A     -1.110456    15A     -1.035367
      16A     -0.945248    17A     -0.850978    18A     -0.815258
      19A     -0.671811    20A     -0.610120    21A     -0.597376
      22A     -0.567721    23A     -0.524903    24A     -0.518472
      25A     -0.499943    26A     -0.461210    27A     -0.444942
      28A     -0.362556    29A     -0.360042

  @DF-RHF Final Energy:  -913.39869240262783

   => Energetics <=

    Nuclear Repulsion Energy =            267.4063085691299761
    One-Electron Energy =               -1789.9874477446312540
    Two-Electron Energy =                 609.1824467728733907
    Total Energy =                       -913.3986924026278302
  Basis Set: (AUG-CC-PVTZ AUX)
    Blend: AUG-CC-PVTZ-RI
    Molecular point group: c1

    Geometry (in Angstrom), charge = 0, multiplicity = 1:

       Center              X                  Y                   Z               Mass
    ------------   -----------------  -----------------  -----------------  -----------------
         S           -2.739796040994    -0.359699806994    -0.009764827816    31.972071174400
         S            2.786450959006    -0.242882806994    -0.067682827816    31.972071174400
         C           -0.016032040994    -0.140487806994    -0.003474827816    12.000000000000
         C           -1.256534440994     0.734908993006     0.043761672184    12.000000000000
         C            1.243674959006     0.715767193006     0.053886172184    12.000000000000
         H           -0.023750040994    -0.841329806994     0.839421172184     1.007825032230
         H           -0.006466040994    -0.740122806994    -0.919215827816     1.007825032230
         H           -1.285704040994     1.316530193006     0.961691172184     1.007825032230
         H           -1.286624040994     1.405835193006    -0.810962827816     1.007825032230
         H            1.259322959006     1.322759193006     0.963853172184     1.007825032230
         H            1.271561959006     1.404605193006    -0.796048827816     1.007825032230
         H           -3.657779040994     0.616503193006     0.052776172184     1.007825032230
         H            2.593371959006    -0.968739806994     1.044120172184     1.007825032230

  Basis Set: AUG-CC-PVTZ
    Blend: AUG-CC-PVTZ
  Basis Set: (AUG-CC-PVTZ AUX)
    Blend: AUG-CC-PVTZ-JKFIT
	 Reference Energy          =    -913.3986924026278302 [Eh]
	 Singles Energy            =      -0.0000000000000000 [Eh]
	 Same-Spin Energy          =      -0.2362758088743366 [Eh]
	 Opposite-Spin Energy      =      -0.8013595179225144 [Eh]
	 Correlation Energy        =      -1.0376353267968510 [Eh]
	 Total Energy              =    -914.4363277294246473 [Eh]

	 ================> DF-SCS-MP2 Energies <==================
	-----------------------------------------------------------
	 SCS Same-Spin Scale       =       0.3333333333333333 [-]
	 SCS Opposite-Spin Scale   =       1.2000000000000000 [-]
	 SCS Same-Spin Energy      =      -0.0787586029581122 [Eh]
	 SCS Opposite-Spin Energy  =      -0.9616314215070172 [Eh]
	 SCS Correlation Energy    =      -1.0403900244651294 [Eh]
	 SCS Total Energy          =    -914.4390824270930125 [Eh]
	-----------------------------------------------------------

  Dipole Moment: [D]
     X:    -0.5779      Y:     1.6493      Z:     0.7009     Total:     1.8829

*** Psi4 exiting successfully. Buy a developer a beer!
