                               Psi4 1.3.2 release

  ==> Input File <==

--------------------------------------------------------------------------
#psi4
#
memory 32 gb

molecule  {
0 1
  S       -2.6865116    -0.4430328     0.0857286
  S        2.7978520    -0.2715570    -0.0789790
  C       -0.0046350    -0.1692960    -0.0145170
  C       -1.2611610     0.6942450     0.0320770
  C        1.2550670     0.6870920     0.0422130
  H       -0.0121870    -0.8698730     0.8286010
  H        0.0048720    -0.7692750    -0.9300540
  H       -1.2744540     1.2874770     0.9507400
  H       -1.2751080     1.3772510    -0.8218930
  H        1.2709800     1.2945630     0.9518460
  H        1.2830650     1.3753670    -0.8081880
  H       -3.6465450     0.5877870     0.0421630
  H        2.6042880    -0.9975790     1.0326360
units angstrom
no_reorient  #important for SAPT in psi4, default
symmetry c1  #important for SAPT in psi4, default
}

set PROPERTIES_ORIGIN ["COM"]
properties('MP2/aug-cc-pvtz', properties = ['dipole'])
--------------------------------------------------------------------------

    Molecular point group: c1
  Charge       = 0
  Multiplicity = 1
  Basis Set: AUG-CC-PVTZ
    Blend: AUG-CC-PVTZ
  Basis Set: (AUG-CC-PVTZ AUX)
    Blend: AUG-CC-PVTZ-JKFIT

    Orbital Energies [Eh]
    ---------------------

    Doubly Occupied:

       1A    -91.962034     2A    -91.955893     3A    -11.269752
       4A    -11.269080     5A    -11.243417     6A     -8.961654
       7A     -8.957063     8A     -6.642835     9A     -6.641888
      10A     -6.640882    11A     -6.638408    12A     -6.637396
      13A     -6.636367    14A     -1.109848    15A     -1.035650
      16A     -0.941317    17A     -0.846622    18A     -0.813549
      19A     -0.670080    20A     -0.608964    21A     -0.594726
      22A     -0.563974    23A     -0.518776    24A     -0.516809
      25A     -0.498192    26A     -0.464326    27A     -0.445911
      28A     -0.363263    29A     -0.359430

  @DF-RHF Final Energy:  -913.39435076064717

   => Energetics <=

    Nuclear Repulsion Energy =            267.8028620204677850
    One-Electron Energy =               -1790.7782157692734017
    Two-Electron Energy =                 609.5810029881585024
    Total Energy =                       -913.3943507606471712
  Basis Set: (AUG-CC-PVTZ AUX)
    Blend: AUG-CC-PVTZ-RI
    Molecular point group: c1

    Geometry (in Angstrom), charge = 0, multiplicity = 1:

       Center              X                  Y                   Z               Mass
    ------------   -----------------  -----------------  -----------------  -----------------
         S           -2.708526599072    -0.396822767400     0.065464360352    31.972071174400
         S            2.775837000928    -0.225346967400    -0.099243239648    31.972071174400
         C           -0.026649999072    -0.123085967400    -0.034781239648    12.000000000000
         C           -1.283175999072     0.740455032600     0.011812760352    12.000000000000
         C            1.233052000928     0.733302032600     0.021948760352    12.000000000000
         H           -0.034201999072    -0.823662967400     0.808336760352     1.007825032230
         H           -0.017142999072    -0.723064967400    -0.950318239648     1.007825032230
         H           -1.296468999072     1.333687032600     0.930475760352     1.007825032230
         H           -1.297122999072     1.423461032600    -0.842157239648     1.007825032230
         H            1.248965000928     1.340773032600     0.931581760352     1.007825032230
         H            1.261050000928     1.421577032600    -0.828452239648     1.007825032230
         H           -3.668559999072     0.633997032600     0.021898760352     1.007825032230
         H            2.582273000928    -0.951368967400     1.012371760352     1.007825032230

  Basis Set: AUG-CC-PVTZ
    Blend: AUG-CC-PVTZ
  Basis Set: (AUG-CC-PVTZ AUX)
    Blend: AUG-CC-PVTZ-JKFIT
	 Reference Energy          =    -913.3943507606471712 [Eh]
	 Singles Energy            =      -0.0000000000000000 [Eh]
	 Same-Spin Energy          =      -0.2366051588740373 [Eh]
	 Opposite-Spin Energy      =      -0.8022735041573712 [Eh]
	 Correlation Energy        =      -1.0388786630314084 [Eh]
	 Total Energy              =    -914.4332294236785401 [Eh]

	 ================> DF-SCS-MP2 Energies <==================
	-----------------------------------------------------------
	 SCS Same-Spin Scale       =       0.3333333333333333 [-]
	 SCS Opposite-Spin Scale   =       1.2000000000000000 [-]
	 SCS Same-Spin Energy      =      -0.0788683862913458 [Eh]
	 SCS Opposite-Spin Energy  =      -0.9627282049888454 [Eh]
	 SCS Correlation Energy    =      -1.0415965912801912 [Eh]
	 SCS Total Energy          =    -914.4359473519273251 [Eh]
	-----------------------------------------------------------

  Dipole Moment: [D]
     X:    -0.6533      Y:     1.6302      Z:     0.5902     Total:     1.8527

*** Psi4 exiting successfully. Buy a developer a beer!
