                               Psi4 1.3.2 release

  ==> Input File <==

--------------------------------------------------------------------------
#psi4
#
memory 32 gb

molecule  {
0 1
  S       -2.7379011    -0.3738017    -0.0480381
  S        2.7978520    -0.2715570    -0.0789790
  C       -0.0046350    -0.1692960    -0.0145170
  C       -1.2611610     0.6942450     0.0320770
  C        1.2550670     0.6870920     0.0422130
  H       -0.0121870    -0.8698730     0.8286010
  H        0.0048720    -0.7692750    -0.9300540
  H       -1.2744540     1.2874770     0.9507400
  H       -1.2751080     1.3772510    -0.8218930
  H        1.2709800     1.2945630     0.9518460
  H        1.2830650     1.3753670    -0.8081880
  H       -3.6465450     0.5877870     0.0421630
  H        2.6042880    -0.9975790     1.0326360
units angstrom
no_reorient  #important for SAPT in psi4, default
symmetry c1  #important for SAPT in psi4, default
}

set PROPERTIES_ORIGIN ["COM"]
properties('MP2/aug-cc-pvtz', properties = ['dipole'])
--------------------------------------------------------------------------

    Molecular point group: c1
  Charge       = 0
  Multiplicity = 1
  Basis Set: AUG-CC-PVTZ
    Blend: AUG-CC-PVTZ
  Basis Set: (AUG-CC-PVTZ AUX)
    Blend: AUG-CC-PVTZ-JKFIT

    Orbital Energies [Eh]
    ---------------------

    Doubly Occupied:

       1A    -91.956475     2A    -91.954951     3A    -11.270505
       4A    -11.269433     5A    -11.244459     6A     -8.957630
       7A     -8.956539     8A     -6.638974     9A     -6.637961
      10A     -6.637925    11A     -6.636932    12A     -6.636897
      13A     -6.635827    14A     -1.109808    15A     -1.037509
      16A     -0.947226    17A     -0.851213    18A     -0.813802
      19A     -0.670298    20A     -0.611973    21A     -0.596141
      22A     -0.566327    23A     -0.528214    24A     -0.517369
      25A     -0.499352    26A     -0.460822    27A     -0.447401
      28A     -0.362416    29A     -0.360125

  @DF-RHF Final Energy:  -913.39887570393262

   => Energetics <=

    Nuclear Repulsion Energy =            267.4649702280029260
    One-Electron Energy =               -1790.0986838745409386
    Two-Electron Energy =                 609.2348379426055089
    Total Energy =                       -913.3988757039326174
  Basis Set: (AUG-CC-PVTZ AUX)
    Blend: AUG-CC-PVTZ-RI
    Molecular point group: c1

    Geometry (in Angstrom), charge = 0, multiplicity = 1:

       Center              X                  Y                   Z               Mass
    ------------   -----------------  -----------------  -----------------  -----------------
         S           -2.744703819617    -0.348085403284    -0.028704826105    31.972071174400
         S            2.791049280383    -0.245840703284    -0.059645726105    31.972071174400
         C           -0.011437719617    -0.143579703284     0.004816273895    12.000000000000
         C           -1.267963719617     0.719961296716     0.051410273895    12.000000000000
         C            1.248264280383     0.712808296716     0.061546273895    12.000000000000
         H           -0.018989719617    -0.844156703284     0.847934273895     1.007825032230
         H           -0.001930719617    -0.743558703284    -0.910720726105     1.007825032230
         H           -1.281256719617     1.313193296716     0.970073273895     1.007825032230
         H           -1.281910719617     1.402967296716    -0.802559726105     1.007825032230
         H            1.264177280383     1.320279296716     0.971179273895     1.007825032230
         H            1.276262280383     1.401083296716    -0.788854726105     1.007825032230
         H           -3.653347719617     0.613503296716     0.061496273895     1.007825032230
         H            2.597485280383    -0.971862703284     1.051969273895     1.007825032230

  Basis Set: AUG-CC-PVTZ
    Blend: AUG-CC-PVTZ
  Basis Set: (AUG-CC-PVTZ AUX)
    Blend: AUG-CC-PVTZ-JKFIT
	 Reference Energy          =    -913.3988757039326174 [Eh]
	 Singles Energy            =      -0.0000000000000000 [Eh]
	 Same-Spin Energy          =      -0.2362747744992461 [Eh]
	 Opposite-Spin Energy      =      -0.8012187869742068 [Eh]
	 Correlation Energy        =      -1.0374935614734528 [Eh]
	 Total Energy              =    -914.4363692654060287 [Eh]

	 ================> DF-SCS-MP2 Energies <==================
	-----------------------------------------------------------
	 SCS Same-Spin Scale       =       0.3333333333333333 [-]
	 SCS Opposite-Spin Scale   =       1.2000000000000000 [-]
	 SCS Same-Spin Energy      =      -0.0787582581664154 [Eh]
	 SCS Opposite-Spin Energy  =      -0.9614625443690481 [Eh]
	 SCS Correlation Energy    =      -1.0402208025354636 [Eh]
	 SCS Total Energy          =    -914.4390965064681041 [Eh]
	-----------------------------------------------------------

  Dipole Moment: [D]
     X:    -0.5898      Y:     1.6323      Z:     0.7303     Total:     1.8830

*** Psi4 exiting successfully. Buy a developer a beer!
