                               Psi4 1.3.2 release

  ==> Input File <==

--------------------------------------------------------------------------
#psi4
#
memory 32 gb

molecule  {
0 1
  S       -2.7285110    -0.3883160    -0.0213010
  S        2.7978520    -0.2715570    -0.0789790
  C       -0.0046350    -0.1692960    -0.0145170
  C       -1.3403378     0.7937621     0.0384487
  C        1.2550670     0.6870920     0.0422130
  H       -0.0121870    -0.8698730     0.8286010
  H        0.0048720    -0.7692750    -0.9300540
  H       -1.2744540     1.2874770     0.9507400
  H       -1.2751080     1.3772510    -0.8218930
  H        1.2709800     1.2945630     0.9518460
  H        1.2830650     1.3753670    -0.8081880
  H       -3.6465450     0.5877870     0.0421630
  H        2.6042880    -0.9975790     1.0326360
units angstrom
no_reorient  #important for SAPT in psi4, default
symmetry c1  #important for SAPT in psi4, default
}

set PROPERTIES_ORIGIN ["COM"]
properties('MP2/aug-cc-pvtz', properties = ['dipole'])
--------------------------------------------------------------------------

    Molecular point group: c1
  Charge       = 0
  Multiplicity = 1
  Basis Set: AUG-CC-PVTZ
    Blend: AUG-CC-PVTZ
  Basis Set: (AUG-CC-PVTZ AUX)
    Blend: AUG-CC-PVTZ-JKFIT

    Orbital Energies [Eh]
    ---------------------

    Doubly Occupied:

       1A    -91.957754     2A    -91.955467     3A    -11.269027
       4A    -11.265193     5A    -11.248731     6A     -8.958655
       7A     -8.956650     8A     -6.639963     9A     -6.638899
      10A     -6.637989    11A     -6.637860    12A     -6.636979
      13A     -6.635951    14A     -1.098238    15A     -1.036831
      16A     -0.939836    17A     -0.853210    18A     -0.817419
      19A     -0.671973    20A     -0.611371    21A     -0.599528
      22A     -0.557926    23A     -0.523558    24A     -0.516989
      25A     -0.495178    26A     -0.467882    27A     -0.437008
      28A     -0.365087    29A     -0.359289

  @DF-RHF Final Energy:  -913.38572484569158

   => Energetics <=

    Nuclear Repulsion Energy =            266.2004610883595888
    One-Electron Energy =               -1787.5914949038640316
    Two-Electron Energy =                 608.0053089698128588
    Total Energy =                       -913.3857248456915841
  Basis Set: (AUG-CC-PVTZ AUX)
    Blend: AUG-CC-PVTZ-RI
    Molecular point group: c1

    Geometry (in Angstrom), charge = 0, multiplicity = 1:

       Center              X                  Y                   Z               Mass
    ------------   -----------------  -----------------  -----------------  -----------------
         S           -2.729296496629    -0.369359956855    -0.010590343931    31.972071174400
         S            2.797066503371    -0.252600956855    -0.068268343931    31.972071174400
         C           -0.005420496629    -0.150339956855    -0.003806343931    12.000000000000
         C           -1.341123296629     0.812718143145     0.049159356069    12.000000000000
         C            1.254281503371     0.706048043145     0.052923656069    12.000000000000
         H           -0.012972496629    -0.850916956855     0.839311656069     1.007825032230
         H            0.004086503371    -0.750318956855    -0.919343343931     1.007825032230
         H           -1.275239496629     1.306433043145     0.961450656069     1.007825032230
         H           -1.275893496629     1.396207043145    -0.811182343931     1.007825032230
         H            1.270194503371     1.313519043145     0.962556656069     1.007825032230
         H            1.282279503371     1.394323043145    -0.797477343931     1.007825032230
         H           -3.647330496629     0.606743043145     0.052873656069     1.007825032230
         H            2.603502503371    -0.978622956855     1.043346656069     1.007825032230

  Basis Set: AUG-CC-PVTZ
    Blend: AUG-CC-PVTZ
  Basis Set: (AUG-CC-PVTZ AUX)
    Blend: AUG-CC-PVTZ-JKFIT
	 Reference Energy          =    -913.3857248456915841 [Eh]
	 Singles Energy            =      -0.0000000000000000 [Eh]
	 Same-Spin Energy          =      -0.2363345233442674 [Eh]
	 Opposite-Spin Energy      =      -0.8022199317593595 [Eh]
	 Correlation Energy        =      -1.0385544551036270 [Eh]
	 Total Energy              =    -914.4242793007952059 [Eh]

	 ================> DF-SCS-MP2 Energies <==================
	-----------------------------------------------------------
	 SCS Same-Spin Scale       =       0.3333333333333333 [-]
	 SCS Opposite-Spin Scale   =       1.2000000000000000 [-]
	 SCS Same-Spin Energy      =      -0.0787781744480891 [Eh]
	 SCS Opposite-Spin Energy  =      -0.9626639181112313 [Eh]
	 SCS Correlation Energy    =      -1.0414420925593204 [Eh]
	 SCS Total Energy          =    -914.4271669382509344 [Eh]
	-----------------------------------------------------------

  Dipole Moment: [D]
     X:    -0.6536      Y:     1.5893      Z:     0.6984     Total:     1.8549

*** Psi4 exiting successfully. Buy a developer a beer!
