                               Psi4 1.4a3.dev225

  ==> Input File <==

--------------------------------------------------------------------------
#psi4
#
memory 32 gb

molecule  {
0 1
  S       -2.7284260    -0.3884000    -0.0211100
  S        2.7978210    -0.2715830    -0.0790280
  C       -0.0046620    -0.1691880    -0.0148200
  C       -1.2612500     0.6943380     0.0318360
  C        1.2550450     0.6870670     0.0425410
  H       -0.0123800    -0.8700300     0.8280760
  H        0.0049040    -0.7688230    -0.9305610
  H       -1.2743340     1.2878300     0.9503460
  H       -1.2752540     1.3771350    -0.8223080
  H        1.2706930     1.2940590     0.9525080
  H        1.2829320     1.3759050    -0.8073940
  H       -3.6600951     0.6023571     0.0423634
  H        2.6047420    -0.9974400     1.0327750
units angstrom
no_reorient  #important for SAPT in psi4, default
symmetry c1  #important for SAPT in psi4, default
}

set PROPERTIES_ORIGIN ["COM"]
properties('MP2/aug-cc-pvtz', properties = ['dipole'])
--------------------------------------------------------------------------

    Molecular point group: c1
  Charge       = 0
  Multiplicity = 1
  Basis Set: AUG-CC-PVTZ
    Blend: AUG-CC-PVTZ
  Basis Set: (AUG-CC-PVTZ AUX)
    Blend: AUG-CC-PVTZ-JKFIT

    Orbital Energies [Eh]
    ---------------------

    Doubly Occupied:

       1A    -91.957857     2A    -91.956401     3A    -11.270403
       4A    -11.269375     5A    -11.244280     6A     -8.958541
       7A     -8.957558     8A     -6.639833     9A     -6.638902
      10A     -6.638877    11A     -6.637889    12A     -6.637833
      13A     -6.636860    14A     -1.109710    15A     -1.036549
      16A     -0.944844    17A     -0.849340    18A     -0.813531
      19A     -0.670240    20A     -0.610178    21A     -0.595798
      22A     -0.565703    23A     -0.525254    24A     -0.517294
      25A     -0.499124    26A     -0.460949    27A     -0.447286
      28A     -0.362580    29A     -0.360012

  @DF-RHF Final Energy:  -913.39830021665966

   => Energetics <=

    Nuclear Repulsion Energy =            267.4144079783146708
    One-Electron Energy =               -1789.9994190673346566
    Two-Electron Energy =                 609.1867108723604360
    Total Energy =                       -913.3983002166596634
  Basis Set: (AUG-CC-PVTZ AUX)
    Blend: AUG-CC-PVTZ-RI
    Molecular point group: c1

    Geometry (in Angstrom), charge = 0, multiplicity = 1:

       Center              X                  Y                   Z               Mass
    ------------   -----------------  -----------------  -----------------  -----------------
         S           -2.737881156893    -0.358516717766    -0.009709032189    31.972071174400
         S            2.788365843107    -0.241699717766    -0.067627032189    31.972071174400
         C           -0.014117156893    -0.139304717766    -0.003419032189    12.000000000000
         C           -1.270705156893     0.724221282234     0.043236967811    12.000000000000
         C            1.245589843107     0.716950282234     0.053941967811    12.000000000000
         H           -0.021835156893    -0.840146717766     0.839476967811     1.007825032230
         H           -0.004551156893    -0.738939717766    -0.919160032189     1.007825032230
         H           -1.283789156893     1.317713282234     0.961746967811     1.007825032230
         H           -1.284709156893     1.407018282234    -0.810907032189     1.007825032230
         H            1.261237843107     1.323942282234     0.963908967811     1.007825032230
         H            1.273476843107     1.405788282234    -0.795993032189     1.007825032230
         H           -3.669550256893     0.632240382234     0.053764367811     1.007825032230
         H            2.595286843107    -0.967556717766     1.044175967811     1.007825032230

  Basis Set: AUG-CC-PVTZ
    Blend: AUG-CC-PVTZ
  Basis Set: (AUG-CC-PVTZ AUX)
    Blend: AUG-CC-PVTZ-JKFIT
	 Reference Energy          =    -913.3983002166596634 [Eh]
	 Singles Energy            =      -0.0000000000000000 [Eh]
	 Same-Spin Energy          =      -0.2363198240950466 [Eh]
	 Opposite-Spin Energy      =      -0.8014916535184143 [Eh]
	 Correlation Energy        =      -1.0378114776134608 [Eh]
	 Total Energy              =    -914.4361116942731087 [Eh]

	 ================> DF-SCS-MP2 Energies <==================
	-----------------------------------------------------------
	 SCS Same-Spin Scale       =       0.3333333333333333 [-]
	 SCS Opposite-Spin Scale   =       1.2000000000000000 [-]
	 SCS Same-Spin Energy      =      -0.0787732746983489 [Eh]
	 SCS Opposite-Spin Energy  =      -0.9617899842220972 [Eh]
	 SCS Correlation Energy    =      -1.0405632589204461 [Eh]
	 SCS Total Energy          =    -914.4388634755800922 [Eh]
	-----------------------------------------------------------

  Dipole Moment: [D]
     X:    -0.5995      Y:     1.6324      Z:     0.7002     Total:     1.8747

*** Psi4 exiting successfully. Buy a developer a beer!
