                               Psi4 1.3.2 release

  ==> Input File <==

--------------------------------------------------------------------------
#psi4
#
memory 32 gb

molecule  {
0 1
  S       -2.7285110    -0.3883160    -0.0213010
  S        2.7978520    -0.2715570    -0.0789790
  C       -0.0046350    -0.1692960    -0.0145170
  C       -1.2611610     0.6942450     0.0320770
  C        1.2550670     0.6870920     0.0422130
  H       -0.0121870    -0.8698730     0.8286010
  H        0.0048720    -0.7692750    -0.9300540
  H       -1.2744540     1.2874770     0.9507400
  H       -1.2751080     1.3772510    -0.8218930
  H        1.2709800     1.2945630     0.9518460
  H        1.2830650     1.3753670    -0.8081880
  H       -3.7834130     0.7333124     0.0516247
  H        2.6042880    -0.9975790     1.0326360
units angstrom
no_reorient  #important for SAPT in psi4, default
symmetry c1  #important for SAPT in psi4, default
}

set PROPERTIES_ORIGIN ["COM"]
properties('MP2/aug-cc-pvtz', properties = ['dipole'])
--------------------------------------------------------------------------

    Molecular point group: c1
  Charge       = 0
  Multiplicity = 1
  Basis Set: AUG-CC-PVTZ
    Blend: AUG-CC-PVTZ
  Basis Set: (AUG-CC-PVTZ AUX)
    Blend: AUG-CC-PVTZ-JKFIT

    Orbital Energies [Eh]
    ---------------------

    Doubly Occupied:

       1A    -91.970067     2A    -91.956832     3A    -11.271023
       4A    -11.269836     5A    -11.245087     6A     -8.967469
       7A     -8.957987     8A     -6.648447     9A     -6.647618
      10A     -6.646633    11A     -6.639329    12A     -6.638317
      13A     -6.637287    14A     -1.109605    15A     -1.033613
      16A     -0.937330    17A     -0.842517    18A     -0.812075
      19A     -0.670732    20A     -0.602131    21A     -0.595160
      22A     -0.565348    23A     -0.517742    24A     -0.512747
      25A     -0.499204    26A     -0.454326    27A     -0.447528
      28A     -0.362830    29A     -0.360272

  @DF-RHF Final Energy:  -913.38158168944358

   => Energetics <=

    Nuclear Repulsion Energy =            266.5193994242815165
    One-Electron Energy =               -1788.1637806584092232
    Two-Electron Energy =                 608.2627995446840714
    Total Energy =                       -913.3815816894435784
  Basis Set: (AUG-CC-PVTZ AUX)
    Blend: AUG-CC-PVTZ-RI
    Molecular point group: c1

    Geometry (in Angstrom), charge = 0, multiplicity = 1:

       Center              X                  Y                   Z               Mass
    ------------   -----------------  -----------------  -----------------  -----------------
         S           -2.736816236451    -0.359661108118    -0.009970709821    31.972071174400
         S            2.789546763549    -0.242902108118    -0.067648709821    31.972071174400
         C           -0.012940236451    -0.140641108118    -0.003186709821    12.000000000000
         C           -1.269466236451     0.722899891882     0.043407290179    12.000000000000
         C            1.246761763549     0.715746891882     0.053543290179    12.000000000000
         H           -0.020492236451    -0.841218108118     0.839931290179     1.007825032230
         H           -0.003433236451    -0.740620108118    -0.918723709821     1.007825032230
         H           -1.282759236451     1.316131891882     0.962070290179     1.007825032230
         H           -1.283413236451     1.405905891882    -0.810562709821     1.007825032230
         H            1.262674763549     1.323217891882     0.963176290179     1.007825032230
         H            1.274759763549     1.404021891882    -0.796857709821     1.007825032230
         H           -3.791718236451     0.761967291882     0.062954990179     1.007825032230
         H            2.595982763549    -0.968924108118     1.043966290179     1.007825032230

  Basis Set: AUG-CC-PVTZ
    Blend: AUG-CC-PVTZ
  Basis Set: (AUG-CC-PVTZ AUX)
    Blend: AUG-CC-PVTZ-JKFIT
	 Reference Energy          =    -913.3815816894435784 [Eh]
	 Singles Energy            =      -0.0000000000000000 [Eh]
	 Same-Spin Energy          =      -0.2363352524375402 [Eh]
	 Opposite-Spin Energy      =      -0.8030097643245081 [Eh]
	 Correlation Energy        =      -1.0393450167620482 [Eh]
	 Total Energy              =    -914.4209267062055915 [Eh]

	 ================> DF-SCS-MP2 Energies <==================
	-----------------------------------------------------------
	 SCS Same-Spin Scale       =       0.3333333333333333 [-]
	 SCS Opposite-Spin Scale   =       1.2000000000000000 [-]
	 SCS Same-Spin Energy      =      -0.0787784174791800 [Eh]
	 SCS Opposite-Spin Energy  =      -0.9636117171894096 [Eh]
	 SCS Correlation Energy    =      -1.0423901346685898 [Eh]
	 SCS Total Energy          =    -914.4239718241121864 [Eh]
	-----------------------------------------------------------

  Dipole Moment: [D]
     X:    -0.5492      Y:     1.6239      Z:     0.7002     Total:     1.8518

*** Psi4 exiting successfully. Buy a developer a beer!
