                               Psi4 1.3.2 release

  ==> Input File <==

--------------------------------------------------------------------------
#psi4
#
memory 32 gb

molecule  {
0 1
  S       -2.7285110    -0.3883160    -0.0213010
  S        2.7978520    -0.2715570    -0.0789790
  C       -0.0046350    -0.1692960    -0.0145170
  C       -1.1807254     0.7535877     0.0350030
  C        1.2550670     0.6870920     0.0422130
  H       -0.0121870    -0.8698730     0.8286010
  H        0.0048720    -0.7692750    -0.9300540
  H       -1.2744540     1.2874770     0.9507400
  H       -1.2751080     1.3772510    -0.8218930
  H        1.2709800     1.2945630     0.9518460
  H        1.2830650     1.3753670    -0.8081880
  H       -3.6465450     0.5877870     0.0421630
  H        2.6042880    -0.9975790     1.0326360
units angstrom
no_reorient  #important for SAPT in psi4, default
symmetry c1  #important for SAPT in psi4, default
}

set PROPERTIES_ORIGIN ["COM"]
properties('MP2/aug-cc-pvtz', properties = ['dipole'])
--------------------------------------------------------------------------

    Molecular point group: c1
  Charge       = 0
  Multiplicity = 1
  Basis Set: AUG-CC-PVTZ
    Blend: AUG-CC-PVTZ
  Basis Set: (AUG-CC-PVTZ AUX)
    Blend: AUG-CC-PVTZ-JKFIT

    Orbital Energies [Eh]
    ---------------------

    Doubly Occupied:

       1A    -91.956311     2A    -91.952650     3A    -11.271934
       4A    -11.270937     5A    -11.244800     6A     -8.957521
       7A     -8.952948     8A     -6.638866     9A     -6.637858
      10A     -6.636828    11A     -6.634193    12A     -6.633148
      13A     -6.632187    14A     -1.114283    15A     -1.030031
      16A     -0.941699    17A     -0.853780    18A     -0.821057
      19A     -0.679093    20A     -0.607252    21A     -0.602897
      22A     -0.576421    23A     -0.523528    24A     -0.518909
      25A     -0.503432    26A     -0.461156    27A     -0.431583
      28A     -0.361905    29A     -0.359640

  @DF-RHF Final Energy:  -913.39310319628953

   => Energetics <=

    Nuclear Repulsion Energy =            266.9634261329691185
    One-Electron Energy =               -1789.0993648689784550
    Two-Electron Energy =                 608.7428355397198629
    Total Energy =                       -913.3931031962895304
  Basis Set: (AUG-CC-PVTZ AUX)
    Blend: AUG-CC-PVTZ-RI
    Molecular point group: c1

    Geometry (in Angstrom), charge = 0, multiplicity = 1:

       Center              X                  Y                   Z               Mass
    ------------   -----------------  -----------------  -----------------  -----------------
         S           -2.747030100604    -0.364896413299    -0.010207512277    31.972071174400
         S            2.779332899396    -0.248137413299    -0.067885512277    31.972071174400
         C           -0.023154100604    -0.145876413299    -0.003423512277    12.000000000000
         C           -1.199244500604     0.777007286701     0.046096487723    12.000000000000
         C            1.236547899396     0.710511586701     0.053306487723    12.000000000000
         H           -0.030706100604    -0.846453413299     0.839694487723     1.007825032230
         H           -0.013647100604    -0.745855413299    -0.918960512277     1.007825032230
         H           -1.292973100604     1.310896586701     0.961833487723     1.007825032230
         H           -1.293627100604     1.400670586701    -0.810799512277     1.007825032230
         H            1.252460899396     1.317982586701     0.962939487723     1.007825032230
         H            1.264545899396     1.398786586701    -0.797094512277     1.007825032230
         H           -3.665064100604     0.611206586701     0.053256487723     1.007825032230
         H            2.585768899396    -0.974159413299     1.043729487723     1.007825032230

  Basis Set: AUG-CC-PVTZ
    Blend: AUG-CC-PVTZ
  Basis Set: (AUG-CC-PVTZ AUX)
    Blend: AUG-CC-PVTZ-JKFIT
	 Reference Energy          =    -913.3931031962895304 [Eh]
	 Singles Energy            =      -0.0000000000000000 [Eh]
	 Same-Spin Energy          =      -0.2363364444004805 [Eh]
	 Opposite-Spin Energy      =      -0.8016922025447473 [Eh]
	 Correlation Energy        =      -1.0380286469452278 [Eh]
	 Total Energy              =    -914.4311318432347662 [Eh]

	 ================> DF-SCS-MP2 Energies <==================
	-----------------------------------------------------------
	 SCS Same-Spin Scale       =       0.3333333333333333 [-]
	 SCS Opposite-Spin Scale   =       1.2000000000000000 [-]
	 SCS Same-Spin Energy      =      -0.0787788148001601 [Eh]
	 SCS Opposite-Spin Energy  =      -0.9620306430536967 [Eh]
	 SCS Correlation Energy    =      -1.0408094578538569 [Eh]
	 SCS Total Energy          =    -914.4339126541433416 [Eh]
	-----------------------------------------------------------

  Dipole Moment: [D]
     X:    -0.4583      Y:     1.7125      Z:     0.7038     Total:     1.9073

*** Psi4 exiting successfully. Buy a developer a beer!
