                               Psi4 1.3.2 release

  ==> Input File <==

--------------------------------------------------------------------------
#psi4
#
memory 32 gb

molecule  {
0 1
  S       -2.7780517    -0.2964422    -0.1811951
  S        2.7978520    -0.2715570    -0.0789790
  C       -0.0046350    -0.1692960    -0.0145170
  C       -1.2611610     0.6942450     0.0320770
  C        1.2550670     0.6870920     0.0422130
  H       -0.0121870    -0.8698730     0.8286010
  H        0.0048720    -0.7692750    -0.9300540
  H       -1.2744540     1.2874770     0.9507400
  H       -1.2751080     1.3772510    -0.8218930
  H        1.2709800     1.2945630     0.9518460
  H        1.2830650     1.3753670    -0.8081880
  H       -3.6465450     0.5877870     0.0421630
  H        2.6042880    -0.9975790     1.0326360
units angstrom
no_reorient  #important for SAPT in psi4, default
symmetry c1  #important for SAPT in psi4, default
}

set PROPERTIES_ORIGIN ["COM"]
properties('MP2/aug-cc-pvtz', properties = ['dipole'])
--------------------------------------------------------------------------

    Molecular point group: c1
  Charge       = 0
  Multiplicity = 1
  Basis Set: AUG-CC-PVTZ
    Blend: AUG-CC-PVTZ
  Basis Set: (AUG-CC-PVTZ AUX)
    Blend: AUG-CC-PVTZ-JKFIT

    Orbital Energies [Eh]
    ---------------------

    Doubly Occupied:

       1A    -91.957039     2A    -91.948772     3A    -11.271198
       4A    -11.269768     5A    -11.245587     6A     -8.958182
       7A     -8.952412     8A     -6.639524     9A     -6.638510
      10A     -6.637480    11A     -6.634055    12A     -6.632764
      13A     -6.631653    14A     -1.110072    15A     -1.039906
      16A     -0.953040    17A     -0.855443    18A     -0.814412
      19A     -0.671197    20A     -0.614384    21A     -0.597557
      22A     -0.569539    23A     -0.533753    24A     -0.517890
      25A     -0.500450    26A     -0.459098    27A     -0.446912
      28A     -0.362038    29A     -0.359755

  @DF-RHF Final Energy:  -913.39441558952490

   => Energetics <=

    Nuclear Repulsion Energy =            267.2120808749191383
    One-Electron Energy =               -1789.5682115011541100
    Two-Electron Energy =                 608.9617150367100749
    Total Energy =                       -913.3944155895248969
  Basis Set: (AUG-CC-PVTZ AUX)
    Blend: AUG-CC-PVTZ-RI
    Molecular point group: c1

    Geometry (in Angstrom), charge = 0, multiplicity = 1:

       Center              X                  Y                   Z               Mass
    ------------   -----------------  -----------------  -----------------  -----------------
         S           -2.772969070518    -0.293625801757    -0.122444795477    31.972071174400
         S            2.802934629482    -0.268740601757    -0.020228695477    31.972071174400
         C            0.000447629482    -0.166479601757     0.044233304523    12.000000000000
         C           -1.256078370518     0.697061398243     0.090827304523    12.000000000000
         C            1.260149629482     0.689908398243     0.100963304523    12.000000000000
         H           -0.007104370518    -0.867056601757     0.887351304523     1.007825032230
         H            0.009954629482    -0.766458601757    -0.871303695477     1.007825032230
         H           -1.269371370518     1.290293398243     1.009490304523     1.007825032230
         H           -1.270025370518     1.380067398243    -0.763142695477     1.007825032230
         H            1.276062629482     1.297379398243     1.010596304523     1.007825032230
         H            1.288147629482     1.378183398243    -0.749437695477     1.007825032230
         H           -3.641462370518     0.590603398243     0.100913304523     1.007825032230
         H            2.609370629482    -0.994762601757     1.091386304523     1.007825032230

  Basis Set: AUG-CC-PVTZ
    Blend: AUG-CC-PVTZ
  Basis Set: (AUG-CC-PVTZ AUX)
    Blend: AUG-CC-PVTZ-JKFIT
	 Reference Energy          =    -913.3944155895248969 [Eh]
	 Singles Energy            =      -0.0000000000000000 [Eh]
	 Same-Spin Energy          =      -0.2361578100436122 [Eh]
	 Opposite-Spin Energy      =      -0.8007484781933664 [Eh]
	 Correlation Energy        =      -1.0369062882369786 [Eh]
	 Total Energy              =    -914.4313218777618886 [Eh]

	 ================> DF-SCS-MP2 Energies <==================
	-----------------------------------------------------------
	 SCS Same-Spin Scale       =       0.3333333333333333 [-]
	 SCS Opposite-Spin Scale   =       1.2000000000000000 [-]
	 SCS Same-Spin Energy      =      -0.0787192700145374 [Eh]
	 SCS Opposite-Spin Energy  =      -0.9608981738320396 [Eh]
	 SCS Correlation Energy    =      -1.0396174438465771 [Eh]
	 SCS Total Energy          =    -914.4340330333715201 [Eh]
	-----------------------------------------------------------

  Dipole Moment: [D]
     X:    -0.5191      Y:     1.6176      Z:     0.8893     Total:     1.9175

*** Psi4 exiting successfully. Buy a developer a beer!
