                               Psi4 1.3.2 release

  ==> Input File <==

--------------------------------------------------------------------------
#psi4
#
memory 32 gb

molecule  {
0 1
  S       -2.7285110    -0.3883160    -0.0213010
  S        2.7978520    -0.2715570    -0.0789790
  C       -0.0046350    -0.1692960    -0.0145170
  C       -1.2611610     0.6942450     0.0320770
  C        1.2550670     0.6870920     0.0422130
  H       -0.0121870    -0.8698730     0.8286010
  H        0.0048720    -0.7692750    -0.9300540
  H       -1.2744540     1.2874770     0.9507400
  H       -1.2751080     1.3772510    -0.8218930
  H        1.2709800     1.2945630     0.9518460
  H        1.2830650     1.3753670    -0.8081880
  H       -3.5781110     0.5150243     0.0374321
  H        2.6042880    -0.9975790     1.0326360
units angstrom
no_reorient  #important for SAPT in psi4, default
symmetry c1  #important for SAPT in psi4, default
}

set PROPERTIES_ORIGIN ["COM"]
properties('MP2/aug-cc-pvtz', properties = ['dipole'])
--------------------------------------------------------------------------

    Molecular point group: c1
  Charge       = 0
  Multiplicity = 1
  Basis Set: AUG-CC-PVTZ
    Blend: AUG-CC-PVTZ
  Basis Set: (AUG-CC-PVTZ AUX)
    Blend: AUG-CC-PVTZ-JKFIT

    Orbital Energies [Eh]
    ---------------------

    Doubly Occupied:

       1A    -91.956206     2A    -91.947984     3A    -11.270127
       4A    -11.269299     5A    -11.243978     6A     -8.957365
       7A     -8.952195     8A     -6.638710     9A     -6.637697
      10A     -6.636668    11A     -6.633886    12A     -6.632453
      13A     -6.631329    14A     -1.110415    15A     -1.040695
      16A     -0.953141    17A     -0.855613    18A     -0.814544
      19A     -0.670082    20A     -0.618076    21A     -0.595981
      22A     -0.566258    23A     -0.532527    24A     -0.517156
      25A     -0.499074    26A     -0.463384    27A     -0.447290
      28A     -0.362814    29A     -0.360134

  @DF-RHF Final Energy:  -913.39401083941152

   => Energetics <=

    Nuclear Repulsion Energy =            268.1284080871828337
    One-Electron Energy =               -1791.4146758214371857
    Two-Electron Energy =                 609.8922568948428307
    Total Energy =                       -913.3940108394115214
  Basis Set: (AUG-CC-PVTZ AUX)
    Blend: AUG-CC-PVTZ-RI
    Molecular point group: c1

    Geometry (in Angstrom), charge = 0, multiplicity = 1:

       Center              X                  Y                   Z               Mass
    ------------   -----------------  -----------------  -----------------  -----------------
         S           -2.738731936247    -0.357624233326    -0.009838276815    31.972071174400
         S            2.787631063753    -0.240865233326    -0.067516276815    31.972071174400
         C           -0.014855936247    -0.138604233326    -0.003054276815    12.000000000000
         C           -1.271381936247     0.724936766674     0.043539723185    12.000000000000
         C            1.244846063753     0.717783766674     0.053675723185    12.000000000000
         H           -0.022407936247    -0.839181233326     0.840063723185     1.007825032230
         H           -0.005348936247    -0.738583233326    -0.918591276815     1.007825032230
         H           -1.284674936247     1.318168766674     0.962202723185     1.007825032230
         H           -1.285328936247     1.407942766674    -0.810430276815     1.007825032230
         H            1.260759063753     1.325254766674     0.963308723185     1.007825032230
         H            1.272844063753     1.406058766674    -0.796725276815     1.007825032230
         H           -3.588331936247     0.545716066674     0.048894823185     1.007825032230
         H            2.594067063753    -0.966887233326     1.044098723185     1.007825032230

  Basis Set: AUG-CC-PVTZ
    Blend: AUG-CC-PVTZ
  Basis Set: (AUG-CC-PVTZ AUX)
    Blend: AUG-CC-PVTZ-JKFIT
	 Reference Energy          =    -913.3940108394115214 [Eh]
	 Singles Energy            =      -0.0000000000000000 [Eh]
	 Same-Spin Energy          =      -0.2363731223387434 [Eh]
	 Opposite-Spin Energy      =      -0.8010273473708061 [Eh]
	 Correlation Energy        =      -1.0374004697095494 [Eh]
	 Total Energy              =    -914.4314113091210174 [Eh]

	 ================> DF-SCS-MP2 Energies <==================
	-----------------------------------------------------------
	 SCS Same-Spin Scale       =       0.3333333333333333 [-]
	 SCS Opposite-Spin Scale   =       1.2000000000000000 [-]
	 SCS Same-Spin Energy      =      -0.0787910407795811 [Eh]
	 SCS Opposite-Spin Energy  =      -0.9612328168449672 [Eh]
	 SCS Correlation Energy    =      -1.0400238576245484 [Eh]
	 SCS Total Energy          =    -914.4340346970360542 [Eh]
	-----------------------------------------------------------

  Dipole Moment: [D]
     X:    -0.6180      Y:     1.6335      Z:     0.7008     Total:     1.8819

*** Psi4 exiting successfully. Buy a developer a beer!
