                               Psi4 1.3.2 release

  ==> Input File <==

--------------------------------------------------------------------------
#psi4
#
memory 32 gb

molecule  {
0 1
  S       -2.7285110    -0.3883160    -0.0213010
  S        2.7978520    -0.2715570    -0.0789790
  C       -0.0046350    -0.1692960    -0.0145170
  C       -1.2611610     0.6942450     0.0320770
  C        1.2550670     0.6870920     0.0422130
  H       -0.0121870    -0.8698730     0.8286010
  H        0.0048720    -0.7692750    -0.9300540
  H       -1.2744540     1.2874770     0.9507400
  H       -1.2751080     1.3772510    -0.8218930
  H        1.2709800     1.2945630     0.9518460
  H        1.2830650     1.3753670    -0.8081880
  H       -3.7149790     0.6605497     0.0468939
  H        2.6042880    -0.9975790     1.0326360
units angstrom
no_reorient  #important for SAPT in psi4, default
symmetry c1  #important for SAPT in psi4, default
}

set PROPERTIES_ORIGIN ["COM"]
properties('MP2/aug-cc-pvtz', properties = ['dipole'])
--------------------------------------------------------------------------

    Molecular point group: c1
  Charge       = 0
  Multiplicity = 1
  Basis Set: AUG-CC-PVTZ
    Blend: AUG-CC-PVTZ
  Basis Set: (AUG-CC-PVTZ AUX)
    Blend: AUG-CC-PVTZ-JKFIT

    Orbital Energies [Eh]
    ---------------------

    Doubly Occupied:

       1A    -91.963622     2A    -91.956564     3A    -11.270653
       4A    -11.269531     5A    -11.244602     6A     -8.962612
       7A     -8.957721     8A     -6.643749     9A     -6.642881
      10A     -6.641882    11A     -6.639064    12A     -6.638052
      13A     -6.637022    14A     -1.109554    15A     -1.034886
      16A     -0.940865    17A     -0.845874    18A     -0.812858
      19A     -0.670420    20A     -0.605937    21A     -0.595627
      22A     -0.565462    23A     -0.519714    24A     -0.517444
      25A     -0.499197    26A     -0.458551    27A     -0.447348
      28A     -0.362606    29A     -0.360049

  @DF-RHF Final Energy:  -913.39320673146608

   => Energetics <=

    Nuclear Repulsion Energy =            266.9926819238744429
    One-Electron Energy =               -1789.1430830508879808
    Two-Electron Energy =                 608.7571943955474580
    Total Energy =                       -913.3932067314660799
  Basis Set: (AUG-CC-PVTZ AUX)
    Blend: AUG-CC-PVTZ-RI
    Molecular point group: c1

    Geometry (in Angstrom), charge = 0, multiplicity = 1:

       Center              X                  Y                   Z               Mass
    ------------   -----------------  -----------------  -----------------  -----------------
         S           -2.737454803050    -0.358982149854    -0.009926566108    31.972071174400
         S            2.788908196950    -0.242223149854    -0.067604566108    31.972071174400
         C           -0.013578803050    -0.139962149854    -0.003142566108    12.000000000000
         C           -1.270104803050     0.723578850146     0.043451433892    12.000000000000
         C            1.246123196950     0.716425850146     0.053587433892    12.000000000000
         H           -0.021130803050    -0.840539149854     0.839975433892     1.007825032230
         H           -0.004071803050    -0.739941149854    -0.918679566108     1.007825032230
         H           -1.283397803050     1.316810850146     0.962114433892     1.007825032230
         H           -1.284051803050     1.406584850146    -0.810518566108     1.007825032230
         H            1.262036196950     1.323896850146     0.963220433892     1.007825032230
         H            1.274121196950     1.404700850146    -0.796813566108     1.007825032230
         H           -3.723922803050     0.689883550146     0.058268333892     1.007825032230
         H            2.595344196950    -0.968245149854     1.044010433892     1.007825032230

  Basis Set: AUG-CC-PVTZ
    Blend: AUG-CC-PVTZ
  Basis Set: (AUG-CC-PVTZ AUX)
    Blend: AUG-CC-PVTZ-JKFIT
	 Reference Energy          =    -913.3932067314660799 [Eh]
	 Singles Energy            =      -0.0000000000000000 [Eh]
	 Same-Spin Energy          =      -0.2363179656375452 [Eh]
	 Opposite-Spin Energy      =      -0.8020569183878301 [Eh]
	 Correlation Energy        =      -1.0383748840253753 [Eh]
	 Total Energy              =    -914.4315816154914955 [Eh]

	 ================> DF-SCS-MP2 Energies <==================
	-----------------------------------------------------------
	 SCS Same-Spin Scale       =       0.3333333333333333 [-]
	 SCS Opposite-Spin Scale   =       1.2000000000000000 [-]
	 SCS Same-Spin Energy      =      -0.0787726552125151 [Eh]
	 SCS Opposite-Spin Energy  =      -0.9624683020653961 [Eh]
	 SCS Correlation Energy    =      -1.0412409572779111 [Eh]
	 SCS Total Energy          =    -914.4344476887439441 [Eh]
	-----------------------------------------------------------

  Dipole Moment: [D]
     X:    -0.5806      Y:     1.6298      Z:     0.7006     Total:     1.8666

*** Psi4 exiting successfully. Buy a developer a beer!
