                               Psi4 1.3.2 release

  ==> Input File <==

--------------------------------------------------------------------------
#psi4
#
memory 32 gb

molecule  {
0 1
  S       -2.7083929    -0.4163509     0.0322139
  S        2.7978520    -0.2715570    -0.0789790
  C       -0.0046350    -0.1692960    -0.0145170
  C       -1.2611610     0.6942450     0.0320770
  C        1.2550670     0.6870920     0.0422130
  H       -0.0121870    -0.8698730     0.8286010
  H        0.0048720    -0.7692750    -0.9300540
  H       -1.2744540     1.2874770     0.9507400
  H       -1.2751080     1.3772510    -0.8218930
  H        1.2709800     1.2945630     0.9518460
  H        1.2830650     1.3753670    -0.8081880
  H       -3.6465450     0.5877870     0.0421630
  H        2.6042880    -0.9975790     1.0326360
units angstrom
no_reorient  #important for SAPT in psi4, default
symmetry c1  #important for SAPT in psi4, default
}

set PROPERTIES_ORIGIN ["COM"]
properties('MP2/aug-cc-pvtz', properties = ['dipole'])
--------------------------------------------------------------------------

    Molecular point group: c1
  Charge       = 0
  Multiplicity = 1
  Basis Set: AUG-CC-PVTZ
    Blend: AUG-CC-PVTZ
  Basis Set: (AUG-CC-PVTZ AUX)
    Blend: AUG-CC-PVTZ-JKFIT

    Orbital Energies [Eh]
    ---------------------

    Doubly Occupied:

       1A    -91.959134     2A    -91.956122     3A    -11.270052
       4A    -11.269208     5A    -11.243807     6A     -8.959514
       7A     -8.957285     8A     -6.640770     9A     -6.639812
      10A     -6.638780    11A     -6.638630    12A     -6.637618
      13A     -6.636589    14A     -1.109782    15A     -1.036309
      16A     -0.943636    17A     -0.848460    18A     -0.813587
      19A     -0.670098    20A     -0.610188    21A     -0.595267
      22A     -0.564789    23A     -0.522896    24A     -0.517069
      25A     -0.498675    26A     -0.462807    27A     -0.446747
      28A     -0.362933    29A     -0.359746

  @DF-RHF Final Energy:  -913.39734295567496

   => Energetics <=

    Nuclear Repulsion Energy =            267.6550780094780748
    One-Electron Energy =               -1790.4842229635398780
    Two-Electron Energy =                 609.4318019983868453
    Total Energy =                       -913.3973429556749579
  Basis Set: (AUG-CC-PVTZ AUX)
    Blend: AUG-CC-PVTZ-RI
    Molecular point group: c1

    Geometry (in Angstrom), charge = 0, multiplicity = 1:

       Center              X                  Y                   Z               Mass
    ------------   -----------------  -----------------  -----------------  -----------------
         S           -2.723930613820    -0.378039222496     0.027791039843    31.972071174400
         S            2.782314286180    -0.233245322496    -0.083401860157    31.972071174400
         C           -0.020172713820    -0.130984322496    -0.018939860157    12.000000000000
         C           -1.276698713820     0.732556677504     0.027654139843    12.000000000000
         C            1.239529286180     0.725403677504     0.037790139843    12.000000000000
         H           -0.027724713820    -0.831561322496     0.824178139843     1.007825032230
         H           -0.010665713820    -0.730963322496    -0.934476860157     1.007825032230
         H           -1.289991713820     1.325788677504     0.946317139843     1.007825032230
         H           -1.290645713820     1.415562677504    -0.826315860157     1.007825032230
         H            1.255442286180     1.332874677504     0.947423139843     1.007825032230
         H            1.267527286180     1.413678677504    -0.812610860157     1.007825032230
         H           -3.662082713820     0.626098677504     0.037740139843     1.007825032230
         H            2.588750286180    -0.959267322496     1.028213139843     1.007825032230

  Basis Set: AUG-CC-PVTZ
    Blend: AUG-CC-PVTZ
  Basis Set: (AUG-CC-PVTZ AUX)
    Blend: AUG-CC-PVTZ-JKFIT
	 Reference Energy          =    -913.3973429556749579 [Eh]
	 Singles Energy            =      -0.0000000000000000 [Eh]
	 Same-Spin Energy          =      -0.2364464381568349 [Eh]
	 Opposite-Spin Energy      =      -0.8017749115689663 [Eh]
	 Correlation Energy        =      -1.0382213497258013 [Eh]
	 Total Energy              =    -914.4355643054007032 [Eh]

	 ================> DF-SCS-MP2 Energies <==================
	-----------------------------------------------------------
	 SCS Same-Spin Scale       =       0.3333333333333333 [-]
	 SCS Opposite-Spin Scale   =       1.2000000000000000 [-]
	 SCS Same-Spin Energy      =      -0.0788154793856116 [Eh]
	 SCS Opposite-Spin Energy  =      -0.9621298938827595 [Eh]
	 SCS Correlation Energy    =      -1.0409453732683711 [Eh]
	 SCS Total Energy          =    -914.4382883289433721 [Eh]
	-----------------------------------------------------------

  Dipole Moment: [D]
     X:    -0.6297      Y:     1.6323      Z:     0.6440     Total:     1.8643

*** Psi4 exiting successfully. Buy a developer a beer!
