                               Psi4 1.3.2 release

  ==> Input File <==

--------------------------------------------------------------------------
#psi4
#
memory 32 gb

molecule  {
0 1
  S       -2.8005437    -0.2834638    -0.0157767
  S        2.7978520    -0.2715570    -0.0789790
  C       -0.0046350    -0.1692960    -0.0145170
  C       -1.2611610     0.6942450     0.0320770
  C        1.2550670     0.6870920     0.0422130
  H       -0.0121870    -0.8698730     0.8286010
  H        0.0048720    -0.7692750    -0.9300540
  H       -1.2744540     1.2874770     0.9507400
  H       -1.2751080     1.3772510    -0.8218930
  H        1.2709800     1.2945630     0.9518460
  H        1.2830650     1.3753670    -0.8081880
  H       -3.6465450     0.5877870     0.0421630
  H        2.6042880    -0.9975790     1.0326360
units angstrom
no_reorient  #important for SAPT in psi4, default
symmetry c1  #important for SAPT in psi4, default
}

set PROPERTIES_ORIGIN ["COM"]
properties('MP2/aug-cc-pvtz', properties = ['dipole'])
--------------------------------------------------------------------------

    Molecular point group: c1
  Charge       = 0
  Multiplicity = 1
  Basis Set: AUG-CC-PVTZ
    Blend: AUG-CC-PVTZ
  Basis Set: (AUG-CC-PVTZ AUX)
    Blend: AUG-CC-PVTZ-JKFIT

    Orbital Energies [Eh]
    ---------------------

    Doubly Occupied:

       1A    -91.957410     2A    -91.944414     3A    -11.271705
       4A    -11.270441     5A    -11.246329     6A     -8.958547
       7A     -8.949660     8A     -6.639888     9A     -6.638875
      10A     -6.637844    11A     -6.631557    12A     -6.629938
      13A     -6.628829    14A     -1.110461    15A     -1.041767
      16A     -0.957066    17A     -0.858546    18A     -0.815168
      19A     -0.670896    20A     -0.619333    21A     -0.596658
      22A     -0.569817    23A     -0.539725    24A     -0.518425
      25A     -0.500494    26A     -0.457744    27A     -0.445747
      28A     -0.362984    29A     -0.359638

  @DF-RHF Final Energy:  -913.38949969137980

   => Energetics <=

    Nuclear Repulsion Energy =            267.1728120842021212
    One-Electron Energy =               -1789.4648101513773781
    Two-Electron Energy =                 608.9024983757954033
    Total Energy =                       -913.3894996913797968
  Basis Set: (AUG-CC-PVTZ AUX)
    Blend: AUG-CC-PVTZ-RI
    Molecular point group: c1

    Geometry (in Angstrom), charge = 0, multiplicity = 1:

       Center              X                  Y                   Z               Mass
    ------------   -----------------  -----------------  -----------------  -----------------
         S           -2.788803006331    -0.284489257538    -0.005993420412    31.972071174400
         S            2.809592693669    -0.272582457538    -0.069195720412    31.972071174400
         C            0.007105693669    -0.170321457538    -0.004733720412    12.000000000000
         C           -1.249420306331     0.693219542462     0.041860279588    12.000000000000
         C            1.266807693669     0.686066542462     0.051996279588    12.000000000000
         H           -0.000446306331    -0.870898457538     0.838384279588     1.007825032230
         H            0.016612693669    -0.770300457538    -0.920270720412     1.007825032230
         H           -1.262713306331     1.286451542462     0.960523279588     1.007825032230
         H           -1.263367306331     1.376225542462    -0.812109720412     1.007825032230
         H            1.282720693669     1.293537542462     0.961629279588     1.007825032230
         H            1.294805693669     1.374341542462    -0.798404720412     1.007825032230
         H           -3.634804306331     0.586761542462     0.051946279588     1.007825032230
         H            2.616028693669    -0.998604457538     1.042419279588     1.007825032230

  Basis Set: AUG-CC-PVTZ
    Blend: AUG-CC-PVTZ
  Basis Set: (AUG-CC-PVTZ AUX)
    Blend: AUG-CC-PVTZ-JKFIT
	 Reference Energy          =    -913.3894996913797968 [Eh]
	 Singles Energy            =      -0.0000000000000000 [Eh]
	 Same-Spin Energy          =      -0.2360442963293353 [Eh]
	 Opposite-Spin Energy      =      -0.8004323019669035 [Eh]
	 Correlation Energy        =      -1.0364765982962387 [Eh]
	 Total Energy              =    -914.4259762896759867 [Eh]

	 ================> DF-SCS-MP2 Energies <==================
	-----------------------------------------------------------
	 SCS Same-Spin Scale       =       0.3333333333333333 [-]
	 SCS Opposite-Spin Scale   =       1.2000000000000000 [-]
	 SCS Same-Spin Energy      =      -0.0786814321097784 [Eh]
	 SCS Opposite-Spin Energy  =      -0.9605187623602842 [Eh]
	 SCS Correlation Energy    =      -1.0392001944700626 [Eh]
	 SCS Total Energy          =    -914.4286998858498237 [Eh]
	-----------------------------------------------------------

  Dipole Moment: [D]
     X:    -0.4708      Y:     1.6481      Z:     0.7042     Total:     1.8530

*** Psi4 exiting successfully. Buy a developer a beer!
