                               Psi4 1.3.2 release

  ==> Input File <==

--------------------------------------------------------------------------
#psi4
#
memory 32 gb

molecule  {
0 1
  S       -2.6628937    -0.4683290     0.1391779
  S        2.7978520    -0.2715570    -0.0789790
  C       -0.0046350    -0.1692960    -0.0145170
  C       -1.2611610     0.6942450     0.0320770
  C        1.2550670     0.6870920     0.0422130
  H       -0.0121870    -0.8698730     0.8286010
  H        0.0048720    -0.7692750    -0.9300540
  H       -1.2744540     1.2874770     0.9507400
  H       -1.2751080     1.3772510    -0.8218930
  H        1.2709800     1.2945630     0.9518460
  H        1.2830650     1.3753670    -0.8081880
  H       -3.6465450     0.5877870     0.0421630
  H        2.6042880    -0.9975790     1.0326360
units angstrom
no_reorient  #important for SAPT in psi4, default
symmetry c1  #important for SAPT in psi4, default
}

set PROPERTIES_ORIGIN ["COM"]
properties('MP2/aug-cc-pvtz', properties = ['dipole'])
--------------------------------------------------------------------------

    Molecular point group: c1
  Charge       = 0
  Multiplicity = 1
  Basis Set: AUG-CC-PVTZ
    Blend: AUG-CC-PVTZ
  Basis Set: (AUG-CC-PVTZ AUX)
    Blend: AUG-CC-PVTZ-JKFIT

    Orbital Energies [Eh]
    ---------------------

    Doubly Occupied:

       1A    -91.964983     2A    -91.955677     3A    -11.269461
       4A    -11.268985     5A    -11.243078     6A     -8.963891
       7A     -8.956852     8A     -6.645004     9A     -6.644046
      10A     -6.643065    11A     -6.638198    12A     -6.637187
      13A     -6.636158    14A     -1.109994    15A     -1.035116
      16A     -0.939104    17A     -0.844825    18A     -0.813618
      19A     -0.670136    20A     -0.607767    21A     -0.594238
      22A     -0.563325    23A     -0.516984    24A     -0.513979
      25A     -0.497615    26A     -0.465841    27A     -0.444764
      28A     -0.363573    29A     -0.359103

  @DF-RHF Final Energy:  -913.38977280836752

   => Energetics <=

    Nuclear Repulsion Energy =            267.9698939816620396
    One-Electron Energy =               -1791.1061966248062163
    Two-Electron Energy =                 609.7465298347765383
    Total Energy =                       -913.3897728083675247
  Basis Set: (AUG-CC-PVTZ AUX)
    Blend: AUG-CC-PVTZ-RI
    Molecular point group: c1

    Geometry (in Angstrom), charge = 0, multiplicity = 1:

       Center              X                  Y                   Z               Mass
    ------------   -----------------  -----------------  -----------------  -----------------
         S           -2.691900051293    -0.414630806131     0.103091640517    31.972071174400
         S            2.768845648707    -0.217858806131    -0.115065259483    31.972071174400
         C           -0.033641351293    -0.115597806131    -0.050603259483    12.000000000000
         C           -1.290167351293     0.747943193869    -0.004009259483    12.000000000000
         C            1.226060648707     0.740790193869     0.006126740517    12.000000000000
         H           -0.041193351293    -0.816174806131     0.792514740517     1.007825032230
         H           -0.024134351293    -0.715576806131    -0.966140259483     1.007825032230
         H           -1.303460351293     1.341175193869     0.914653740517     1.007825032230
         H           -1.304114351293     1.430949193869    -0.857979259483     1.007825032230
         H            1.241973648707     1.348261193869     0.915759740517     1.007825032230
         H            1.254058648707     1.429065193869    -0.844274259483     1.007825032230
         H           -3.675551351293     0.641485193869     0.006076740517     1.007825032230
         H            2.575281648707    -0.943880806131     0.996549740517     1.007825032230

  Basis Set: AUG-CC-PVTZ
    Blend: AUG-CC-PVTZ
  Basis Set: (AUG-CC-PVTZ AUX)
    Blend: AUG-CC-PVTZ-JKFIT
	 Reference Energy          =    -913.3897728083675247 [Eh]
	 Singles Energy            =      -0.0000000000000000 [Eh]
	 Same-Spin Energy          =      -0.2367997143330205 [Eh]
	 Opposite-Spin Energy      =      -0.8028803785181297 [Eh]
	 Correlation Energy        =      -1.0396800928511500 [Eh]
	 Total Energy              =    -914.4294529012187240 [Eh]

	 ================> DF-SCS-MP2 Energies <==================
	-----------------------------------------------------------
	 SCS Same-Spin Scale       =       0.3333333333333333 [-]
	 SCS Opposite-Spin Scale   =       1.2000000000000000 [-]
	 SCS Same-Spin Energy      =      -0.0789332381110068 [Eh]
	 SCS Opposite-Spin Energy  =      -0.9634564542217555 [Eh]
	 SCS Correlation Energy    =      -1.0423896923327622 [Eh]
	 SCS Total Energy          =    -914.4321625007003149 [Eh]
	-----------------------------------------------------------

  Dipole Moment: [D]
     X:    -0.6738      Y:     1.6269      Z:     0.5392     Total:     1.8416

*** Psi4 exiting successfully. Buy a developer a beer!
