                               Psi4 1.4a3.dev225

  ==> Input File <==

--------------------------------------------------------------------------
#psi4
#
memory 32 gb

molecule  {
0 1
  S       -2.7284260    -0.3884000    -0.0211100
  S        2.7978210    -0.2715830    -0.0790280
  C       -0.0046620    -0.1691880    -0.0148200
  C       -1.2612500     0.6943380     0.0318360
  C        1.2550450     0.6870670     0.0425410
  H       -0.0123800    -0.8700300     0.8280760
  H        0.0049040    -0.7688230    -0.9305610
  H       -1.2743340     1.2878300     0.9503460
  H       -1.2752540     1.3771350    -0.8223080
  H        1.2706930     1.2940590     0.9525080
  H        1.2829320     1.3759050    -0.8073940
  H       -3.6327229     0.5732489     0.0404986
  H        2.6047420    -0.9974400     1.0327750
units angstrom
no_reorient  #important for SAPT in psi4, default
symmetry c1  #important for SAPT in psi4, default
}

set PROPERTIES_ORIGIN ["COM"]
properties('MP2/aug-cc-pvtz', properties = ['dipole'])
--------------------------------------------------------------------------

    Molecular point group: c1
  Charge       = 0
  Multiplicity = 1
  Basis Set: AUG-CC-PVTZ
    Blend: AUG-CC-PVTZ
  Basis Set: (AUG-CC-PVTZ AUX)
    Blend: AUG-CC-PVTZ-JKFIT

    Orbital Energies [Eh]
    ---------------------

    Doubly Occupied:

       1A    -91.956329     2A    -91.954742     3A    -11.270298
       4A    -11.269329     5A    -11.244156     6A     -8.957487
       7A     -8.956450     8A     -6.638831     9A     -6.637843
      10A     -6.637818    11A     -6.636793    12A     -6.636789
      13A     -6.635720    14A     -1.109872    15A     -1.037672
      16A     -0.947283    17A     -0.851311    18A     -0.813873
      19A     -0.670173    20A     -0.612643    21A     -0.595861
      22A     -0.565864    23A     -0.527860    24A     -0.517235
      25A     -0.499097    26A     -0.461890    27A     -0.447275
      28A     -0.362617    29A     -0.360034

  @DF-RHF Final Energy:  -913.39879288232328

   => Energetics <=

    Nuclear Repulsion Energy =            267.6405599384203811
    One-Electron Energy =               -1790.4524167625593236
    Two-Electron Energy =                 609.4130639418156079
    Total Energy =                       -913.3987928823232778
  Basis Set: (AUG-CC-PVTZ AUX)
    Blend: AUG-CC-PVTZ-RI
    Molecular point group: c1

    Geometry (in Angstrom), charge = 0, multiplicity = 1:

       Center              X                  Y                   Z               Mass
    ------------   -----------------  -----------------  -----------------  -----------------
         S           -2.738136570469    -0.358245105347    -0.009691631496    31.972071174400
         S            2.788110429531    -0.241428105347    -0.067609631496    31.972071174400
         C           -0.014372570469    -0.139033105347    -0.003401631496    12.000000000000
         C           -1.270960570469     0.724492894653     0.043254368504    12.000000000000
         C            1.245334429531     0.717221894653     0.053959368504    12.000000000000
         H           -0.022090570469    -0.839875105347     0.839494368504     1.007825032230
         H           -0.004806570469    -0.738668105347    -0.919142631496     1.007825032230
         H           -1.284044570469     1.317984894653     0.961764368504     1.007825032230
         H           -1.284964570469     1.407289894653    -0.810889631496     1.007825032230
         H            1.260982429531     1.324213894653     0.963926368504     1.007825032230
         H            1.273221429531     1.406059894653    -0.795975631496     1.007825032230
         H           -3.642433470469     0.603403794653     0.051916968504     1.007825032230
         H            2.595031429531    -0.967285105347     1.044193368504     1.007825032230

  Basis Set: AUG-CC-PVTZ
    Blend: AUG-CC-PVTZ
  Basis Set: (AUG-CC-PVTZ AUX)
    Blend: AUG-CC-PVTZ-JKFIT
	 Reference Energy          =    -913.3987928823232778 [Eh]
	 Singles Energy            =      -0.0000000000000000 [Eh]
	 Same-Spin Energy          =      -0.2363295941833285 [Eh]
	 Opposite-Spin Energy      =      -0.8012828143191398 [Eh]
	 Correlation Energy        =      -1.0376124085024683 [Eh]
	 Total Energy              =    -914.4364052908257463 [Eh]

	 ================> DF-SCS-MP2 Energies <==================
	-----------------------------------------------------------
	 SCS Same-Spin Scale       =       0.3333333333333333 [-]
	 SCS Opposite-Spin Scale   =       1.2000000000000000 [-]
	 SCS Same-Spin Energy      =      -0.0787765313944428 [Eh]
	 SCS Opposite-Spin Energy  =      -0.9615393771829678 [Eh]
	 SCS Correlation Energy    =      -1.0403159085774105 [Eh]
	 SCS Total Energy          =    -914.4391087909007183 [Eh]
	-----------------------------------------------------------

  Dipole Moment: [D]
     X:    -0.6070      Y:     1.6331      Z:     0.7003     Total:     1.8777

*** Psi4 exiting successfully. Buy a developer a beer!
