                               Psi4 1.4a3.dev225

  ==> Input File <==

--------------------------------------------------------------------------
#psi4
#
memory 32 gb

molecule  {
0 1
  S       -2.7284260    -0.3884000    -0.0211100
  S        2.7978210    -0.2715830    -0.0790280
  C       -0.0046620    -0.1691880    -0.0148200
  C       -1.2612500     0.6943380     0.0318360
  C        1.2550450     0.6870670     0.0425410
  H       -0.0123800    -0.8700300     0.8280760
  H        0.0049040    -0.7688230    -0.9305610
  H       -1.2743340     1.2878300     0.9503460
  H       -1.2752540     1.3771350    -0.8223080
  H        1.2706930     1.2940590     0.9525080
  H        1.2829320     1.3759050    -0.8073940
  H       -3.6121938     0.5514178     0.0391000
  H        2.6047420    -0.9974400     1.0327750
units angstrom
no_reorient  #important for SAPT in psi4, default
symmetry c1  #important for SAPT in psi4, default
}

set PROPERTIES_ORIGIN ["COM"]
properties('MP2/aug-cc-pvtz', properties = ['dipole'])
--------------------------------------------------------------------------

    Molecular point group: c1
  Charge       = 0
  Multiplicity = 1
  Basis Set: AUG-CC-PVTZ
    Blend: AUG-CC-PVTZ
  Basis Set: (AUG-CC-PVTZ AUX)
    Blend: AUG-CC-PVTZ-JKFIT

    Orbital Energies [Eh]
    ---------------------

    Doubly Occupied:

       1A    -91.956282     2A    -91.952294     3A    -11.270227
       4A    -11.269307     5A    -11.244074     6A     -8.957440
       7A     -8.954863     8A     -6.638784     9A     -6.637771
      10A     -6.636742    11A     -6.636350    12A     -6.635193
      13A     -6.634099    14A     -1.110037    15A     -1.038671
      16A     -0.949325    17A     -0.852877    18A     -0.814125
      19A     -0.670132    20A     -0.614612    21A     -0.595902
      22A     -0.566003    23A     -0.529699    24A     -0.517199
      25A     -0.499080    26A     -0.462507    27A     -0.447278
      28A     -0.362672    29A     -0.360065

  @DF-RHF Final Energy:  -913.39800728011926

   => Energetics <=

    Nuclear Repulsion Energy =            267.8179839344929860
    One-Electron Energy =               -1790.8047651166873493
    Two-Electron Energy =                 609.5887739020751042
    Total Energy =                       -913.3980072801192591
  Basis Set: (AUG-CC-PVTZ AUX)
    Blend: AUG-CC-PVTZ-RI
    Molecular point group: c1

    Geometry (in Angstrom), charge = 0, multiplicity = 1:

       Center              X                  Y                   Z               Mass
    ------------   -----------------  -----------------  -----------------  -----------------
         S           -2.738328130184    -0.358041396500    -0.009678580977    31.972071174400
         S            2.787918869816    -0.241224396500    -0.067596580977    31.972071174400
         C           -0.014564130184    -0.138829396500    -0.003388580977    12.000000000000
         C           -1.271152130184     0.724696603500     0.043267419023    12.000000000000
         C            1.245142869816     0.717425603500     0.053972419023    12.000000000000
         H           -0.022282130184    -0.839671396500     0.839507419023     1.007825032230
         H           -0.004998130184    -0.738464396500    -0.919129580977     1.007825032230
         H           -1.284236130184     1.318188603500     0.961777419023     1.007825032230
         H           -1.285156130184     1.407493603500    -0.810876580977     1.007825032230
         H            1.260790869816     1.324417603500     0.963939419023     1.007825032230
         H            1.273029869816     1.406263603500    -0.795962580977     1.007825032230
         H           -3.622095930184     0.581776403500     0.050531419023     1.007825032230
         H            2.594839869816    -0.967081396500     1.044206419023     1.007825032230

  Basis Set: AUG-CC-PVTZ
    Blend: AUG-CC-PVTZ
  Basis Set: (AUG-CC-PVTZ AUX)
    Blend: AUG-CC-PVTZ-JKFIT
	 Reference Energy          =    -913.3980072801192591 [Eh]
	 Singles Energy            =      -0.0000000000000000 [Eh]
	 Same-Spin Energy          =      -0.2363420379139671 [Eh]
	 Opposite-Spin Energy      =      -0.8011613019444204 [Eh]
	 Correlation Energy        =      -1.0375033398583875 [Eh]
	 Total Energy              =    -914.4355106199776628 [Eh]

	 ================> DF-SCS-MP2 Energies <==================
	-----------------------------------------------------------
	 SCS Same-Spin Scale       =       0.3333333333333333 [-]
	 SCS Opposite-Spin Scale   =       1.2000000000000000 [-]
	 SCS Same-Spin Energy      =      -0.0787806793046557 [Eh]
	 SCS Opposite-Spin Energy  =      -0.9613935623333044 [Eh]
	 SCS Correlation Energy    =      -1.0401742416379600 [Eh]
	 SCS Total Energy          =    -914.4381815217572012 [Eh]
	-----------------------------------------------------------

  Dipole Moment: [D]
     X:    -0.6117      Y:     1.6333      Z:     0.7003     Total:     1.8795

*** Psi4 exiting successfully. Buy a developer a beer!
