                               Psi4 1.3.2 release

  ==> Input File <==

--------------------------------------------------------------------------
#psi4
#
memory 32 gb

molecule  {
0 1
  S       -2.8337682    -0.2292186    -0.0129255
  S        2.7978520    -0.2715570    -0.0789790
  C       -0.0046350    -0.1692960    -0.0145170
  C       -1.2611610     0.6942450     0.0320770
  C        1.2550670     0.6870920     0.0422130
  H       -0.0121870    -0.8698730     0.8286010
  H        0.0048720    -0.7692750    -0.9300540
  H       -1.2744540     1.2874770     0.9507400
  H       -1.2751080     1.3772510    -0.8218930
  H        1.2709800     1.2945630     0.9518460
  H        1.2830650     1.3753670    -0.8081880
  H       -3.6465450     0.5877870     0.0421630
  H        2.6042880    -0.9975790     1.0326360
units angstrom
no_reorient  #important for SAPT in psi4, default
symmetry c1  #important for SAPT in psi4, default
}

set PROPERTIES_ORIGIN ["COM"]
properties('MP2/aug-cc-pvtz', properties = ['dipole'])
--------------------------------------------------------------------------

    Molecular point group: c1
  Charge       = 0
  Multiplicity = 1
  Basis Set: AUG-CC-PVTZ
    Blend: AUG-CC-PVTZ
  Basis Set: (AUG-CC-PVTZ AUX)
    Blend: AUG-CC-PVTZ-JKFIT

    Orbital Energies [Eh]
    ---------------------

    Doubly Occupied:

       1A    -91.958035     2A    -91.937792     3A    -11.272488
       4A    -11.271349     5A    -11.247610     6A     -8.959160
       7A     -8.945816     8A     -6.640500     9A     -6.639487
      10A     -6.638454    11A     -6.628189    12A     -6.625858
      13A     -6.624760    14A     -1.111217    15A     -1.045387
      16A     -0.963596    17A     -0.863251    18A     -0.816390
      19A     -0.671446    20A     -0.623899    21A     -0.597209
      22A     -0.572555    23A     -0.544325    24A     -0.519099
      25A     -0.501281    26A     -0.457653    27A     -0.442407
      28A     -0.363510    29A     -0.359364

  @DF-RHF Final Energy:  -913.37338936051526

   => Energetics <=

    Nuclear Repulsion Energy =            267.0892581531904852
    One-Electron Energy =               -1789.2411243545507205
    Two-Electron Energy =                 608.7784768408449736
    Total Energy =                       -913.3733893605152616
  Basis Set: (AUG-CC-PVTZ AUX)
    Blend: AUG-CC-PVTZ-RI
    Molecular point group: c1

    Geometry (in Angstrom), charge = 0, multiplicity = 1:

       Center              X                  Y                   Z               Mass
    ------------   -----------------  -----------------  -----------------  -----------------
         S           -2.812192415919    -0.246301679066    -0.003986230398    31.972071174400
         S            2.819427784081    -0.288640079066    -0.070039730398    31.972071174400
         C            0.016940784081    -0.186379079066    -0.005577730398    12.000000000000
         C           -1.239585215919     0.677161920934     0.041016269602    12.000000000000
         C            1.276642784081     0.670008920934     0.051152269602    12.000000000000
         H            0.009388784081    -0.886956079066     0.837540269602     1.007825032230
         H            0.026447784081    -0.786358079066    -0.921114730398     1.007825032230
         H           -1.252878215919     1.270393920934     0.959679269602     1.007825032230
         H           -1.253532215919     1.360167920934    -0.812953730398     1.007825032230
         H            1.292555784081     1.277479920934     0.960785269602     1.007825032230
         H            1.304640784081     1.358283920934    -0.799248730398     1.007825032230
         H           -3.624969215919     0.570703920934     0.051102269602     1.007825032230
         H            2.625863784081    -1.014662079066     1.041575269602     1.007825032230

  Basis Set: AUG-CC-PVTZ
    Blend: AUG-CC-PVTZ
  Basis Set: (AUG-CC-PVTZ AUX)
    Blend: AUG-CC-PVTZ-JKFIT
	 Reference Energy          =    -913.3733893605152616 [Eh]
	 Singles Energy            =      -0.0000000000000000 [Eh]
	 Same-Spin Energy          =      -0.2360177606288355 [Eh]
	 Opposite-Spin Energy      =      -0.8002961174923268 [Eh]
	 Correlation Energy        =      -1.0363138781211623 [Eh]
	 Total Energy              =    -914.4097032386364390 [Eh]

	 ================> DF-SCS-MP2 Energies <==================
	-----------------------------------------------------------
	 SCS Same-Spin Scale       =       0.3333333333333333 [-]
	 SCS Opposite-Spin Scale   =       1.2000000000000000 [-]
	 SCS Same-Spin Energy      =      -0.0786725868762785 [Eh]
	 SCS Opposite-Spin Energy  =      -0.9603553409907921 [Eh]
	 SCS Correlation Energy    =      -1.0390279278670707 [Eh]
	 SCS Total Energy          =    -914.4124172883823576 [Eh]
	-----------------------------------------------------------

  Dipole Moment: [D]
     X:    -0.3837      Y:     1.6579      Z:     0.7062     Total:     1.8424

*** Psi4 exiting successfully. Buy a developer a beer!
