                               Psi4 1.3.2 release

  ==> Input File <==

--------------------------------------------------------------------------
#psi4
#
memory 32 gb

molecule  {
0 1
  S       -2.7285110    -0.3883160    -0.0213010
  S        2.7978520    -0.2715570    -0.0789790
  C       -0.0046350    -0.1692960    -0.0145170
  C       -1.2802995     0.7196381     0.0336955
  C        1.2550670     0.6870920     0.0422130
  H       -0.0121870    -0.8698730     0.8286010
  H        0.0048720    -0.7692750    -0.9300540
  H       -1.2744540     1.2874770     0.9507400
  H       -1.2751080     1.3772510    -0.8218930
  H        1.2709800     1.2945630     0.9518460
  H        1.2830650     1.3753670    -0.8081880
  H       -3.6465450     0.5877870     0.0421630
  H        2.6042880    -0.9975790     1.0326360
units angstrom
no_reorient  #important for SAPT in psi4, default
symmetry c1  #important for SAPT in psi4, default
}

set PROPERTIES_ORIGIN ["COM"]
properties('MP2/aug-cc-pvtz', properties = ['dipole'])
--------------------------------------------------------------------------

    Molecular point group: c1
  Charge       = 0
  Multiplicity = 1
  Basis Set: AUG-CC-PVTZ
    Blend: AUG-CC-PVTZ
  Basis Set: (AUG-CC-PVTZ AUX)
    Blend: AUG-CC-PVTZ-JKFIT

    Orbital Energies [Eh]
    ---------------------

    Doubly Occupied:

       1A    -91.956545     2A    -91.956108     3A    -11.269960
       4A    -11.267980     5A    -11.245464     6A     -8.957668
       7A     -8.957273     8A     -6.639002     9A     -6.638616
      10A     -6.637985    11A     -6.637604    12A     -6.636933
      13A     -6.636575    14A     -1.106435    15A     -1.036902
      16A     -0.944300    17A     -0.850563    18A     -0.815193
      19A     -0.670190    20A     -0.609136    21A     -0.598567
      22A     -0.563167    23A     -0.525419    24A     -0.517446
      25A     -0.499177    26A     -0.462506    27A     -0.446179
      28A     -0.363022    29A     -0.360132

  @DF-RHF Final Energy:  -913.39799703644894

   => Energetics <=

    Nuclear Repulsion Energy =            267.1888217812053199
    One-Electron Energy =               -1789.5615462567459417
    Two-Electron Energy =                 608.9747274390915663
    Total Energy =                       -913.3979970364489418
  Basis Set: (AUG-CC-PVTZ AUX)
    Blend: AUG-CC-PVTZ-RI
    Molecular point group: c1

    Geometry (in Angstrom), charge = 0, multiplicity = 1:

       Center              X                  Y                   Z               Mass
    ------------   -----------------  -----------------  -----------------  -----------------
         S           -2.735967002401    -0.361124471009    -0.010062243568    31.972071174400
         S            2.790395997599    -0.244365471009    -0.067740243568    31.972071174400
         C           -0.012091002401    -0.142104471009    -0.003278243568    12.000000000000
         C           -1.287755502401     0.746829628991     0.044934256432    12.000000000000
         C            1.247610997599     0.714283528991     0.053451756432    12.000000000000
         H           -0.019643002401    -0.842681471009     0.839839756432     1.007825032230
         H           -0.002584002401    -0.742083471009    -0.918815243568     1.007825032230
         H           -1.281910002401     1.314668528991     0.961978756432     1.007825032230
         H           -1.282564002401     1.404442528991    -0.810654243568     1.007825032230
         H            1.263523997599     1.321754528991     0.963084756432     1.007825032230
         H            1.275608997599     1.402558528991    -0.796949243568     1.007825032230
         H           -3.654001002401     0.614978528991     0.053401756432     1.007825032230
         H            2.596831997599    -0.970387471009     1.043874756432     1.007825032230

  Basis Set: AUG-CC-PVTZ
    Blend: AUG-CC-PVTZ
  Basis Set: (AUG-CC-PVTZ AUX)
    Blend: AUG-CC-PVTZ-JKFIT
	 Reference Energy          =    -913.3979970364489418 [Eh]
	 Singles Energy            =      -0.0000000000000000 [Eh]
	 Same-Spin Energy          =      -0.2362229154790020 [Eh]
	 Opposite-Spin Energy      =      -0.8013891852964043 [Eh]
	 Correlation Energy        =      -1.0376121007754064 [Eh]
	 Total Energy              =    -914.4356091372243327 [Eh]

	 ================> DF-SCS-MP2 Energies <==================
	-----------------------------------------------------------
	 SCS Same-Spin Scale       =       0.3333333333333333 [-]
	 SCS Opposite-Spin Scale   =       1.2000000000000000 [-]
	 SCS Same-Spin Energy      =      -0.0787409718263340 [Eh]
	 SCS Opposite-Spin Energy  =      -0.9616670223556851 [Eh]
	 SCS Correlation Energy    =      -1.0404079941820190 [Eh]
	 SCS Total Energy          =    -914.4384050306309746 [Eh]
	-----------------------------------------------------------

  Dipole Moment: [D]
     X:    -0.6188      Y:     1.6255      Z:     0.7004     Total:     1.8750

*** Psi4 exiting successfully. Buy a developer a beer!
