                               Psi4 1.4a3.dev225

  ==> Input File <==

--------------------------------------------------------------------------
#psi4
#
memory 32 gb

molecule  {
0 1
  S       -2.7284260    -0.3884000    -0.0211100
  S        2.7978210    -0.2715830    -0.0790280
  C       -0.0046620    -0.1691880    -0.0148200
  C       -1.3014641     0.6646610     0.0303848
  C        1.2550450     0.6870670     0.0425410
  H       -0.0123800    -0.8700300     0.8280760
  H        0.0049040    -0.7688230    -0.9305610
  H       -1.2743340     1.2878300     0.9503460
  H       -1.2752540     1.3771350    -0.8223080
  H        1.2706930     1.2940590     0.9525080
  H        1.2829320     1.3759050    -0.8073940
  H       -3.6464090     0.5878030     0.0414310
  H        2.6047420    -0.9974400     1.0327750
units angstrom
no_reorient  #important for SAPT in psi4, default
symmetry c1  #important for SAPT in psi4, default
}

set PROPERTIES_ORIGIN ["COM"]
properties('MP2/aug-cc-pvtz', properties = ['dipole'])
--------------------------------------------------------------------------

    Molecular point group: c1
  Charge       = 0
  Multiplicity = 1
  Basis Set: AUG-CC-PVTZ
    Blend: AUG-CC-PVTZ
  Basis Set: (AUG-CC-PVTZ AUX)
    Blend: AUG-CC-PVTZ-JKFIT

    Orbital Energies [Eh]
    ---------------------

    Doubly Occupied:

       1A    -91.957331     2A    -91.956610     3A    -11.270408
       4A    -11.269323     5A    -11.244592     6A     -8.959199
       7A     -8.957740     8A     -6.640597     9A     -6.639615
      10A     -6.639082    11A     -6.638486    12A     -6.638068
      13A     -6.637038    14A     -1.108725    15A     -1.042057
      16A     -0.947729    17A     -0.848698    18A     -0.809612
      19A     -0.666606    20A     -0.615178    21A     -0.592036
      22A     -0.561594    23A     -0.531013    24A     -0.514529
      25A     -0.497234    26A     -0.462837    27A     -0.450425
      28A     -0.362492    29A     -0.359655

  @DF-RHF Final Energy:  -913.39614986694221

   => Energetics <=

    Nuclear Repulsion Energy =            267.8457901471086302
    One-Electron Energy =               -1790.8468650013776369
    Two-Electron Energy =                 609.6049249873268536
    Total Energy =                       -913.3961498669422099
  Basis Set: (AUG-CC-PVTZ AUX)
    Blend: AUG-CC-PVTZ-RI
    Molecular point group: c1

    Geometry (in Angstrom), charge = 0, multiplicity = 1:

       Center              X                  Y                   Z               Mass
    ------------   -----------------  -----------------  -----------------  -----------------
         S           -2.733540909289    -0.355083672964    -0.009539097464    31.972071174400
         S            2.792706090711    -0.238266672964    -0.067457097464    31.972071174400
         C           -0.009776909289    -0.135871672964    -0.003249097464    12.000000000000
         C           -1.306579009289     0.697977327036     0.041955702536    12.000000000000
         C            1.249930090711     0.720383327036     0.054111902536    12.000000000000
         H           -0.017494909289    -0.836713672964     0.839646902536     1.007825032230
         H           -0.000210909289    -0.735506672964    -0.918990097464     1.007825032230
         H           -1.279448909289     1.321146327036     0.961916902536     1.007825032230
         H           -1.280368909289     1.410451327036    -0.810737097464     1.007825032230
         H            1.265578090711     1.327375327036     0.964078902536     1.007825032230
         H            1.277817090711     1.409221327036    -0.795823097464     1.007825032230
         H           -3.651523909289     0.621119327036     0.053001902536     1.007825032230
         H            2.599627090711    -0.964123672964     1.044345902536     1.007825032230

  Basis Set: AUG-CC-PVTZ
    Blend: AUG-CC-PVTZ
  Basis Set: (AUG-CC-PVTZ AUX)
    Blend: AUG-CC-PVTZ-JKFIT
	 Reference Energy          =    -913.3961498669422099 [Eh]
	 Singles Energy            =      -0.0000000000000000 [Eh]
	 Same-Spin Energy          =      -0.2365652039524585 [Eh]
	 Opposite-Spin Energy      =      -0.8016286483382455 [Eh]
	 Correlation Energy        =      -1.0381938522907039 [Eh]
	 Total Energy              =    -914.4343437192329702 [Eh]

	 ================> DF-SCS-MP2 Energies <==================
	-----------------------------------------------------------
	 SCS Same-Spin Scale       =       0.3333333333333333 [-]
	 SCS Opposite-Spin Scale   =       1.2000000000000000 [-]
	 SCS Same-Spin Energy      =      -0.0788550679841528 [Eh]
	 SCS Opposite-Spin Energy  =      -0.9619543780058946 [Eh]
	 SCS Correlation Energy    =      -1.0408094459900474 [Eh]
	 SCS Total Energy          =    -914.4369593129322311 [Eh]
	-----------------------------------------------------------

  Dipole Moment: [D]
     X:    -0.6592      Y:     1.5900      Z:     0.6987     Total:     1.8577

*** Psi4 exiting successfully. Buy a developer a beer!
