                               Psi4 1.4a3.dev225

  ==> Input File <==

--------------------------------------------------------------------------
#psi4
#
memory 32 gb

molecule  {
0 1
  S       -2.7284260    -0.3884000    -0.0211100
  S        2.7978210    -0.2715830    -0.0790280
  C       -0.0046620    -0.1691880    -0.0148200
  C       -1.2612500     0.6943380     0.0318360
  C        1.2550450     0.6870670     0.0425410
  H       -0.0123800    -0.8700300     0.8280760
  H        0.0049040    -0.7688230    -0.9305610
  H       -1.2743340     1.2878300     0.9503460
  H       -1.2752540     1.3771350    -0.8223080
  H        1.2706930     1.2940590     0.9525080
  H        1.2829320     1.3759050    -0.8073940
  H       -3.6806242     0.6241882     0.0437620
  H        2.6047420    -0.9974400     1.0327750
units angstrom
no_reorient  #important for SAPT in psi4, default
symmetry c1  #important for SAPT in psi4, default
}

set PROPERTIES_ORIGIN ["COM"]
properties('MP2/aug-cc-pvtz', properties = ['dipole'])
--------------------------------------------------------------------------

    Molecular point group: c1
  Charge       = 0
  Multiplicity = 1
  Basis Set: AUG-CC-PVTZ
    Blend: AUG-CC-PVTZ
  Basis Set: (AUG-CC-PVTZ AUX)
    Blend: AUG-CC-PVTZ-JKFIT

    Orbital Energies [Eh]
    ---------------------

    Doubly Occupied:

       1A    -91.960089     2A    -91.956460     3A    -11.270490
       4A    -11.269422     5A    -11.244385     6A     -8.960087
       7A     -8.957617     8A     -6.641315     9A     -6.640404
      10A     -6.639380    11A     -6.638961    12A     -6.637948
      13A     -6.636918    14A     -1.109627    15A     -1.035843
      16A     -0.943219    17A     -0.847963    18A     -0.813273
      19A     -0.670300    20A     -0.608469    21A     -0.595741
      22A     -0.565601    23A     -0.523207    24A     -0.517345
      25A     -0.499146    26A     -0.460141    27A     -0.447306
      28A     -0.362576    29A     -0.360012

  @DF-RHF Final Energy:  -913.39695577360953

   => Energetics <=

    Nuclear Repulsion Energy =            267.2520624071473776
    One-Electron Energy =               -1789.6715461932249127
    Two-Electron Energy =                 609.0225280124680012
    Total Energy =                       -913.3969557736095339
  Basis Set: (AUG-CC-PVTZ AUX)
    Blend: AUG-CC-PVTZ-RI
    Molecular point group: c1

    Geometry (in Angstrom), charge = 0, multiplicity = 1:

       Center              X                  Y                   Z               Mass
    ------------   -----------------  -----------------  -----------------  -----------------
         S           -2.737689597178    -0.358720426613    -0.009722082708    31.972071174400
         S            2.788557402822    -0.241903426613    -0.067640082708    31.972071174400
         C           -0.013925597178    -0.139508426613    -0.003432082708    12.000000000000
         C           -1.270513597178     0.724017573387     0.043223917292    12.000000000000
         C            1.245781402822     0.716746573387     0.053928917292    12.000000000000
         H           -0.021643597178    -0.840350426613     0.839463917292     1.007825032230
         H           -0.004359597178    -0.739143426613    -0.919173082708     1.007825032230
         H           -1.283597597178     1.317509573387     0.961733917292     1.007825032230
         H           -1.284517597178     1.406814573387    -0.810920082708     1.007825032230
         H            1.261429402822     1.323738573387     0.963895917292     1.007825032230
         H            1.273668402822     1.405584573387    -0.796006082708     1.007825032230
         H           -3.689887797178     0.653867773387     0.055149917292     1.007825032230
         H            2.595478402822    -0.967760426613     1.044162917292     1.007825032230

  Basis Set: AUG-CC-PVTZ
    Blend: AUG-CC-PVTZ
  Basis Set: (AUG-CC-PVTZ AUX)
    Blend: AUG-CC-PVTZ-JKFIT
	 Reference Energy          =    -913.3969557736095339 [Eh]
	 Singles Energy            =      -0.0000000000000000 [Eh]
	 Same-Spin Energy          =      -0.2363168930100168 [Eh]
	 Opposite-Spin Energy      =      -0.8016817335205632 [Eh]
	 Correlation Energy        =      -1.0379986265305798 [Eh]
	 Total Energy              =    -914.4349544001401000 [Eh]

	 ================> DF-SCS-MP2 Energies <==================
	-----------------------------------------------------------
	 SCS Same-Spin Scale       =       0.3333333333333333 [-]
	 SCS Opposite-Spin Scale   =       1.2000000000000000 [-]
	 SCS Same-Spin Energy      =      -0.0787722976700056 [Eh]
	 SCS Opposite-Spin Energy  =      -0.9620180802246757 [Eh]
	 SCS Correlation Energy    =      -1.0407903778946812 [Eh]
	 SCS Total Energy          =    -914.4377461515042569 [Eh]
	-----------------------------------------------------------

  Dipole Moment: [D]
     X:    -0.5930      Y:     1.6316      Z:     0.7002     Total:     1.8719

*** Psi4 exiting successfully. Buy a developer a beer!
