                               Psi4 1.4a3.dev225

  ==> Input File <==

--------------------------------------------------------------------------
#psi4
#
memory 32 gb

molecule  {
0 1
  S       -2.7284260    -0.3884000    -0.0211100
  S        2.7978210    -0.2715830    -0.0790280
  C       -0.0046620    -0.1691880    -0.0148200
  C       -1.2210359     0.7240150     0.0332872
  C        1.2550450     0.6870670     0.0425410
  H       -0.0123800    -0.8700300     0.8280760
  H        0.0049040    -0.7688230    -0.9305610
  H       -1.2743340     1.2878300     0.9503460
  H       -1.2752540     1.3771350    -0.8223080
  H        1.2706930     1.2940590     0.9525080
  H        1.2829320     1.3759050    -0.8073940
  H       -3.6464090     0.5878030     0.0414310
  H        2.6047420    -0.9974400     1.0327750
units angstrom
no_reorient  #important for SAPT in psi4, default
symmetry c1  #important for SAPT in psi4, default
}

set PROPERTIES_ORIGIN ["COM"]
properties('MP2/aug-cc-pvtz', properties = ['dipole'])
--------------------------------------------------------------------------

    Molecular point group: c1
  Charge       = 0
  Multiplicity = 1
  Basis Set: AUG-CC-PVTZ
    Blend: AUG-CC-PVTZ
  Basis Set: (AUG-CC-PVTZ AUX)
    Blend: AUG-CC-PVTZ-JKFIT

    Orbital Energies [Eh]
    ---------------------

    Doubly Occupied:

       1A    -91.956263     2A    -91.954757     3A    -11.270517
       4A    -11.270198     5A    -11.244283     6A     -8.957447
       7A     -8.955420     8A     -6.638792     9A     -6.637781
      10A     -6.636752    11A     -6.636711    12A     -6.635689
      13A     -6.634688    14A     -1.111692    15A     -1.033086
      16A     -0.943994    17A     -0.852009    18A     -0.817508
      19A     -0.674391    20A     -0.608540    21A     -0.599658
      22A     -0.570854    23A     -0.522531    24A     -0.520337
      25A     -0.501238    26A     -0.461089    27A     -0.440558
      28A     -0.362391    29A     -0.359988

  @DF-RHF Final Energy:  -913.39754837213297

   => Energetics <=

    Nuclear Repulsion Energy =            267.2342670913017741
    One-Electron Energy =               -1789.6453026717654211
    Two-Electron Energy =                 609.0134872083307300
    Total Energy =                       -913.3975483721329738
  Basis Set: (AUG-CC-PVTZ AUX)
    Blend: AUG-CC-PVTZ-RI
    Molecular point group: c1

    Geometry (in Angstrom), charge = 0, multiplicity = 1:

       Center              X                  Y                   Z               Mass
    ------------   -----------------  -----------------  -----------------  -----------------
         S           -2.742476818073    -0.361678150149    -0.009861566221    31.972071174400
         S            2.783770181927    -0.244861150149    -0.067779566221    31.972071174400
         C           -0.018712818073    -0.142466150149    -0.003571566221    12.000000000000
         C           -1.235086718073     0.750736849851     0.044535633779    12.000000000000
         C            1.240994181927     0.713788849851     0.053789433779    12.000000000000
         H           -0.026430818073    -0.843308150149     0.839324433779     1.007825032230
         H           -0.009146818073    -0.742101150149    -0.919312566221     1.007825032230
         H           -1.288384818073     1.314551849851     0.961594433779     1.007825032230
         H           -1.289304818073     1.403856849851    -0.811059566221     1.007825032230
         H            1.256642181927     1.320780849851     0.963756433779     1.007825032230
         H            1.268881181927     1.402626849851    -0.796145566221     1.007825032230
         H           -3.660459818073     0.614524849851     0.052679433779     1.007825032230
         H            2.590691181927    -0.970718150149     1.044023433779     1.007825032230

  Basis Set: AUG-CC-PVTZ
    Blend: AUG-CC-PVTZ
  Basis Set: (AUG-CC-PVTZ AUX)
    Blend: AUG-CC-PVTZ-JKFIT
	 Reference Energy          =    -913.3975483721329738 [Eh]
	 Singles Energy            =      -0.0000000000000000 [Eh]
	 Same-Spin Energy          =      -0.2362527090634883 [Eh]
	 Opposite-Spin Energy      =      -0.8014078330194423 [Eh]
	 Correlation Energy        =      -1.0376605420829306 [Eh]
	 Total Energy              =    -914.4352089142158775 [Eh]

	 ================> DF-SCS-MP2 Energies <==================
	-----------------------------------------------------------
	 SCS Same-Spin Scale       =       0.3333333333333333 [-]
	 SCS Opposite-Spin Scale   =       1.2000000000000000 [-]
	 SCS Same-Spin Energy      =      -0.0787509030211627 [Eh]
	 SCS Opposite-Spin Energy  =      -0.9616893996233307 [Eh]
	 SCS Correlation Energy    =      -1.0404403026444935 [Eh]
	 SCS Total Energy          =    -914.4379886747774435 [Eh]
	-----------------------------------------------------------

  Dipole Moment: [D]
     X:    -0.5361      Y:     1.6735      Z:     0.7018     Total:     1.8923

*** Psi4 exiting successfully. Buy a developer a beer!
