                               Psi4 1.4a3.dev225

  ==> Input File <==

--------------------------------------------------------------------------
#psi4
#
memory 32 gb

molecule  {
0 1
  O       -0.1816510    -0.4579540    -0.0000570
  O        1.1902550     1.3536590     0.0000010
  C       -1.3061740     0.4550410     0.0000250
  C       -2.5549650    -0.3967600     0.0000230
  C        0.9906470     0.1216478    -0.0000454
  C        2.1329650    -0.8861250     0.0000100
  H       -1.2416190     1.0963160     0.8832990
  H       -1.2416760     1.0964030    -0.8831890
  H       -3.4421510     0.2427570     0.0000820
  H       -2.5852380    -1.0333410    -0.8867630
  H       -2.5851830    -1.0334280     0.8867480
  H        2.0420880    -1.5247240    -0.8817090
  H        2.0428830    -1.5236850     0.8825710
  H        3.0983080    -0.3817210    -0.0006790
units angstrom
no_reorient  #important for SAPT in psi4, default
symmetry c1  #important for SAPT in psi4, default
}

set PROPERTIES_ORIGIN ["COM"]
properties('MP2/aug-cc-pvtz', properties = ['dipole'])
--------------------------------------------------------------------------

    Molecular point group: c1
  Charge       = 0
  Multiplicity = 1
  Basis Set: AUG-CC-PVTZ
    Blend: AUG-CC-PVTZ
  Basis Set: (AUG-CC-PVTZ AUX)
    Blend: AUG-CC-PVTZ-JKFIT

    Orbital Energies [Eh]
    ---------------------

    Doubly Occupied:

       1A    -20.613503     2A    -20.534504     3A    -11.381502
       4A    -11.294360     5A    -11.239562     6A    -11.229058
       7A     -1.469252     8A     -1.337136     9A     -1.060065
      10A     -0.997297    11A     -0.871205    12A     -0.788818
      13A     -0.692033    14A     -0.681513    15A     -0.666671
      16A     -0.607774    17A     -0.576185    18A     -0.562043
      19A     -0.554615    20A     -0.539127    21A     -0.518131
      22A     -0.498616    23A     -0.455662    24A     -0.439624

  @DF-RHF Final Energy:  -305.98757826310890

   => Energetics <=

    Nuclear Repulsion Energy =            243.5007854872859809
    One-Electron Energy =                -899.7602143558464149
    Two-Electron Energy =                 350.2718506054515615
    Total Energy =                       -305.9875782631089010
  Basis Set: (AUG-CC-PVTZ AUX)
    Blend: AUG-CC-PVTZ-RI
    Molecular point group: c1

    Geometry (in Angstrom), charge = 0, multiplicity = 1:

       Center              X                  Y                   Z               Mass
    ------------   -----------------  -----------------  -----------------  -----------------
         O           -0.219571665640    -0.489378367067    -0.000052665103    15.994914619570
         O            1.152334334360     1.322234632933     0.000005334897    15.994914619570
         C           -1.344094665640     0.423616632933     0.000029334897    12.000000000000
         C           -2.592885665640    -0.428184367067     0.000027334897    12.000000000000
         C            0.952726334360     0.090223432933    -0.000041065103    12.000000000000
         C            2.095044334360    -0.917549367067     0.000014334897    12.000000000000
         H           -1.279539665640     1.064891632933     0.883303334897     1.007825032230
         H           -1.279596665640     1.064978632933    -0.883184665103     1.007825032230
         H           -3.480071665640     0.211332632933     0.000086334897     1.007825032230
         H           -2.623158665640    -1.064765367067    -0.886758665103     1.007825032230
         H           -2.623103665640    -1.064852367067     0.886752334897     1.007825032230
         H            2.004167334360    -1.556148367067    -0.881704665103     1.007825032230
         H            2.004962334360    -1.555109367067     0.882575334897     1.007825032230
         H            3.060387334360    -0.413145367067    -0.000674665103     1.007825032230

  Basis Set: AUG-CC-PVTZ
    Blend: AUG-CC-PVTZ
  Basis Set: (AUG-CC-PVTZ AUX)
    Blend: AUG-CC-PVTZ-JKFIT
	 Reference Energy          =    -305.9875782631089010 [Eh]
	 Singles Energy            =      -0.0000000000000000 [Eh]
	 Same-Spin Energy          =      -0.2973279079981244 [Eh]
	 Opposite-Spin Energy      =      -0.9763510663906031 [Eh]
	 Correlation Energy        =      -1.2736789743887276 [Eh]
	 Total Energy              =    -307.2612572374976025 [Eh]

	 ================> DF-SCS-MP2 Energies <==================
	-----------------------------------------------------------
	 SCS Same-Spin Scale       =       0.3333333333333333 [-]
	 SCS Opposite-Spin Scale   =       1.2000000000000000 [-]
	 SCS Same-Spin Energy      =      -0.0991093026660415 [Eh]
	 SCS Opposite-Spin Energy  =      -1.1716212796687238 [Eh]
	 SCS Correlation Energy    =      -1.2707305823347652 [Eh]
	 SCS Total Energy          =    -307.2583088454436506 [Eh]
	-----------------------------------------------------------

  Dipole Moment: [D]
     X:    -1.4315      Y:    -1.8456      Z:     0.0001     Total:     2.3357

*** Psi4 exiting successfully. Buy a developer a beer!
