                               Psi4 1.3.2 release

  ==> Input File <==

--------------------------------------------------------------------------
#psi4
#
memory 32 gb

molecule  {
0 1
  O       -0.2019030    -0.4153477    -0.0001594
  O        1.1902440     1.3536890     0.0000850
  C       -1.3062030     0.4550440     0.0000220
  C       -2.5549260    -0.3966560     0.0000690
  C        1.0354490     0.1438350    -0.0001700
  C        2.1329550    -0.8859990     0.0000420
  H       -1.2412540     1.0963570     0.8832990
  H       -1.2414110     1.0964890    -0.8831720
  H       -3.4424010     0.2425350     0.0001940
  H       -2.5849670    -1.0330240    -0.8868250
  H       -2.5848130    -1.0331530     0.8868760
  H        2.0416630    -1.5248420    -0.8815190
  H        2.0422710    -1.5237540     0.8824640
  H        3.0983910    -0.3819430    -0.0005520
units angstrom
no_reorient  #important for SAPT in psi4, default
symmetry c1  #important for SAPT in psi4, default
}

set PROPERTIES_ORIGIN ["COM"]
properties('MP2/aug-cc-pvtz', properties = ['dipole'])
--------------------------------------------------------------------------

    Molecular point group: c1
  Charge       = 0
  Multiplicity = 1
  Basis Set: AUG-CC-PVTZ
    Blend: AUG-CC-PVTZ
  Basis Set: (AUG-CC-PVTZ AUX)
    Blend: AUG-CC-PVTZ-JKFIT

    Orbital Energies [Eh]
    ---------------------

    Doubly Occupied:

       1A    -20.598729     2A    -20.543600     3A    -11.383522
       4A    -11.283324     5A    -11.245217     6A    -11.223318
       7A     -1.458386     8A     -1.353639     9A     -1.055672
      10A     -1.002057    11A     -0.867029    12A     -0.780326
      13A     -0.691154    14A     -0.687049    15A     -0.663903
      16A     -0.608875    17A     -0.581925    18A     -0.565330
      19A     -0.552276    20A     -0.542177    21A     -0.505988
      22A     -0.499345    23A     -0.453396    24A     -0.447949

  @DF-RHF Final Energy:  -305.99128250507971

   => Energetics <=

    Nuclear Repulsion Energy =            243.8718667390040480
    One-Electron Energy =                -900.5379288908602575
    Two-Electron Energy =                 350.6747796467764715
    Total Energy =                       -305.9912825050797096
  Basis Set: (AUG-CC-PVTZ AUX)
    Blend: AUG-CC-PVTZ-RI
    Molecular point group: c1

    Geometry (in Angstrom), charge = 0, multiplicity = 1:

       Center              X                  Y                   Z               Mass
    ------------   -----------------  -----------------  -----------------  -----------------
         O           -0.242249340554    -0.457573530153    -0.000149598618    15.994914619570
         O            1.149897659446     1.311463169847     0.000094801382    15.994914619570
         C           -1.346549340554     0.412818169847     0.000031801382    12.000000000000
         C           -2.595272340554    -0.438881830153     0.000078801382    12.000000000000
         C            0.995102659446     0.101609169847    -0.000160198618    12.000000000000
         C            2.092608659446    -0.928224830153     0.000051801382    12.000000000000
         H           -1.281600340554     1.054131169847     0.883308801382     1.007825032230
         H           -1.281757340554     1.054263169847    -0.883162198618     1.007825032230
         H           -3.482747340554     0.200309169847     0.000203801382     1.007825032230
         H           -2.625313340554    -1.075249830153    -0.886815198618     1.007825032230
         H           -2.625159340554    -1.075378830153     0.886885801382     1.007825032230
         H            2.001316659446    -1.567067830153    -0.881509198618     1.007825032230
         H            2.001924659446    -1.565979830153     0.882473801382     1.007825032230
         H            3.058044659446    -0.424168830153    -0.000542198618     1.007825032230

  Basis Set: AUG-CC-PVTZ
    Blend: AUG-CC-PVTZ
  Basis Set: (AUG-CC-PVTZ AUX)
    Blend: AUG-CC-PVTZ-JKFIT
	 Reference Energy          =    -305.9912825050797096 [Eh]
	 Singles Energy            =      -0.0000000000000000 [Eh]
	 Same-Spin Energy          =      -0.2969648536993247 [Eh]
	 Opposite-Spin Energy      =      -0.9751397385296117 [Eh]
	 Correlation Energy        =      -1.2721045922289362 [Eh]
	 Total Energy              =    -307.2633870973086232 [Eh]

	 ================> DF-SCS-MP2 Energies <==================
	-----------------------------------------------------------
	 SCS Same-Spin Scale       =       0.3333333333333333 [-]
	 SCS Opposite-Spin Scale   =       1.2000000000000000 [-]
	 SCS Same-Spin Energy      =      -0.0989882845664416 [Eh]
	 SCS Opposite-Spin Energy  =      -1.1701676862355339 [Eh]
	 SCS Correlation Energy    =      -1.2691559708019755 [Eh]
	 SCS Total Energy          =    -307.2604384758816991 [Eh]
	-----------------------------------------------------------

  Dipole Moment: [D]
     X:    -0.8182      Y:    -1.8026      Z:     0.0000     Total:     1.9796

*** Psi4 exiting successfully. Buy a developer a beer!
