                               Psi4 1.4a3.dev225

  ==> Input File <==

--------------------------------------------------------------------------
#psi4
#
memory 32 gb

molecule  {
0 1
  O       -0.1816510    -0.4579540    -0.0000570
  O        1.1902550     1.3536590     0.0000010
  C       -1.3449912     0.4865565     0.0000278
  C       -2.5549650    -0.3967600     0.0000230
  C        1.0354680     0.1438080    -0.0000450
  C        2.1329650    -0.8861250     0.0000100
  H       -1.2416190     1.0963160     0.8832990
  H       -1.2416760     1.0964030    -0.8831890
  H       -3.4421510     0.2427570     0.0000820
  H       -2.5852380    -1.0333410    -0.8867630
  H       -2.5851830    -1.0334280     0.8867480
  H        2.0420880    -1.5247240    -0.8817090
  H        2.0428830    -1.5236850     0.8825710
  H        3.0983080    -0.3817210    -0.0006790
units angstrom
no_reorient  #important for SAPT in psi4, default
symmetry c1  #important for SAPT in psi4, default
}

set PROPERTIES_ORIGIN ["COM"]
properties('MP2/aug-cc-pvtz', properties = ['dipole'])
--------------------------------------------------------------------------

    Molecular point group: c1
  Charge       = 0
  Multiplicity = 1
  Basis Set: AUG-CC-PVTZ
    Blend: AUG-CC-PVTZ
  Basis Set: (AUG-CC-PVTZ AUX)
    Blend: AUG-CC-PVTZ-JKFIT

    Orbital Energies [Eh]
    ---------------------

    Doubly Occupied:

       1A    -20.595110     2A    -20.540498     3A    -11.378264
       4A    -11.290025     5A    -11.239289     6A    -11.226843
       7A     -1.440341     8A     -1.343082     9A     -1.055358
      10A     -1.001007    11A     -0.861404    12A     -0.774056
      13A     -0.683742    14A     -0.679844    15A     -0.656439
      16A     -0.610627    17A     -0.577080    18A     -0.566312
      19A     -0.548777    20A     -0.532898    21A     -0.515714
      22A     -0.504208    23A     -0.458658    24A     -0.443242

  @DF-RHF Final Energy:  -305.98808304164385

   => Energetics <=

    Nuclear Repulsion Energy =            242.4808352951844199
    One-Electron Energy =                -897.8922059698351177
    Two-Electron Energy =                 349.4232876330068507
    Total Energy =                       -305.9880830416438471
  Basis Set: (AUG-CC-PVTZ AUX)
    Blend: AUG-CC-PVTZ-RI
    Molecular point group: c1

    Geometry (in Angstrom), charge = 0, multiplicity = 1:

       Center              X                  Y                   Z               Mass
    ------------   -----------------  -----------------  -----------------  -----------------
         O           -0.220389878157    -0.496693422469    -0.000053101207    15.994914619570
         O            1.151516121843     1.314919577531     0.000004898793    15.994914619570
         C           -1.383730078157     0.447817077531     0.000031698793    12.000000000000
         C           -2.593703878157    -0.435499422469     0.000026898793    12.000000000000
         C            0.996729121843     0.105068577531    -0.000041101207    12.000000000000
         C            2.094226121843    -0.924864422469     0.000013898793    12.000000000000
         H           -1.280357878157     1.057576577531     0.883302898793     1.007825032230
         H           -1.280414878157     1.057663577531    -0.883185101207     1.007825032230
         H           -3.480889878157     0.204017577531     0.000085898793     1.007825032230
         H           -2.623976878157    -1.072080422469    -0.886759101207     1.007825032230
         H           -2.623921878157    -1.072167422469     0.886751898793     1.007825032230
         H            2.003349121843    -1.563463422469    -0.881705101207     1.007825032230
         H            2.004144121843    -1.562424422469     0.882574898793     1.007825032230
         H            3.059569121843    -0.420460422469    -0.000675101207     1.007825032230

  Basis Set: AUG-CC-PVTZ
    Blend: AUG-CC-PVTZ
  Basis Set: (AUG-CC-PVTZ AUX)
    Blend: AUG-CC-PVTZ-JKFIT
	 Reference Energy          =    -305.9880830416438471 [Eh]
	 Singles Energy            =      -0.0000000000000000 [Eh]
	 Same-Spin Energy          =      -0.2974107220088007 [Eh]
	 Opposite-Spin Energy      =      -0.9769606182011128 [Eh]
	 Correlation Energy        =      -1.2743713402099135 [Eh]
	 Total Energy              =    -307.2624543818537859 [Eh]

	 ================> DF-SCS-MP2 Energies <==================
	-----------------------------------------------------------
	 SCS Same-Spin Scale       =       0.3333333333333333 [-]
	 SCS Opposite-Spin Scale   =       1.2000000000000000 [-]
	 SCS Same-Spin Energy      =      -0.0991369073362669 [Eh]
	 SCS Opposite-Spin Energy  =      -1.1723527418413353 [Eh]
	 SCS Correlation Energy    =      -1.2714896491776022 [Eh]
	 SCS Total Energy          =    -307.2595726908214715 [Eh]
	-----------------------------------------------------------

  Dipole Moment: [D]
     X:    -1.1883      Y:    -1.6267      Z:     0.0001     Total:     2.0145

*** Psi4 exiting successfully. Buy a developer a beer!
