                               Psi4 1.3.2 release

  ==> Input File <==

--------------------------------------------------------------------------
#psi4
#
memory 32 gb

molecule  {
0 1
  O       -0.2141905    -0.4968806    -0.0001521
  O        1.1902440     1.3536890     0.0000850
  C       -1.3062030     0.4550440     0.0000220
  C       -2.5549260    -0.3966560     0.0000690
  C        1.0354490     0.1438350    -0.0001700
  C        2.1329550    -0.8859990     0.0000420
  H       -1.2412540     1.0963570     0.8832990
  H       -1.2414110     1.0964890    -0.8831720
  H       -3.4424010     0.2425350     0.0001940
  H       -2.5849670    -1.0330240    -0.8868250
  H       -2.5848130    -1.0331530     0.8868760
  H        2.0416630    -1.5248420    -0.8815190
  H        2.0422710    -1.5237540     0.8824640
  H        3.0983910    -0.3819430    -0.0005520
units angstrom
no_reorient  #important for SAPT in psi4, default
symmetry c1  #important for SAPT in psi4, default
}

set PROPERTIES_ORIGIN ["COM"]
properties('MP2/aug-cc-pvtz', properties = ['dipole'])
--------------------------------------------------------------------------

    Molecular point group: c1
  Charge       = 0
  Multiplicity = 1
  Basis Set: AUG-CC-PVTZ
    Blend: AUG-CC-PVTZ
  Basis Set: (AUG-CC-PVTZ AUX)
    Blend: AUG-CC-PVTZ-JKFIT

    Orbital Energies [Eh]
    ---------------------

    Doubly Occupied:

       1A    -20.599935     2A    -20.553477     3A    -11.388354
       4A    -11.284824     5A    -11.243915     6A    -11.221608
       7A     -1.439278     8A     -1.353362     9A     -1.049594
      10A     -1.000266    11A     -0.854143    12A     -0.777853
      13A     -0.690457    14A     -0.676736    15A     -0.657660
      16A     -0.608352    17A     -0.580826    18A     -0.566767
      19A     -0.547571    20A     -0.532474    21A     -0.512723
      22A     -0.500925    23A     -0.460153    24A     -0.449161

  @DF-RHF Final Energy:  -305.98497881328007

   => Energetics <=

    Nuclear Repulsion Energy =            242.2607508403615100
    One-Electron Energy =                -897.3906341050508217
    Two-Electron Energy =                 349.1449044514092179
    Total Energy =                       -305.9849788132800654
  Basis Set: (AUG-CC-PVTZ AUX)
    Blend: AUG-CC-PVTZ-RI
    Molecular point group: c1

    Geometry (in Angstrom), charge = 0, multiplicity = 1:

       Center              X                  Y                   Z               Mass
    ------------   -----------------  -----------------  -----------------  -----------------
         O           -0.252304789553    -0.524295802193    -0.000143624679    15.994914619570
         O            1.152129710447     1.326273797807     0.000093475321    15.994914619570
         C           -1.344317289553     0.427628797807     0.000030475321    12.000000000000
         C           -2.593040289553    -0.424071202193     0.000077475321    12.000000000000
         C            0.997334710447     0.116419797807    -0.000161524679    12.000000000000
         C            2.094840710447    -0.913414202193     0.000050475321    12.000000000000
         H           -1.279368289553     1.068941797807     0.883307475321     1.007825032230
         H           -1.279525289553     1.069073797807    -0.883163524679     1.007825032230
         H           -3.480515289553     0.215119797807     0.000202475321     1.007825032230
         H           -2.623081289553    -1.060439202193    -0.886816524679     1.007825032230
         H           -2.622927289553    -1.060568202193     0.886884475321     1.007825032230
         H            2.003548710447    -1.552257202193    -0.881510524679     1.007825032230
         H            2.004156710447    -1.551169202193     0.882472475321     1.007825032230
         H            3.060276710447    -0.409358202193    -0.000543524679     1.007825032230

  Basis Set: AUG-CC-PVTZ
    Blend: AUG-CC-PVTZ
  Basis Set: (AUG-CC-PVTZ AUX)
    Blend: AUG-CC-PVTZ-JKFIT
	 Reference Energy          =    -305.9849788132800654 [Eh]
	 Singles Energy            =      -0.0000000000000000 [Eh]
	 Same-Spin Energy          =      -0.2980536272577032 [Eh]
	 Opposite-Spin Energy      =      -0.9785951440558449 [Eh]
	 Correlation Energy        =      -1.2766487713135481 [Eh]
	 Total Energy              =    -307.2616275845936116 [Eh]

	 ================> DF-SCS-MP2 Energies <==================
	-----------------------------------------------------------
	 SCS Same-Spin Scale       =       0.3333333333333333 [-]
	 SCS Opposite-Spin Scale   =       1.2000000000000000 [-]
	 SCS Same-Spin Energy      =      -0.0993512090859011 [Eh]
	 SCS Opposite-Spin Energy  =      -1.1743141728670139 [Eh]
	 SCS Correlation Energy    =      -1.2736653819529149 [Eh]
	 SCS Total Energy          =    -307.2586441952329892 [Eh]
	-----------------------------------------------------------

  Dipole Moment: [D]
     X:    -0.6846      Y:    -1.5351      Z:     0.0001     Total:     1.6808

*** Psi4 exiting successfully. Buy a developer a beer!
