                               Psi4 1.3.2 release

  ==> Input File <==

--------------------------------------------------------------------------
#psi4
#
memory 32 gb

molecule  {
0 1
  O       -0.1735033    -0.4478318     0.0214320
  O        1.1902440     1.3536890     0.0000850
  C       -1.3062030     0.4550440     0.0000220
  C       -2.5549260    -0.3966560     0.0000690
  C        1.0354490     0.1438350    -0.0001700
  C        2.1329550    -0.8859990     0.0000420
  H       -1.2412540     1.0963570     0.8832990
  H       -1.2414110     1.0964890    -0.8831720
  H       -3.4424010     0.2425350     0.0001940
  H       -2.5849670    -1.0330240    -0.8868250
  H       -2.5848130    -1.0331530     0.8868760
  H        2.0416630    -1.5248420    -0.8815190
  H        2.0422710    -1.5237540     0.8824640
  H        3.0983910    -0.3819430    -0.0005520
units angstrom
no_reorient  #important for SAPT in psi4, default
symmetry c1  #important for SAPT in psi4, default
}

set PROPERTIES_ORIGIN ["COM"]
properties('MP2/aug-cc-pvtz', properties = ['dipole'])
--------------------------------------------------------------------------

    Molecular point group: c1
  Charge       = 0
  Multiplicity = 1
  Basis Set: AUG-CC-PVTZ
    Blend: AUG-CC-PVTZ
  Basis Set: (AUG-CC-PVTZ AUX)
    Blend: AUG-CC-PVTZ-JKFIT

    Orbital Energies [Eh]
    ---------------------

    Doubly Occupied:

       1A    -20.601229     2A    -20.541519     3A    -11.380159
       4A    -11.289042     5A    -11.241043     6A    -11.225896
       7A     -1.454659     8A     -1.350244     9A     -1.055342
      10A     -1.000818    11A     -0.864068    12A     -0.779857
      13A     -0.687785    14A     -0.683715    15A     -0.662875
      16A     -0.608949    17A     -0.579247    18A     -0.564953
      19A     -0.551540    20A     -0.537599    21A     -0.512202
      22A     -0.499939    23A     -0.457629    24A     -0.446112

  @DF-RHF Final Energy:  -305.99155287452788

   => Energetics <=

    Nuclear Repulsion Energy =            243.4130612775518330
    One-Electron Energy =                -899.6563867812803892
    Two-Electron Energy =                 350.2517726292006728
    Total Energy =                       -305.9915528745278834
  Basis Set: (AUG-CC-PVTZ AUX)
    Blend: AUG-CC-PVTZ-RI
    Molecular point group: c1

    Geometry (in Angstrom), charge = 0, multiplicity = 1:

       Center              X                  Y                   Z               Mass
    ------------   -----------------  -----------------  -----------------  -----------------
         O           -0.219008507599    -0.484156822998     0.017519676785    15.994914619570
         O            1.144738792401     1.317363977002    -0.003827323215    15.994914619570
         C           -1.351708207599     0.418718977002    -0.003890323215    12.000000000000
         C           -2.600431207599    -0.432981022998    -0.003843323215    12.000000000000
         C            0.989943792401     0.107509977002    -0.004082323215    12.000000000000
         C            2.087449792401    -0.922324022998    -0.003870323215    12.000000000000
         H           -1.286759207599     1.060031977002     0.879386676785     1.007825032230
         H           -1.286916207599     1.060163977002    -0.887084323215     1.007825032230
         H           -3.487906207599     0.206209977002    -0.003718323215     1.007825032230
         H           -2.630472207599    -1.069349022998    -0.890737323215     1.007825032230
         H           -2.630318207599    -1.069478022998     0.882963676785     1.007825032230
         H            1.996157792401    -1.561167022998    -0.885431323215     1.007825032230
         H            1.996765792401    -1.560079022998     0.878551676785     1.007825032230
         H            3.052885792401    -0.418268022998    -0.004464323215     1.007825032230

  Basis Set: AUG-CC-PVTZ
    Blend: AUG-CC-PVTZ
  Basis Set: (AUG-CC-PVTZ AUX)
    Blend: AUG-CC-PVTZ-JKFIT
	 Reference Energy          =    -305.9915528745278834 [Eh]
	 Singles Energy            =      -0.0000000000000000 [Eh]
	 Same-Spin Energy          =      -0.2970648872460324 [Eh]
	 Opposite-Spin Energy      =      -0.9757860707567614 [Eh]
	 Correlation Energy        =      -1.2728509580027938 [Eh]
	 Total Energy              =    -307.2644038325306610 [Eh]

	 ================> DF-SCS-MP2 Energies <==================
	-----------------------------------------------------------
	 SCS Same-Spin Scale       =       0.3333333333333333 [-]
	 SCS Opposite-Spin Scale   =       1.2000000000000000 [-]
	 SCS Same-Spin Energy      =      -0.0990216290820108 [Eh]
	 SCS Opposite-Spin Energy  =      -1.1709432849081136 [Eh]
	 SCS Correlation Energy    =      -1.2699649139901243 [Eh]
	 SCS Total Energy          =    -307.2615177885180060 [Eh]
	-----------------------------------------------------------

  Dipole Moment: [D]
     X:    -1.0585      Y:    -1.7215      Z:    -0.0254     Total:     2.0210

*** Psi4 exiting successfully. Buy a developer a beer!
