                               Psi4 1.3.2 release

  ==> Input File <==

--------------------------------------------------------------------------
#psi4
#
memory 32 gb

molecule  {
0 1
  O       -0.1816340    -0.4581900    -0.0001520
  O        1.1902440     1.3536890     0.0000850
  C       -1.3062030     0.4550440     0.0000220
  C       -2.5549260    -0.3966560     0.0000690
  C        0.8561813     0.0551610    -0.0001673
  C        2.1329550    -0.8859990     0.0000420
  H       -1.2412540     1.0963570     0.8832990
  H       -1.2414110     1.0964890    -0.8831720
  H       -3.4424010     0.2425350     0.0001940
  H       -2.5849670    -1.0330240    -0.8868250
  H       -2.5848130    -1.0331530     0.8868760
  H        2.0416630    -1.5248420    -0.8815190
  H        2.0422710    -1.5237540     0.8824640
  H        3.0983910    -0.3819430    -0.0005520
units angstrom
no_reorient  #important for SAPT in psi4, default
symmetry c1  #important for SAPT in psi4, default
}

set PROPERTIES_ORIGIN ["COM"]
properties('MP2/aug-cc-pvtz', properties = ['dipole'])
--------------------------------------------------------------------------

    Molecular point group: c1
  Charge       = 0
  Multiplicity = 1
  Basis Set: AUG-CC-PVTZ
    Blend: AUG-CC-PVTZ
  Basis Set: (AUG-CC-PVTZ AUX)
    Blend: AUG-CC-PVTZ-JKFIT

    Orbital Energies [Eh]
    ---------------------

    Doubly Occupied:

       1A    -20.649891     2A    -20.503553     3A    -11.378351
       4A    -11.314027     5A    -11.241899     6A    -11.234201
       7A     -1.563557     8A     -1.272763     9A     -1.087877
      10A     -0.984060    11A     -0.900865    12A     -0.822227
      13A     -0.733654    14A     -0.702901    15A     -0.656721
      16A     -0.617851    17A     -0.575823    18A     -0.560366
      19A     -0.560258    20A     -0.546018    21A     -0.514119
      22A     -0.500755    23A     -0.423312    24A     -0.404804

  @DF-RHF Final Energy:  -305.93154396237310

   => Energetics <=

    Nuclear Repulsion Energy =            244.8573120684080209
    One-Electron Energy =                -902.0780003951664412
    Two-Electron Energy =                 351.2891443643852654
    Total Energy =                       -305.9315439623730981
  Basis Set: (AUG-CC-PVTZ AUX)
    Blend: AUG-CC-PVTZ-RI
    Molecular point group: c1

    Geometry (in Angstrom), charge = 0, multiplicity = 1:

       Center              X                  Y                   Z               Mass
    ------------   -----------------  -----------------  -----------------  -----------------
         O           -0.201231208633    -0.480548724377    -0.000143910807    15.994914619570
         O            1.170646791367     1.331330275623     0.000093089193    15.994914619570
         C           -1.325800208633     0.432685275623     0.000030089193    12.000000000000
         C           -2.574523208633    -0.419014724377     0.000077089193    12.000000000000
         C            0.836584091367     0.032802275623    -0.000159210807    12.000000000000
         C            2.113357791367    -0.908357724377     0.000050089193    12.000000000000
         H           -1.260851208633     1.073998275623     0.883307089193     1.007825032230
         H           -1.261008208633     1.074130275623    -0.883163910807     1.007825032230
         H           -3.461998208633     0.220176275623     0.000202089193     1.007825032230
         H           -2.604564208633    -1.055382724377    -0.886816910807     1.007825032230
         H           -2.604410208633    -1.055511724377     0.886884089193     1.007825032230
         H            2.022065791367    -1.547200724377    -0.881510910807     1.007825032230
         H            2.022673791367    -1.546112724377     0.882472089193     1.007825032230
         H            3.078793791367    -0.404301724377    -0.000543910807     1.007825032230

  Basis Set: AUG-CC-PVTZ
    Blend: AUG-CC-PVTZ
  Basis Set: (AUG-CC-PVTZ AUX)
    Blend: AUG-CC-PVTZ-JKFIT
	 Reference Energy          =    -305.9315439623730981 [Eh]
	 Singles Energy            =      -0.0000000000000000 [Eh]
	 Same-Spin Energy          =      -0.2979461112735209 [Eh]
	 Opposite-Spin Energy      =      -0.9771312730549152 [Eh]
	 Correlation Energy        =      -1.2750773843284362 [Eh]
	 Total Energy              =    -307.2066213467015245 [Eh]

	 ================> DF-SCS-MP2 Energies <==================
	-----------------------------------------------------------
	 SCS Same-Spin Scale       =       0.3333333333333333 [-]
	 SCS Opposite-Spin Scale   =       1.2000000000000000 [-]
	 SCS Same-Spin Energy      =      -0.0993153704245070 [Eh]
	 SCS Opposite-Spin Energy  =      -1.1725575276658982 [Eh]
	 SCS Correlation Energy    =      -1.2718728980904050 [Eh]
	 SCS Total Energy          =    -307.2034168604635056 [Eh]
	-----------------------------------------------------------

  Dipole Moment: [D]
     X:    -2.7663      Y:    -2.3802      Z:    -0.0000     Total:     3.6493

*** Psi4 exiting successfully. Buy a developer a beer!
