                               Psi4 1.4a3.dev225

  ==> Input File <==

--------------------------------------------------------------------------
#psi4
#
memory 32 gb

molecule  {
0 1
  O       -0.1816510    -0.4579540    -0.0000570
  O        1.1902550     1.3536590     0.0000010
  C       -1.3061740     0.4550410     0.0000250
  C       -2.5549650    -0.3967600     0.0000230
  C        1.0175396     0.1349439    -0.0000452
  C        2.1329650    -0.8861250     0.0000100
  H       -1.2416190     1.0963160     0.8832990
  H       -1.2416760     1.0964030    -0.8831890
  H       -3.4421510     0.2427570     0.0000820
  H       -2.5852380    -1.0333410    -0.8867630
  H       -2.5851830    -1.0334280     0.8867480
  H        2.0420880    -1.5247240    -0.8817090
  H        2.0428830    -1.5236850     0.8825710
  H        3.0983080    -0.3817210    -0.0006790
units angstrom
no_reorient  #important for SAPT in psi4, default
symmetry c1  #important for SAPT in psi4, default
}

set PROPERTIES_ORIGIN ["COM"]
properties('MP2/aug-cc-pvtz', properties = ['dipole'])
--------------------------------------------------------------------------

    Molecular point group: c1
  Charge       = 0
  Multiplicity = 1
  Basis Set: AUG-CC-PVTZ
    Blend: AUG-CC-PVTZ
  Basis Set: (AUG-CC-PVTZ AUX)
    Blend: AUG-CC-PVTZ-JKFIT

    Orbital Energies [Eh]
    ---------------------

    Doubly Occupied:

       1A    -20.606058     2A    -20.540255     3A    -11.381734
       4A    -11.290612     5A    -11.240760     6A    -11.226621
       7A     -1.457141     8A     -1.346514     9A     -1.056218
      10A     -0.999495    11A     -0.865588    12A     -0.783060
      13A     -0.685951    14A     -0.685729    15A     -0.663195
      16A     -0.608164    17A     -0.577959    18A     -0.564358
      19A     -0.552310    20A     -0.537658    21A     -0.514826
      22A     -0.498857    23A     -0.458070    24A     -0.444422

  @DF-RHF Final Energy:  -305.99023953243204

   => Energetics <=

    Nuclear Repulsion Energy =            243.2984855902100776
    One-Electron Energy =                -899.4063447731889482
    Two-Electron Energy =                 350.1176196505468852
    Total Energy =                       -305.9902395324320423
  Basis Set: (AUG-CC-PVTZ AUX)
    Blend: AUG-CC-PVTZ-RI
    Molecular point group: c1

    Geometry (in Angstrom), charge = 0, multiplicity = 1:

       Center              X                  Y                   Z               Mass
    ------------   -----------------  -----------------  -----------------  -----------------
         O           -0.223236654804    -0.491190392027    -0.000052692360    15.994914619570
         O            1.148669345196     1.320422607973     0.000005307640    15.994914619570
         C           -1.347759654804     0.421804607973     0.000029307640    12.000000000000
         C           -2.596550654804    -0.429996392027     0.000027307640    12.000000000000
         C            0.975953945196     0.101707507973    -0.000040892360    12.000000000000
         C            2.091379345196    -0.919361392027     0.000014307640    12.000000000000
         H           -1.283204654804     1.063079607973     0.883303307640     1.007825032230
         H           -1.283261654804     1.063166607973    -0.883184692360     1.007825032230
         H           -3.483736654804     0.209520607973     0.000086307640     1.007825032230
         H           -2.626823654804    -1.066577392027    -0.886758692360     1.007825032230
         H           -2.626768654804    -1.066664392027     0.886752307640     1.007825032230
         H            2.000502345196    -1.557960392027    -0.881704692360     1.007825032230
         H            2.001297345196    -1.556921392027     0.882575307640     1.007825032230
         H            3.056722345196    -0.414957392027    -0.000674692360     1.007825032230

  Basis Set: AUG-CC-PVTZ
    Blend: AUG-CC-PVTZ
  Basis Set: (AUG-CC-PVTZ AUX)
    Blend: AUG-CC-PVTZ-JKFIT
	 Reference Energy          =    -305.9902395324320423 [Eh]
	 Singles Energy            =      -0.0000000000000000 [Eh]
	 Same-Spin Energy          =      -0.2972658102480978 [Eh]
	 Opposite-Spin Energy      =      -0.9763074125259289 [Eh]
	 Correlation Energy        =      -1.2735732227740266 [Eh]
	 Total Energy              =    -307.2638127552060610 [Eh]

	 ================> DF-SCS-MP2 Energies <==================
	-----------------------------------------------------------
	 SCS Same-Spin Scale       =       0.3333333333333333 [-]
	 SCS Opposite-Spin Scale   =       1.2000000000000000 [-]
	 SCS Same-Spin Energy      =      -0.0990886034160326 [Eh]
	 SCS Opposite-Spin Energy  =      -1.1715688950311147 [Eh]
	 SCS Correlation Energy    =      -1.2706574984471473 [Eh]
	 SCS Total Energy          =    -307.2608970308791640 [Eh]
	-----------------------------------------------------------

  Dipole Moment: [D]
     X:    -1.1628      Y:    -1.7475      Z:     0.0001     Total:     2.0990

*** Psi4 exiting successfully. Buy a developer a beer!
