                               Psi4 1.4a3.dev225

  ==> Input File <==

--------------------------------------------------------------------------
#psi4
#
memory 32 gb

molecule  {
0 1
  O       -0.1816510    -0.4579540    -0.0000570
  O        1.1902550     1.3536590     0.0000010
  C       -1.3061740     0.4550410     0.0000250
  C       -2.5549650    -0.3967600     0.0000230
  C        1.0533964     0.1526721    -0.0000448
  C        2.1329650    -0.8861250     0.0000100
  H       -1.2416190     1.0963160     0.8832990
  H       -1.2416760     1.0964030    -0.8831890
  H       -3.4421510     0.2427570     0.0000820
  H       -2.5852380    -1.0333410    -0.8867630
  H       -2.5851830    -1.0334280     0.8867480
  H        2.0420880    -1.5247240    -0.8817090
  H        2.0428830    -1.5236850     0.8825710
  H        3.0983080    -0.3817210    -0.0006790
units angstrom
no_reorient  #important for SAPT in psi4, default
symmetry c1  #important for SAPT in psi4, default
}

set PROPERTIES_ORIGIN ["COM"]
properties('MP2/aug-cc-pvtz', properties = ['dipole'])
--------------------------------------------------------------------------

    Molecular point group: c1
  Charge       = 0
  Multiplicity = 1
  Basis Set: AUG-CC-PVTZ
    Blend: AUG-CC-PVTZ
  Basis Set: (AUG-CC-PVTZ AUX)
    Blend: AUG-CC-PVTZ-JKFIT

    Orbital Energies [Eh]
    ---------------------

    Doubly Occupied:

       1A    -20.595945     2A    -20.547760     3A    -11.382041
       4A    -11.285667     5A    -11.242544     6A    -11.223397
       7A     -1.447341     8A     -1.354097     9A     -1.052364
      10A     -1.001671    11A     -0.858380    12A     -0.776172
      13A     -0.690955    14A     -0.678793    15A     -0.661072
      16A     -0.609575    17A     -0.581246    18A     -0.565697
      19A     -0.549324    20A     -0.534949    21A     -0.510368
      22A     -0.501932    23A     -0.457628    24A     -0.448790

  @DF-RHF Final Energy:  -305.99034751028563

   => Energetics <=

    Nuclear Repulsion Energy =            243.0555637120951076
    One-Electron Energy =                -898.9764058734567698
    Two-Electron Energy =                 349.9304946510760033
    Total Energy =                       -305.9903475102856305
  Basis Set: (AUG-CC-PVTZ AUX)
    Blend: AUG-CC-PVTZ-RI
    Molecular point group: c1

    Geometry (in Angstrom), charge = 0, multiplicity = 1:

       Center              X                  Y                   Z               Mass
    ------------   -----------------  -----------------  -----------------  -----------------
         O           -0.228123307024    -0.493606434392    -0.000052746873    15.994914619570
         O            1.143782692976     1.318006565608     0.000005253127    15.994914619570
         C           -1.352646307024     0.419388565608     0.000029253127    12.000000000000
         C           -2.601437307024    -0.432412434392     0.000027253127    12.000000000000
         C            1.006924092976     0.117019665608    -0.000040546873    12.000000000000
         C            2.086492692976    -0.921777434392     0.000014253127    12.000000000000
         H           -1.288091307024     1.060663565608     0.883303253127     1.007825032230
         H           -1.288148307024     1.060750565608    -0.883184746873     1.007825032230
         H           -3.488623307024     0.207104565608     0.000086253127     1.007825032230
         H           -2.631710307024    -1.068993434392    -0.886758746873     1.007825032230
         H           -2.631655307024    -1.069080434392     0.886752253127     1.007825032230
         H            1.995615692976    -1.560376434392    -0.881704746873     1.007825032230
         H            1.996410692976    -1.559337434392     0.882575253127     1.007825032230
         H            3.051835692976    -0.417373434392    -0.000674746873     1.007825032230

  Basis Set: AUG-CC-PVTZ
    Blend: AUG-CC-PVTZ
  Basis Set: (AUG-CC-PVTZ AUX)
    Blend: AUG-CC-PVTZ-JKFIT
	 Reference Energy          =    -305.9903475102856305 [Eh]
	 Singles Energy            =      -0.0000000000000000 [Eh]
	 Same-Spin Energy          =      -0.2972505945224280 [Eh]
	 Opposite-Spin Energy      =      -0.9763689360594158 [Eh]
	 Correlation Energy        =      -1.2736195305818439 [Eh]
	 Total Energy              =    -307.2639670408674988 [Eh]

	 ================> DF-SCS-MP2 Energies <==================
	-----------------------------------------------------------
	 SCS Same-Spin Scale       =       0.3333333333333333 [-]
	 SCS Opposite-Spin Scale   =       1.2000000000000000 [-]
	 SCS Same-Spin Energy      =      -0.0990835315074760 [Eh]
	 SCS Opposite-Spin Energy  =      -1.1716427232712989 [Eh]
	 SCS Correlation Energy    =      -1.2707262547787750 [Eh]
	 SCS Total Energy          =    -307.2610737650643955 [Eh]
	-----------------------------------------------------------

  Dipole Moment: [D]
     X:    -0.8004      Y:    -1.6181      Z:     0.0001     Total:     1.8052

*** Psi4 exiting successfully. Buy a developer a beer!
