                               Psi4 1.4a3.dev225

  ==> Input File <==

--------------------------------------------------------------------------
#psi4
#
memory 32 gb

molecule  {
0 1
  O       -0.1816510    -0.4579540    -0.0000570
  O        1.1902550     1.3536590     0.0000010
  C       -1.2673568     0.4235255     0.0000222
  C       -2.5549650    -0.3967600     0.0000230
  C        1.0354680     0.1438080    -0.0000450
  C        2.1329650    -0.8861250     0.0000100
  H       -1.2416190     1.0963160     0.8832990
  H       -1.2416760     1.0964030    -0.8831890
  H       -3.4421510     0.2427570     0.0000820
  H       -2.5852380    -1.0333410    -0.8867630
  H       -2.5851830    -1.0334280     0.8867480
  H        2.0420880    -1.5247240    -0.8817090
  H        2.0428830    -1.5236850     0.8825710
  H        3.0983080    -0.3817210    -0.0006790
units angstrom
no_reorient  #important for SAPT in psi4, default
symmetry c1  #important for SAPT in psi4, default
}

set PROPERTIES_ORIGIN ["COM"]
properties('MP2/aug-cc-pvtz', properties = ['dipole'])
--------------------------------------------------------------------------

    Molecular point group: c1
  Charge       = 0
  Multiplicity = 1
  Basis Set: AUG-CC-PVTZ
    Blend: AUG-CC-PVTZ
  Basis Set: (AUG-CC-PVTZ AUX)
    Blend: AUG-CC-PVTZ-JKFIT

    Orbital Energies [Eh]
    ---------------------

    Doubly Occupied:

       1A    -20.606529     2A    -20.547621     3A    -11.385448
       4A    -11.287237     5A    -11.243903     6A    -11.223466
       7A     -1.464021     8A     -1.359172     9A     -1.054125
      10A     -0.999534    11A     -0.864420    12A     -0.784069
      13A     -0.693010    14A     -0.686428    15A     -0.667429
      16A     -0.606794    17A     -0.582508    18A     -0.566328
      19A     -0.552489    20A     -0.543435    21A     -0.501999
      22A     -0.497589    23A     -0.454884    24A     -0.450615

  @DF-RHF Final Energy:  -305.98926388934206

   => Energetics <=

    Nuclear Repulsion Energy =            243.8938474911204253
    One-Electron Energy =                -900.5201169465917701
    Two-Electron Energy =                 350.6370055661293463
    Total Energy =                       -305.9892638893420553
  Basis Set: (AUG-CC-PVTZ AUX)
    Blend: AUG-CC-PVTZ-RI
    Molecular point group: c1

    Geometry (in Angstrom), charge = 0, multiplicity = 1:

       Center              X                  Y                   Z               Mass
    ------------   -----------------  -----------------  -----------------  -----------------
         O           -0.230970083671    -0.488103403950    -0.000052338025    15.994914619570
         O            1.140935916329     1.323509596050     0.000005661975    15.994914619570
         C           -1.316675883671     0.393376096050     0.000026861975    12.000000000000
         C           -2.604284083671    -0.426909403950     0.000027661975    12.000000000000
         C            0.986148916329     0.113658596050    -0.000040338025    12.000000000000
         C            2.083645916329    -0.916274403950     0.000014661975    12.000000000000
         H           -1.290938083671     1.066166596050     0.883303661975     1.007825032230
         H           -1.290995083671     1.066253596050    -0.883184338025     1.007825032230
         H           -3.491470083671     0.212607596050     0.000086661975     1.007825032230
         H           -2.634557083671    -1.063490403950    -0.886758338025     1.007825032230
         H           -2.634502083671    -1.063577403950     0.886752661975     1.007825032230
         H            1.992768916329    -1.554873403950    -0.881704338025     1.007825032230
         H            1.993563916329    -1.553834403950     0.882575661975     1.007825032230
         H            3.048988916329    -0.411870403950    -0.000674338025     1.007825032230

  Basis Set: AUG-CC-PVTZ
    Blend: AUG-CC-PVTZ
  Basis Set: (AUG-CC-PVTZ AUX)
    Blend: AUG-CC-PVTZ-JKFIT
	 Reference Energy          =    -305.9892638893420553 [Eh]
	 Singles Energy            =      -0.0000000000000000 [Eh]
	 Same-Spin Energy          =      -0.2972264250065564 [Eh]
	 Opposite-Spin Energy      =      -0.9759005615300713 [Eh]
	 Correlation Energy        =      -1.2731269865366277 [Eh]
	 Total Energy              =    -307.2623908758786797 [Eh]

	 ================> DF-SCS-MP2 Energies <==================
	-----------------------------------------------------------
	 SCS Same-Spin Scale       =       0.3333333333333333 [-]
	 SCS Opposite-Spin Scale   =       1.2000000000000000 [-]
	 SCS Same-Spin Energy      =      -0.0990754750021855 [Eh]
	 SCS Opposite-Spin Energy  =      -1.1710806738360855 [Eh]
	 SCS Correlation Energy    =      -1.2701561488382709 [Eh]
	 SCS Total Energy          =    -307.2594200381803375 [Eh]
	-----------------------------------------------------------

  Dipole Moment: [D]
     X:    -0.7726      Y:    -1.7442      Z:     0.0001     Total:     1.9077

*** Psi4 exiting successfully. Buy a developer a beer!
