                               Psi4 1.3.2 release

  ==> Input File <==

--------------------------------------------------------------------------
#psi4
#
memory 32 gb

molecule  {
0 1
  O       -0.2378954    -0.3276722    -0.0001741
  O        1.1902440     1.3536890     0.0000850
  C       -1.3062030     0.4550440     0.0000220
  C       -2.5549260    -0.3966560     0.0000690
  C        1.0354490     0.1438350    -0.0001700
  C        2.1329550    -0.8859990     0.0000420
  H       -1.2412540     1.0963570     0.8832990
  H       -1.2414110     1.0964890    -0.8831720
  H       -3.4424010     0.2425350     0.0001940
  H       -2.5849670    -1.0330240    -0.8868250
  H       -2.5848130    -1.0331530     0.8868760
  H        2.0416630    -1.5248420    -0.8815190
  H        2.0422710    -1.5237540     0.8824640
  H        3.0983910    -0.3819430    -0.0005520
units angstrom
no_reorient  #important for SAPT in psi4, default
symmetry c1  #important for SAPT in psi4, default
}

set PROPERTIES_ORIGIN ["COM"]
properties('MP2/aug-cc-pvtz', properties = ['dipole'])
--------------------------------------------------------------------------

    Molecular point group: c1
  Charge       = 0
  Multiplicity = 1
  Basis Set: AUG-CC-PVTZ
    Blend: AUG-CC-PVTZ
  Basis Set: (AUG-CC-PVTZ AUX)
    Blend: AUG-CC-PVTZ-JKFIT

    Orbital Energies [Eh]
    ---------------------

    Doubly Occupied:

       1A    -20.592854     2A    -20.542805     3A    -11.387639
       4A    -11.274543     5A    -11.252484     6A    -11.219957
       7A     -1.475786     8A     -1.359301     9A     -1.059512
      10A     -1.004602    11A     -0.880649    12A     -0.780026
      13A     -0.698703    14A     -0.697174    15A     -0.667941
      16A     -0.610404    17A     -0.586653    18A     -0.572400
      19A     -0.554348    20A     -0.547000    21A     -0.499033
      22A     -0.491500    23A     -0.448114    24A     -0.441001

  @DF-RHF Final Energy:  -305.98078095378293

   => Energetics <=

    Nuclear Repulsion Energy =            245.3377068931883684
    One-Electron Energy =                -903.3481148232925761
    Two-Electron Energy =                 352.0296269763212536
    Total Energy =                       -305.9807809537829257
  Basis Set: (AUG-CC-PVTZ AUX)
    Blend: AUG-CC-PVTZ-RI
    Molecular point group: c1

    Geometry (in Angstrom), charge = 0, multiplicity = 1:

       Center              X                  Y                   Z               Mass
    ------------   -----------------  -----------------  -----------------  -----------------
         O           -0.271703643102    -0.385824474712    -0.000161628331    15.994914619570
         O            1.156435756898     1.295536725288     0.000097471669    15.994914619570
         C           -1.340011243102     0.396891725288     0.000034471669    12.000000000000
         C           -2.588734243102    -0.454808274712     0.000081471669    12.000000000000
         C            1.001640756898     0.085682725288    -0.000157528331    12.000000000000
         C            2.099146756898    -0.944151274712     0.000054471669    12.000000000000
         H           -1.275062243102     1.038204725288     0.883311471669     1.007825032230
         H           -1.275219243102     1.038336725288    -0.883159528331     1.007825032230
         H           -3.476209243102     0.184382725288     0.000206471669     1.007825032230
         H           -2.618775243102    -1.091176274712    -0.886812528331     1.007825032230
         H           -2.618621243102    -1.091305274712     0.886888471669     1.007825032230
         H            2.007854756898    -1.582994274712    -0.881506528331     1.007825032230
         H            2.008462756898    -1.581906274712     0.882476471669     1.007825032230
         H            3.064582756898    -0.440095274712    -0.000539528331     1.007825032230

  Basis Set: AUG-CC-PVTZ
    Blend: AUG-CC-PVTZ
  Basis Set: (AUG-CC-PVTZ AUX)
    Blend: AUG-CC-PVTZ-JKFIT
	 Reference Energy          =    -305.9807809537829257 [Eh]
	 Singles Energy            =      -0.0000000000000000 [Eh]
	 Same-Spin Energy          =      -0.2967613810847280 [Eh]
	 Opposite-Spin Energy      =      -0.9734982218241622 [Eh]
	 Correlation Energy        =      -1.2702596029088902 [Eh]
	 Total Energy              =    -307.2510405566918053 [Eh]

	 ================> DF-SCS-MP2 Energies <==================
	-----------------------------------------------------------
	 SCS Same-Spin Scale       =       0.3333333333333333 [-]
	 SCS Opposite-Spin Scale   =       1.2000000000000000 [-]
	 SCS Same-Spin Energy      =      -0.0989204603615760 [Eh]
	 SCS Opposite-Spin Energy  =      -1.1681978661889947 [Eh]
	 SCS Correlation Energy    =      -1.2671183265505708 [Eh]
	 SCS Total Energy          =    -307.2478992803335132 [Eh]
	-----------------------------------------------------------

  Dipole Moment: [D]
     X:    -0.4779      Y:    -2.0634      Z:     0.0000     Total:     2.1180

*** Psi4 exiting successfully. Buy a developer a beer!
