                               Psi4 1.3.2 release

  ==> Input File <==

--------------------------------------------------------------------------
#psi4
#
memory 32 gb

molecule  {
0 1
  O       -0.1504476    -0.4183868    -0.0001517
  O        1.1902440     1.3536890     0.0000850
  C       -1.3062030     0.4550440     0.0000220
  C       -2.5549260    -0.3966560     0.0000690
  C        1.0354490     0.1438350    -0.0001700
  C        2.1329550    -0.8859990     0.0000420
  H       -1.2412540     1.0963570     0.8832990
  H       -1.2414110     1.0964890    -0.8831720
  H       -3.4424010     0.2425350     0.0001940
  H       -2.5849670    -1.0330240    -0.8868250
  H       -2.5848130    -1.0331530     0.8868760
  H        2.0416630    -1.5248420    -0.8815190
  H        2.0422710    -1.5237540     0.8824640
  H        3.0983910    -0.3819430    -0.0005520
units angstrom
no_reorient  #important for SAPT in psi4, default
symmetry c1  #important for SAPT in psi4, default
}

set PROPERTIES_ORIGIN ["COM"]
properties('MP2/aug-cc-pvtz', properties = ['dipole'])
--------------------------------------------------------------------------

    Molecular point group: c1
  Charge       = 0
  Multiplicity = 1
  Basis Set: AUG-CC-PVTZ
    Blend: AUG-CC-PVTZ
  Basis Set: (AUG-CC-PVTZ AUX)
    Blend: AUG-CC-PVTZ-JKFIT

    Orbital Energies [Eh]
    ---------------------

    Doubly Occupied:

       1A    -20.601769     2A    -20.533976     3A    -11.375016
       4A    -11.291805     5A    -11.239372     6A    -11.228521
       7A     -1.465996     8A     -1.347014     9A     -1.059219
      10A     -1.001024    11A     -0.870716    12A     -0.780992
      13A     -0.688441    14A     -0.685906    15A     -0.666425
      16A     -0.609797    17A     -0.578166    18A     -0.564198
      19A     -0.553722    20A     -0.541298    21A     -0.510325
      22A     -0.500162    23A     -0.455161    24A     -0.443279

  @DF-RHF Final Energy:  -305.99260326914555

   => Energetics <=

    Nuclear Repulsion Energy =            244.1279724539802771
    One-Electron Energy =                -901.0565503007106827
    Two-Electron Energy =                 350.9359745775848296
    Total Energy =                       -305.9926032691455475
  Basis Set: (AUG-CC-PVTZ AUX)
    Blend: AUG-CC-PVTZ-RI
    Molecular point group: c1

    Geometry (in Angstrom), charge = 0, multiplicity = 1:

       Center              X                  Y                   Z               Mass
    ------------   -----------------  -----------------  -----------------  -----------------
         O           -0.200140925463    -0.460060571052    -0.000143297340    15.994914619570
         O            1.140550674537     1.312015228948     0.000093402660    15.994914619570
         C           -1.355896325463     0.413370228948     0.000030402660    12.000000000000
         C           -2.604619325463    -0.438329771052     0.000077402660    12.000000000000
         C            0.985755674537     0.102161228948    -0.000161597340    12.000000000000
         C            2.083261674537    -0.927672771052     0.000050402660    12.000000000000
         H           -1.290947325463     1.054683228948     0.883307402660     1.007825032230
         H           -1.291104325463     1.054815228948    -0.883163597340     1.007825032230
         H           -3.492094325463     0.200861228948     0.000202402660     1.007825032230
         H           -2.634660325463    -1.074697771052    -0.886816597340     1.007825032230
         H           -2.634506325463    -1.074826771052     0.886884402660     1.007825032230
         H            1.991969674537    -1.566515771052    -0.881510597340     1.007825032230
         H            1.992577674537    -1.565427771052     0.882472402660     1.007825032230
         H            3.048697674537    -0.423616771052    -0.000543597340     1.007825032230

  Basis Set: AUG-CC-PVTZ
    Blend: AUG-CC-PVTZ
  Basis Set: (AUG-CC-PVTZ AUX)
    Blend: AUG-CC-PVTZ-JKFIT
	 Reference Energy          =    -305.9926032691455475 [Eh]
	 Singles Energy            =      -0.0000000000000000 [Eh]
	 Same-Spin Energy          =      -0.2965537302828493 [Eh]
	 Opposite-Spin Energy      =      -0.9742725774772432 [Eh]
	 Correlation Energy        =      -1.2708263077600925 [Eh]
	 Total Energy              =    -307.2634295769056507 [Eh]

	 ================> DF-SCS-MP2 Energies <==================
	-----------------------------------------------------------
	 SCS Same-Spin Scale       =       0.3333333333333333 [-]
	 SCS Opposite-Spin Scale   =       1.2000000000000000 [-]
	 SCS Same-Spin Energy      =      -0.0988512434276164 [Eh]
	 SCS Opposite-Spin Energy  =      -1.1691270929726918 [Eh]
	 SCS Correlation Energy    =      -1.2679783364003083 [Eh]
	 SCS Total Energy          =    -307.2605816055458376 [Eh]
	-----------------------------------------------------------

  Dipole Moment: [D]
     X:    -1.2814      Y:    -1.8371      Z:     0.0000     Total:     2.2398

*** Psi4 exiting successfully. Buy a developer a beer!
