                               Psi4 1.3.2 release

  ==> Input File <==

--------------------------------------------------------------------------
#psi4
#
memory 32 gb

molecule  {
0 1
  O       -0.1598822    -0.5002988    -0.0001446
  O        1.1902440     1.3536890     0.0000850
  C       -1.3062030     0.4550440     0.0000220
  C       -2.5549260    -0.3966560     0.0000690
  C        1.0354490     0.1438350    -0.0001700
  C        2.1329550    -0.8859990     0.0000420
  H       -1.2412540     1.0963570     0.8832990
  H       -1.2414110     1.0964890    -0.8831720
  H       -3.4424010     0.2425350     0.0001940
  H       -2.5849670    -1.0330240    -0.8868250
  H       -2.5848130    -1.0331530     0.8868760
  H        2.0416630    -1.5248420    -0.8815190
  H        2.0422710    -1.5237540     0.8824640
  H        3.0983910    -0.3819430    -0.0005520
units angstrom
no_reorient  #important for SAPT in psi4, default
symmetry c1  #important for SAPT in psi4, default
}

set PROPERTIES_ORIGIN ["COM"]
properties('MP2/aug-cc-pvtz', properties = ['dipole'])
--------------------------------------------------------------------------

    Molecular point group: c1
  Charge       = 0
  Multiplicity = 1
  Basis Set: AUG-CC-PVTZ
    Blend: AUG-CC-PVTZ
  Basis Set: (AUG-CC-PVTZ AUX)
    Blend: AUG-CC-PVTZ-JKFIT

    Orbital Energies [Eh]
    ---------------------

    Doubly Occupied:

       1A    -20.602829     2A    -20.544473     3A    -11.380446
       4A    -11.293179     5A    -11.238006     6A    -11.226752
       7A     -1.444732     8A     -1.348899     9A     -1.052848
      10A     -0.999258    11A     -0.858119    12A     -0.777850
      13A     -0.685776    14A     -0.678003    15A     -0.659447
      16A     -0.609001    17A     -0.577327    18A     -0.566622
      19A     -0.548901    20A     -0.529867    21A     -0.517954
      22A     -0.501129    23A     -0.462434    24A     -0.445453

  @DF-RHF Final Energy:  -305.98696951206512

   => Energetics <=

    Nuclear Repulsion Energy =            242.5017056319332198
    One-Electron Energy =                -897.8787411337425510
    Two-Electron Energy =                 349.3900659897442438
    Total Energy =                       -305.9869695120651159
  Basis Set: (AUG-CC-PVTZ AUX)
    Blend: AUG-CC-PVTZ-RI
    Molecular point group: c1

    Geometry (in Angstrom), charge = 0, multiplicity = 1:

       Center              X                  Y                   Z               Mass
    ------------   -----------------  -----------------  -----------------  -----------------
         O           -0.207861709929    -0.527093078757    -0.000137487070    15.994914619570
         O            1.142264490071     1.326894721243     0.000092112930    15.994914619570
         C           -1.354182509929     0.428249721243     0.000029112930    12.000000000000
         C           -2.602905509929    -0.423450278757     0.000076112930    12.000000000000
         C            0.987469490071     0.117040721243    -0.000162887070    12.000000000000
         C            2.084975490071    -0.912793278757     0.000049112930    12.000000000000
         H           -1.289233509929     1.069562721243     0.883306112930     1.007825032230
         H           -1.289390509929     1.069694721243    -0.883164887070     1.007825032230
         H           -3.490380509929     0.215740721243     0.000201112930     1.007825032230
         H           -2.632946509929    -1.059818278757    -0.886817887070     1.007825032230
         H           -2.632792509929    -1.059947278757     0.886883112930     1.007825032230
         H            1.993683490071    -1.551636278757    -0.881511887070     1.007825032230
         H            1.994291490071    -1.550548278757     0.882471112930     1.007825032230
         H            3.050411490071    -0.408737278757    -0.000544887070     1.007825032230

  Basis Set: AUG-CC-PVTZ
    Blend: AUG-CC-PVTZ
  Basis Set: (AUG-CC-PVTZ AUX)
    Blend: AUG-CC-PVTZ-JKFIT
	 Reference Energy          =    -305.9869695120651159 [Eh]
	 Singles Energy            =      -0.0000000000000000 [Eh]
	 Same-Spin Energy          =      -0.2976525702313103 [Eh]
	 Opposite-Spin Energy      =      -0.9777352659434693 [Eh]
	 Correlation Energy        =      -1.2753878361747795 [Eh]
	 Total Energy              =    -307.2623573482399024 [Eh]

	 ================> DF-SCS-MP2 Energies <==================
	-----------------------------------------------------------
	 SCS Same-Spin Scale       =       0.3333333333333333 [-]
	 SCS Opposite-Spin Scale   =       1.2000000000000000 [-]
	 SCS Same-Spin Energy      =      -0.0992175234104368 [Eh]
	 SCS Opposite-Spin Energy  =      -1.1732823191321631 [Eh]
	 SCS Correlation Energy    =      -1.2724998425426000 [Eh]
	 SCS Total Energy          =    -307.2594693546076883 [Eh]
	-----------------------------------------------------------

  Dipole Moment: [D]
     X:    -1.1444      Y:    -1.5686      Z:     0.0000     Total:     1.9417

*** Psi4 exiting successfully. Buy a developer a beer!
