                               Psi4 1.3.2 release

  ==> Input File <==

--------------------------------------------------------------------------
#psi4
#
memory 32 gb

molecule  {
0 1
  O       -0.1816340    -0.4581900    -0.0001520
  O        1.1902440     1.3536890     0.0000850
  C       -1.2285754     0.3920046     0.0000100
  C       -2.5549260    -0.3966560     0.0000690
  C        1.0354490     0.1438350    -0.0001700
  C        2.1329550    -0.8859990     0.0000420
  H       -1.2412540     1.0963570     0.8832990
  H       -1.2414110     1.0964890    -0.8831720
  H       -3.4424010     0.2425350     0.0001940
  H       -2.5849670    -1.0330240    -0.8868250
  H       -2.5848130    -1.0331530     0.8868760
  H        2.0416630    -1.5248420    -0.8815190
  H        2.0422710    -1.5237540     0.8824640
  H        3.0983910    -0.3819430    -0.0005520
units angstrom
no_reorient  #important for SAPT in psi4, default
symmetry c1  #important for SAPT in psi4, default
}

set PROPERTIES_ORIGIN ["COM"]
properties('MP2/aug-cc-pvtz', properties = ['dipole'])
--------------------------------------------------------------------------

    Molecular point group: c1
  Charge       = 0
  Multiplicity = 1
  Basis Set: AUG-CC-PVTZ
    Blend: AUG-CC-PVTZ
  Basis Set: (AUG-CC-PVTZ AUX)
    Blend: AUG-CC-PVTZ-JKFIT

    Orbital Energies [Eh]
    ---------------------

    Doubly Occupied:

       1A    -20.611720     2A    -20.551362     3A    -11.389033
       4A    -11.287339     5A    -11.246175     6A    -11.222160
       7A     -1.479307     8A     -1.367028     9A     -1.055545
      10A     -0.997575    11A     -0.869067    12A     -0.787588
      13A     -0.697576    14A     -0.692399    15A     -0.673399
      16A     -0.605199    17A     -0.586325    18A     -0.569567
      19A     -0.553741    20A     -0.548446    21A     -0.497315
      22A     -0.489354    23A     -0.454273    24A     -0.447872

  @DF-RHF Final Energy:  -305.98264511207492

   => Energetics <=

    Nuclear Repulsion Energy =            244.6488117922454251
    One-Electron Energy =                -901.9041829977312545
    Two-Electron Energy =                 351.2727260934109381
    Total Energy =                       -305.9826451120749198
  Basis Set: (AUG-CC-PVTZ AUX)
    Blend: AUG-CC-PVTZ-RI
    Molecular point group: c1

    Geometry (in Angstrom), charge = 0, multiplicity = 1:

       Center              X                  Y                   Z               Mass
    ------------   -----------------  -----------------  -----------------  -----------------
         O           -0.236241527118    -0.484042270231    -0.000141907455    15.994914619570
         O            1.135636472882     1.327836729769     0.000095092545    15.994914619570
         C           -1.283182927118     0.366152329769     0.000020092545    12.000000000000
         C           -2.609533527118    -0.422508270231     0.000079092545    12.000000000000
         C            0.980841472882     0.117982729769    -0.000159907455    12.000000000000
         C            2.078347472882    -0.911851270231     0.000052092545    12.000000000000
         H           -1.295861527118     1.070504729769     0.883309092545     1.007825032230
         H           -1.296018527118     1.070636729769    -0.883161907455     1.007825032230
         H           -3.497008527118     0.216682729769     0.000204092545     1.007825032230
         H           -2.639574527118    -1.058876270231    -0.886814907455     1.007825032230
         H           -2.639420527118    -1.059005270231     0.886886092545     1.007825032230
         H            1.987055472882    -1.550694270231    -0.881508907455     1.007825032230
         H            1.987663472882    -1.549606270231     0.882474092545     1.007825032230
         H            3.043783472882    -0.407795270231    -0.000541907455     1.007825032230

  Basis Set: AUG-CC-PVTZ
    Blend: AUG-CC-PVTZ
  Basis Set: (AUG-CC-PVTZ AUX)
    Blend: AUG-CC-PVTZ-JKFIT
	 Reference Energy          =    -305.9826451120749198 [Eh]
	 Singles Energy            =      -0.0000000000000000 [Eh]
	 Same-Spin Energy          =      -0.2973741615689173 [Eh]
	 Opposite-Spin Energy      =      -0.9757616993263941 [Eh]
	 Correlation Energy        =      -1.2731358608953114 [Eh]
	 Total Energy              =    -307.2557809729702285 [Eh]

	 ================> DF-SCS-MP2 Energies <==================
	-----------------------------------------------------------
	 SCS Same-Spin Scale       =       0.3333333333333333 [-]
	 SCS Opposite-Spin Scale   =       1.2000000000000000 [-]
	 SCS Same-Spin Energy      =      -0.0991247205229724 [Eh]
	 SCS Opposite-Spin Energy  =      -1.1709140391916728 [Eh]
	 SCS Correlation Energy    =      -1.2700387597146452 [Eh]
	 SCS Total Energy          =    -307.2526838717895430 [Eh]
	-----------------------------------------------------------

  Dipole Moment: [D]
     X:    -0.5571      Y:    -1.8127      Z:     0.0000     Total:     1.8964

*** Psi4 exiting successfully. Buy a developer a beer!
