                               Psi4 1.3.2 release

  ==> Input File <==

--------------------------------------------------------------------------
#psi4
#
memory 32 gb

molecule  {
0 1
  O       -0.2206644    -0.3718241    -0.0001668
  O        1.1902440     1.3536890     0.0000850
  C       -1.3062030     0.4550440     0.0000220
  C       -2.5549260    -0.3966560     0.0000690
  C        1.0354490     0.1438350    -0.0001700
  C        2.1329550    -0.8859990     0.0000420
  H       -1.2412540     1.0963570     0.8832990
  H       -1.2414110     1.0964890    -0.8831720
  H       -3.4424010     0.2425350     0.0001940
  H       -2.5849670    -1.0330240    -0.8868250
  H       -2.5848130    -1.0331530     0.8868760
  H        2.0416630    -1.5248420    -0.8815190
  H        2.0422710    -1.5237540     0.8824640
  H        3.0983910    -0.3819430    -0.0005520
units angstrom
no_reorient  #important for SAPT in psi4, default
symmetry c1  #important for SAPT in psi4, default
}

set PROPERTIES_ORIGIN ["COM"]
properties('MP2/aug-cc-pvtz', properties = ['dipole'])
--------------------------------------------------------------------------

    Molecular point group: c1
  Charge       = 0
  Multiplicity = 1
  Basis Set: AUG-CC-PVTZ
    Blend: AUG-CC-PVTZ
  Basis Set: (AUG-CC-PVTZ AUX)
    Blend: AUG-CC-PVTZ-JKFIT

    Orbital Energies [Eh]
    ---------------------

    Doubly Occupied:

       1A    -20.595976     2A    -20.543184     3A    -11.385428
       4A    -11.278769     5A    -11.248839     6A    -11.221649
       7A     -1.466583     8A     -1.356355     9A     -1.057498
      10A     -1.003330    11A     -0.873357    12A     -0.780466
      13A     -0.694068    14A     -0.692537    15A     -0.665978
      16A     -0.609429    17A     -0.584279    18A     -0.567683
      19A     -0.553476    20A     -0.545782    21A     -0.499021
      22A     -0.498845    23A     -0.448416    24A     -0.447589

  @DF-RHF Final Energy:  -305.98811802494117

   => Energetics <=

    Nuclear Repulsion Energy =            244.5942800129365367
    One-Electron Energy =                -901.9277240503794246
    Two-Electron Energy =                 351.3453260125016868
    Total Energy =                       -305.9881180249411727
  Basis Set: (AUG-CC-PVTZ AUX)
    Blend: AUG-CC-PVTZ-RI
    Molecular point group: c1

    Geometry (in Angstrom), charge = 0, multiplicity = 1:

       Center              X                  Y                   Z               Mass
    ------------   -----------------  -----------------  -----------------  -----------------
         O           -0.257602691590    -0.421956086404    -0.000155654392    15.994914619570
         O            1.153305708410     1.303557013596     0.000096145608    15.994914619570
         C           -1.343141291590     0.404912013596     0.000033145608    12.000000000000
         C           -2.591864291590    -0.446787986404     0.000080145608    12.000000000000
         C            0.998510708410     0.093703013596    -0.000158854392    12.000000000000
         C            2.096016708410    -0.936130986404     0.000053145608    12.000000000000
         H           -1.278192291590     1.046225013596     0.883310145608     1.007825032230
         H           -1.278349291590     1.046357013596    -0.883160854392     1.007825032230
         H           -3.479339291590     0.192403013596     0.000205145608     1.007825032230
         H           -2.621905291590    -1.083155986404    -0.886813854392     1.007825032230
         H           -2.621751291590    -1.083284986404     0.886887145608     1.007825032230
         H            2.004724708410    -1.574973986404    -0.881507854392     1.007825032230
         H            2.005332708410    -1.573885986404     0.882475145608     1.007825032230
         H            3.061452708410    -0.432074986404    -0.000540854392     1.007825032230

  Basis Set: AUG-CC-PVTZ
    Blend: AUG-CC-PVTZ
  Basis Set: (AUG-CC-PVTZ AUX)
    Blend: AUG-CC-PVTZ-JKFIT
	 Reference Energy          =    -305.9881180249411727 [Eh]
	 Singles Energy            =      -0.0000000000000000 [Eh]
	 Same-Spin Energy          =      -0.2967988952964785 [Eh]
	 Opposite-Spin Energy      =      -0.9741897363423921 [Eh]
	 Correlation Energy        =      -1.2709886316388705 [Eh]
	 Total Energy              =    -307.2591066565800588 [Eh]

	 ================> DF-SCS-MP2 Energies <==================
	-----------------------------------------------------------
	 SCS Same-Spin Scale       =       0.3333333333333333 [-]
	 SCS Opposite-Spin Scale   =       1.2000000000000000 [-]
	 SCS Same-Spin Energy      =      -0.0989329650988262 [Eh]
	 SCS Opposite-Spin Energy  =      -1.1690276836108706 [Eh]
	 SCS Correlation Energy    =      -1.2679606487096968 [Eh]
	 SCS Total Energy          =    -307.2560786736508476 [Eh]
	-----------------------------------------------------------

  Dipole Moment: [D]
     X:    -0.6503      Y:    -1.9296      Z:     0.0000     Total:     2.0363

*** Psi4 exiting successfully. Buy a developer a beer!
