                               Psi4 1.3.2 release

  ==> Input File <==

--------------------------------------------------------------------------
#psi4
#
memory 32 gb

molecule  {
0 1
  O       -0.1919554    -0.4368573    -0.0001557
  O        1.1902440     1.3536890     0.0000850
  C       -1.3062030     0.4550440     0.0000220
  C       -2.5549260    -0.3966560     0.0000690
  C        1.0354490     0.1438350    -0.0001700
  C        2.1329550    -0.8859990     0.0000420
  H       -1.2412540     1.0963570     0.8832990
  H       -1.2414110     1.0964890    -0.8831720
  H       -3.4424010     0.2425350     0.0001940
  H       -2.5849670    -1.0330240    -0.8868250
  H       -2.5848130    -1.0331530     0.8868760
  H        2.0416630    -1.5248420    -0.8815190
  H        2.0422710    -1.5237540     0.8824640
  H        3.0983910    -0.3819430    -0.0005520
units angstrom
no_reorient  #important for SAPT in psi4, default
symmetry c1  #important for SAPT in psi4, default
}

set PROPERTIES_ORIGIN ["COM"]
properties('MP2/aug-cc-pvtz', properties = ['dipole'])
--------------------------------------------------------------------------

    Molecular point group: c1
  Charge       = 0
  Multiplicity = 1
  Basis Set: AUG-CC-PVTZ
    Blend: AUG-CC-PVTZ
  Basis Set: (AUG-CC-PVTZ AUX)
    Blend: AUG-CC-PVTZ-JKFIT

    Orbital Energies [Eh]
    ---------------------

    Doubly Occupied:

       1A    -20.599941     2A    -20.543816     3A    -11.382670
       4A    -11.285705     5A    -11.243411     6A    -11.224158
       7A     -1.454646     8A     -1.352369     9A     -1.054850
      10A     -1.001401    11A     -0.864305    12A     -0.779992
      13A     -0.689760    14A     -0.684551    15A     -0.662825
      16A     -0.608757    17A     -0.580759    18A     -0.565065
      19A     -0.551551    20A     -0.539490    21A     -0.509371
      22A     -0.499644    23A     -0.455985    24A     -0.447500

  @DF-RHF Final Energy:  -305.99144677399278

   => Energetics <=

    Nuclear Repulsion Energy =            243.5195184951625151
    One-Electron Energy =                -899.8568867000091132
    Two-Electron Energy =                 350.3459214308538208
    Total Energy =                       -305.9914467739927773
  Basis Set: (AUG-CC-PVTZ AUX)
    Blend: AUG-CC-PVTZ-RI
    Molecular point group: c1

    Geometry (in Angstrom), charge = 0, multiplicity = 1:

       Center              X                  Y                   Z               Mass
    ------------   -----------------  -----------------  -----------------  -----------------
         O           -0.234108743650    -0.475175864703    -0.000146570731    15.994914619570
         O            1.148090656350     1.315370435297     0.000094129269    15.994914619570
         C           -1.348356343650     0.416725435297     0.000031129269    12.000000000000
         C           -2.597079343650    -0.434974564703     0.000078129269    12.000000000000
         C            0.993295656350     0.105516435297    -0.000160870731    12.000000000000
         C            2.090801656350    -0.924317564703     0.000051129269    12.000000000000
         H           -1.283407343650     1.058038435297     0.883308129269     1.007825032230
         H           -1.283564343650     1.058170435297    -0.883162870731     1.007825032230
         H           -3.484554343650     0.204216435297     0.000203129269     1.007825032230
         H           -2.627120343650    -1.071342564703    -0.886815870731     1.007825032230
         H           -2.626966343650    -1.071471564703     0.886885129269     1.007825032230
         H            1.999509656350    -1.563160564703    -0.881509870731     1.007825032230
         H            2.000117656350    -1.562072564703     0.882473129269     1.007825032230
         H            3.056237656350    -0.420261564703    -0.000542870731     1.007825032230

  Basis Set: AUG-CC-PVTZ
    Blend: AUG-CC-PVTZ
  Basis Set: (AUG-CC-PVTZ AUX)
    Blend: AUG-CC-PVTZ-JKFIT
	 Reference Energy          =    -305.9914467739927773 [Eh]
	 Singles Energy            =      -0.0000000000000000 [Eh]
	 Same-Spin Energy          =      -0.2970938973320237 [Eh]
	 Opposite-Spin Energy      =      -0.9757058080509374 [Eh]
	 Correlation Energy        =      -1.2727997053829612 [Eh]
	 Total Energy              =    -307.2642464793757426 [Eh]

	 ================> DF-SCS-MP2 Energies <==================
	-----------------------------------------------------------
	 SCS Same-Spin Scale       =       0.3333333333333333 [-]
	 SCS Opposite-Spin Scale   =       1.2000000000000000 [-]
	 SCS Same-Spin Energy      =      -0.0990312991106746 [Eh]
	 SCS Opposite-Spin Energy  =      -1.1708469696611248 [Eh]
	 SCS Correlation Energy    =      -1.2698782687717993 [Eh]
	 SCS Total Energy          =    -307.2613250427645539 [Eh]
	-----------------------------------------------------------

  Dipole Moment: [D]
     X:    -0.9009      Y:    -1.7416      Z:     0.0000     Total:     1.9608

*** Psi4 exiting successfully. Buy a developer a beer!
