                               Psi4 1.3.2 release

  ==> Input File <==

--------------------------------------------------------------------------
#psi4
#
memory 32 gb

molecule  {
0 1
  O       -0.1658671    -0.4384245    -0.0001519
  O        1.1902440     1.3536890     0.0000850
  C       -1.3062030     0.4550440     0.0000220
  C       -2.5549260    -0.3966560     0.0000690
  C        1.0354490     0.1438350    -0.0001700
  C        2.1329550    -0.8859990     0.0000420
  H       -1.2412540     1.0963570     0.8832990
  H       -1.2414110     1.0964890    -0.8831720
  H       -3.4424010     0.2425350     0.0001940
  H       -2.5849670    -1.0330240    -0.8868250
  H       -2.5848130    -1.0331530     0.8868760
  H        2.0416630    -1.5248420    -0.8815190
  H        2.0422710    -1.5237540     0.8824640
  H        3.0983910    -0.3819430    -0.0005520
units angstrom
no_reorient  #important for SAPT in psi4, default
symmetry c1  #important for SAPT in psi4, default
}

set PROPERTIES_ORIGIN ["COM"]
properties('MP2/aug-cc-pvtz', properties = ['dipole'])
--------------------------------------------------------------------------

    Molecular point group: c1
  Charge       = 0
  Multiplicity = 1
  Basis Set: AUG-CC-PVTZ
    Blend: AUG-CC-PVTZ
  Basis Set: (AUG-CC-PVTZ AUX)
    Blend: AUG-CC-PVTZ-JKFIT

    Orbital Energies [Eh]
    ---------------------

    Doubly Occupied:

       1A    -20.601449     2A    -20.539082     3A    -11.378491
       4A    -11.289932     5A    -11.240482     6A    -11.226751
       7A     -1.458222     8A     -1.349297     9A     -1.056588
      10A     -1.000885    11A     -0.866191    12A     -0.780249
      13A     -0.687171    14A     -0.685230    15A     -0.664031
      16A     -0.609181    17A     -0.578890    18A     -0.564676
      19A     -0.552269    20A     -0.538764    21A     -0.511705
      22A     -0.499968    23A     -0.456937    24A     -0.445263

  @DF-RHF Final Energy:  -305.99221185849154

   => Energetics <=

    Nuclear Repulsion Energy =            243.6456626763464328
    One-Electron Energy =                -900.1123420624608116
    Two-Electron Energy =                 350.4744675276228350
    Total Energy =                       -305.9922118584915438
  Basis Set: (AUG-CC-PVTZ AUX)
    Blend: AUG-CC-PVTZ-RI
    Molecular point group: c1

    Geometry (in Angstrom), charge = 0, multiplicity = 1:

       Center              X                  Y                   Z               Mass
    ------------   -----------------  -----------------  -----------------  -----------------
         O           -0.212759439875    -0.476458379427    -0.000143461009    15.994914619570
         O            1.143351660125     1.315655120573     0.000093438991    15.994914619570
         C           -1.353095339875     0.417010120573     0.000030438991    12.000000000000
         C           -2.601818339875    -0.434689879427     0.000077438991    12.000000000000
         C            0.988556660125     0.105801120573    -0.000161561009    12.000000000000
         C            2.086062660125    -0.924032879427     0.000050438991    12.000000000000
         H           -1.288146339875     1.058323120573     0.883307438991     1.007825032230
         H           -1.288303339875     1.058455120573    -0.883163561009     1.007825032230
         H           -3.489293339875     0.204501120573     0.000202438991     1.007825032230
         H           -2.631859339875    -1.071057879427    -0.886816561009     1.007825032230
         H           -2.631705339875    -1.071186879427     0.886884438991     1.007825032230
         H            1.994770660125    -1.562875879427    -0.881510561009     1.007825032230
         H            1.995378660125    -1.561787879427     0.882472438991     1.007825032230
         H            3.051498660125    -0.419976879427    -0.000543561009     1.007825032230

  Basis Set: AUG-CC-PVTZ
    Blend: AUG-CC-PVTZ
  Basis Set: (AUG-CC-PVTZ AUX)
    Blend: AUG-CC-PVTZ-JKFIT
	 Reference Energy          =    -305.9922118584915438 [Eh]
	 Singles Energy            =      -0.0000000000000000 [Eh]
	 Same-Spin Energy          =      -0.2968902558087690 [Eh]
	 Opposite-Spin Energy      =      -0.9752744655409882 [Eh]
	 Correlation Energy        =      -1.2721647213497573 [Eh]
	 Total Energy              =    -307.2643765798413256 [Eh]

	 ================> DF-SCS-MP2 Energies <==================
	-----------------------------------------------------------
	 SCS Same-Spin Scale       =       0.3333333333333333 [-]
	 SCS Opposite-Spin Scale   =       1.2000000000000000 [-]
	 SCS Same-Spin Energy      =      -0.0989634186029230 [Eh]
	 SCS Opposite-Spin Energy  =      -1.1703293586491859 [Eh]
	 SCS Correlation Energy    =      -1.2692927772521090 [Eh]
	 SCS Total Energy          =    -307.2615046357436768 [Eh]
	-----------------------------------------------------------

  Dipole Moment: [D]
     X:    -1.1319      Y:    -1.7587      Z:     0.0000     Total:     2.0915

*** Psi4 exiting successfully. Buy a developer a beer!
