                               Psi4 1.3.2 release

  ==> Input File <==

--------------------------------------------------------------------------
#psi4
#
memory 32 gb

molecule  {
0 1
  O       -0.2175561    -0.4968107    -0.0864217
  O        1.1902440     1.3536890     0.0000850
  C       -1.3062030     0.4550440     0.0000220
  C       -2.5549260    -0.3966560     0.0000690
  C        1.0354490     0.1438350    -0.0001700
  C        2.1329550    -0.8859990     0.0000420
  H       -1.2412540     1.0963570     0.8832990
  H       -1.2414110     1.0964890    -0.8831720
  H       -3.4424010     0.2425350     0.0001940
  H       -2.5849670    -1.0330240    -0.8868250
  H       -2.5848130    -1.0331530     0.8868760
  H        2.0416630    -1.5248420    -0.8815190
  H        2.0422710    -1.5237540     0.8824640
  H        3.0983910    -0.3819430    -0.0005520
units angstrom
no_reorient  #important for SAPT in psi4, default
symmetry c1  #important for SAPT in psi4, default
}

set PROPERTIES_ORIGIN ["COM"]
properties('MP2/aug-cc-pvtz', properties = ['dipole'])
--------------------------------------------------------------------------

    Molecular point group: c1
  Charge       = 0
  Multiplicity = 1
  Basis Set: AUG-CC-PVTZ
    Blend: AUG-CC-PVTZ
  Basis Set: (AUG-CC-PVTZ AUX)
    Blend: AUG-CC-PVTZ-JKFIT

    Orbital Energies [Eh]
    ---------------------

    Doubly Occupied:

       1A    -20.599427     2A    -20.554443     3A    -11.389071
       4A    -11.284375     5A    -11.244369     6A    -11.221242
       7A     -1.438099     8A     -1.353191     9A     -1.049000
      10A     -1.000336    11A     -0.853384    12A     -0.777515
      13A     -0.690634    14A     -0.675925    15A     -0.657126
      16A     -0.608456    17A     -0.580997    18A     -0.567024
      19A     -0.547326    20A     -0.532321    21A     -0.512812
      22A     -0.500708    23A     -0.459502    24A     -0.449197

  @DF-RHF Final Energy:  -305.98316886211910

   => Energetics <=

    Nuclear Repulsion Energy =            242.1513791847242487
    One-Electron Energy =                -897.1761326110208756
    Two-Electron Energy =                 349.0415845641775832
    Total Energy =                       -305.9831688621191006
  Basis Set: (AUG-CC-PVTZ AUX)
    Blend: AUG-CC-PVTZ-RI
    Molecular point group: c1

    Geometry (in Angstrom), charge = 0, multiplicity = 1:

       Center              X                  Y                   Z               Mass
    ------------   -----------------  -----------------  -----------------  -----------------
         O           -0.255059021020    -0.524238599680    -0.070742164901    15.994914619570
         O            1.152741078980     1.326261100320     0.015764535099    15.994914619570
         C           -1.343705921020     0.427616100320     0.015701535099    12.000000000000
         C           -2.592428921020    -0.424083899680     0.015748535099    12.000000000000
         C            0.997946078980     0.116407100320     0.015509535099    12.000000000000
         C            2.095452078980    -0.913426899680     0.015721535099    12.000000000000
         H           -1.278756921020     1.068929100320     0.898978535099     1.007825032230
         H           -1.278913921020     1.069061100320    -0.867492464901     1.007825032230
         H           -3.479903921020     0.215107100320     0.015873535099     1.007825032230
         H           -2.622469921020    -1.060451899680    -0.871145464901     1.007825032230
         H           -2.622315921020    -1.060580899680     0.902555535099     1.007825032230
         H            2.004160078980    -1.552269899680    -0.865839464901     1.007825032230
         H            2.004768078980    -1.551181899680     0.898143535099     1.007825032230
         H            3.060888078980    -0.409370899680     0.015127535099     1.007825032230

  Basis Set: AUG-CC-PVTZ
    Blend: AUG-CC-PVTZ
  Basis Set: (AUG-CC-PVTZ AUX)
    Blend: AUG-CC-PVTZ-JKFIT
	 Reference Energy          =    -305.9831688621191006 [Eh]
	 Singles Energy            =      -0.0000000000000000 [Eh]
	 Same-Spin Energy          =      -0.2981601461379924 [Eh]
	 Opposite-Spin Energy      =      -0.9788968192457750 [Eh]
	 Correlation Energy        =      -1.2770569653837673 [Eh]
	 Total Energy              =    -307.2602258275028930 [Eh]

	 ================> DF-SCS-MP2 Energies <==================
	-----------------------------------------------------------
	 SCS Same-Spin Scale       =       0.3333333333333333 [-]
	 SCS Opposite-Spin Scale   =       1.2000000000000000 [-]
	 SCS Same-Spin Energy      =      -0.0993867153793308 [Eh]
	 SCS Opposite-Spin Energy  =      -1.1746761830949299 [Eh]
	 SCS Correlation Energy    =      -1.2740628984742608 [Eh]
	 SCS Total Energy          =    -307.2572317605933563 [Eh]
	-----------------------------------------------------------

  Dipole Moment: [D]
     X:    -0.6447      Y:    -1.5253      Z:     0.1087     Total:     1.6596

*** Psi4 exiting successfully. Buy a developer a beer!
