                               Psi4 1.3.2 release

  ==> Input File <==

--------------------------------------------------------------------------
#psi4
#
memory 32 gb

molecule  {
0 1
  O       -0.1120379    -0.5821119    -0.0001890
  O        1.1902440     1.3536890     0.0000850
  C       -1.3062030     0.4550440     0.0000220
  C       -2.5549260    -0.3966560     0.0000690
  C        1.0354490     0.1438350    -0.0001700
  C        2.1329550    -0.8859990     0.0000420
  H       -1.2412540     1.0963570     0.8832990
  H       -1.2414110     1.0964890    -0.8831720
  H       -3.4424010     0.2425350     0.0001940
  H       -2.5849670    -1.0330240    -0.8868250
  H       -2.5848130    -1.0331530     0.8868760
  H        2.0416630    -1.5248420    -0.8815190
  H        2.0422710    -1.5237540     0.8824640
  H        3.0983910    -0.3819430    -0.0005520
units angstrom
no_reorient  #important for SAPT in psi4, default
symmetry c1  #important for SAPT in psi4, default
}

set PROPERTIES_ORIGIN ["COM"]
properties('MP2/aug-cc-pvtz', properties = ['dipole'])
--------------------------------------------------------------------------

    Molecular point group: c1
  Charge       = 0
  Multiplicity = 1
  Basis Set: AUG-CC-PVTZ
    Blend: AUG-CC-PVTZ
  Basis Set: (AUG-CC-PVTZ AUX)
    Blend: AUG-CC-PVTZ-JKFIT

    Orbital Energies [Eh]
    ---------------------

    Doubly Occupied:

       1A    -20.604798     2A    -20.545314     3A    -11.378058
       4A    -11.303697     5A    -11.230799     6A    -11.230500
       7A     -1.434132     8A     -1.345032     9A     -1.051528
      10A     -0.995721    11A     -0.854470    12A     -0.772673
      13A     -0.680801    14A     -0.671365    15A     -0.654656
      16A     -0.610507    17A     -0.572981    18A     -0.571377
      19A     -0.544459    20A     -0.531419    21A     -0.510625
      22A     -0.504356    23A     -0.468025    24A     -0.441172

  @DF-RHF Final Energy:  -305.97142627989587

   => Energetics <=

    Nuclear Repulsion Energy =            241.2452892087877672
    One-Electron Energy =                -895.4165000960613270
    Two-Electron Energy =                 348.1997846073776941
    Total Energy =                       -305.9714262798958657
  Basis Set: (AUG-CC-PVTZ AUX)
    Blend: AUG-CC-PVTZ-RI
    Molecular point group: c1

    Geometry (in Angstrom), charge = 0, multiplicity = 1:

       Center              X                  Y                   Z               Mass
    ------------   -----------------  -----------------  -----------------  -----------------
         O           -0.168708430698    -0.594044651860    -0.000173821714    15.994914619570
         O            1.133573469302     1.341756248140     0.000100178286    15.994914619570
         C           -1.362873530698     0.443111248140     0.000037178286    12.000000000000
         C           -2.611596530698    -0.408588751860     0.000084178286    12.000000000000
         C            0.978778469302     0.131902248140    -0.000154821714    12.000000000000
         C            2.076284469302    -0.897931751860     0.000057178286    12.000000000000
         H           -1.297924530698     1.084424248140     0.883314178286     1.007825032230
         H           -1.298081530698     1.084556248140    -0.883156821714     1.007825032230
         H           -3.499071530698     0.230602248140     0.000209178286     1.007825032230
         H           -2.641637530698    -1.044956751860    -0.886809821714     1.007825032230
         H           -2.641483530698    -1.045085751860     0.886891178286     1.007825032230
         H            1.984992469302    -1.536774751860    -0.881503821714     1.007825032230
         H            1.985600469302    -1.535686751860     0.882479178286     1.007825032230
         H            3.041720469302    -0.393875751860    -0.000536821714     1.007825032230

  Basis Set: AUG-CC-PVTZ
    Blend: AUG-CC-PVTZ
  Basis Set: (AUG-CC-PVTZ AUX)
    Blend: AUG-CC-PVTZ-JKFIT
	 Reference Energy          =    -305.9714262798958657 [Eh]
	 Singles Energy            =      -0.0000000000000000 [Eh]
	 Same-Spin Energy          =      -0.2987537283156946 [Eh]
	 Opposite-Spin Energy      =      -0.9811042645506255 [Eh]
	 Correlation Energy        =      -1.2798579928663201 [Eh]
	 Total Energy              =    -307.2512842727621774 [Eh]

	 ================> DF-SCS-MP2 Energies <==================
	-----------------------------------------------------------
	 SCS Same-Spin Scale       =       0.3333333333333333 [-]
	 SCS Opposite-Spin Scale   =       1.2000000000000000 [-]
	 SCS Same-Spin Energy      =      -0.0995845761052315 [Eh]
	 SCS Opposite-Spin Energy  =      -1.1773251174607506 [Eh]
	 SCS Correlation Energy    =      -1.2769096935659823 [Eh]
	 SCS Total Energy          =    -307.2483359734618489 [Eh]
	-----------------------------------------------------------

  Dipole Moment: [D]
     X:    -1.4595      Y:    -1.3611      Z:     0.0001     Total:     1.9957

*** Psi4 exiting successfully. Buy a developer a beer!
