                               Psi4 1.3.2 release

  ==> Input File <==

--------------------------------------------------------------------------
#psi4
#
memory 32 gb

molecule  {
0 1
  O       -0.1816340    -0.4581900    -0.0001520
  O        1.1902440     1.3536890     0.0000850
  C       -1.4614581     0.5811227     0.0000460
  C       -2.5549260    -0.3966560     0.0000690
  C        1.0354490     0.1438350    -0.0001700
  C        2.1329550    -0.8859990     0.0000420
  H       -1.2412540     1.0963570     0.8832990
  H       -1.2414110     1.0964890    -0.8831720
  H       -3.4424010     0.2425350     0.0001940
  H       -2.5849670    -1.0330240    -0.8868250
  H       -2.5848130    -1.0331530     0.8868760
  H        2.0416630    -1.5248420    -0.8815190
  H        2.0422710    -1.5237540     0.8824640
  H        3.0983910    -0.3819430    -0.0005520
units angstrom
no_reorient  #important for SAPT in psi4, default
symmetry c1  #important for SAPT in psi4, default
}

set PROPERTIES_ORIGIN ["COM"]
properties('MP2/aug-cc-pvtz', properties = ['dipole'])
--------------------------------------------------------------------------

    Molecular point group: c1
  Charge       = 0
  Multiplicity = 1
  Basis Set: AUG-CC-PVTZ
    Blend: AUG-CC-PVTZ
  Basis Set: (AUG-CC-PVTZ AUX)
    Blend: AUG-CC-PVTZ-JKFIT

    Orbital Energies [Eh]
    ---------------------

    Doubly Occupied:

       1A    -20.574414     2A    -20.529881     3A    -11.366775
       4A    -11.301371     5A    -11.234400     6A    -11.231691
       7A     -1.415453     8A     -1.318946     9A     -1.064992
      10A     -0.997302    11A     -0.866938    12A     -0.755773
      13A     -0.682480    14A     -0.669319    15A     -0.642610
      16A     -0.611670    17A     -0.583335    18A     -0.571212
      19A     -0.543857    20A     -0.542290    21A     -0.516343
      22A     -0.483718    23A     -0.449718    24A     -0.431767

  @DF-RHF Final Energy:  -305.96268158113475

   => Energetics <=

    Nuclear Repulsion Energy =            240.5085130781855582
    One-Electron Energy =                -894.1698800698447940
    Two-Electron Energy =                 347.6986854105244333
    Total Energy =                       -305.9626815811347456
  Basis Set: (AUG-CC-PVTZ AUX)
    Blend: AUG-CC-PVTZ-RI
    Molecular point group: c1

    Geometry (in Angstrom), charge = 0, multiplicity = 1:

       Center              X                  Y                   Z               Mass
    ------------   -----------------  -----------------  -----------------  -----------------
         O           -0.204503704368    -0.509815746477    -0.000146813623    15.994914619570
         O            1.167374295632     1.302063253523     0.000090186377    15.994914619570
         C           -1.484327804368     0.529496953523     0.000051186377    12.000000000000
         C           -2.577795704368    -0.448281746477     0.000074186377    12.000000000000
         C            1.012579295632     0.092209253523    -0.000164813623    12.000000000000
         C            2.110085295632    -0.937624746477     0.000047186377    12.000000000000
         H           -1.264123704368     1.044731253523     0.883304186377     1.007825032230
         H           -1.264280704368     1.044863253523    -0.883166813623     1.007825032230
         H           -3.465270704368     0.190909253523     0.000199186377     1.007825032230
         H           -2.607836704368    -1.084649746477    -0.886819813623     1.007825032230
         H           -2.607682704368    -1.084778746477     0.886881186377     1.007825032230
         H            2.018793295632    -1.576467746477    -0.881513813623     1.007825032230
         H            2.019401295632    -1.575379746477     0.882469186377     1.007825032230
         H            3.075521295632    -0.433568746477    -0.000546813623     1.007825032230

  Basis Set: AUG-CC-PVTZ
    Blend: AUG-CC-PVTZ
  Basis Set: (AUG-CC-PVTZ AUX)
    Blend: AUG-CC-PVTZ-JKFIT
	 Reference Energy          =    -305.9626815811347456 [Eh]
	 Singles Energy            =      -0.0000000000000000 [Eh]
	 Same-Spin Energy          =      -0.2985014115791779 [Eh]
	 Opposite-Spin Energy      =      -0.9797025400344179 [Eh]
	 Correlation Energy        =      -1.2782039516135959 [Eh]
	 Total Energy              =    -307.2408855327483366 [Eh]

	 ================> DF-SCS-MP2 Energies <==================
	-----------------------------------------------------------
	 SCS Same-Spin Scale       =       0.3333333333333333 [-]
	 SCS Opposite-Spin Scale   =       1.2000000000000000 [-]
	 SCS Same-Spin Energy      =      -0.0995004705263926 [Eh]
	 SCS Opposite-Spin Energy  =      -1.1756430480413014 [Eh]
	 SCS Correlation Energy    =      -1.2751435185676940 [Eh]
	 SCS Total Energy          =    -307.2378250997024338 [Eh]
	-----------------------------------------------------------

  Dipole Moment: [D]
     X:    -1.7931      Y:    -1.4834      Z:     0.0001     Total:     2.3272

*** Psi4 exiting successfully. Buy a developer a beer!
