                               Psi4 1.3.2 release

  ==> Input File <==

--------------------------------------------------------------------------
#psi4
#
memory 32 gb

molecule  {
0 1
  O       -0.1816340    -0.4581900    -0.0001520
  O        1.1902440     1.3536890     0.0000850
  C       -1.3062030     0.4550440     0.0000220
  C       -2.5549260    -0.3966560     0.0000690
  C        1.1250829     0.1881720    -0.0001713
  C        2.1329550    -0.8859990     0.0000420
  H       -1.2412540     1.0963570     0.8832990
  H       -1.2414110     1.0964890    -0.8831720
  H       -3.4424010     0.2425350     0.0001940
  H       -2.5849670    -1.0330240    -0.8868250
  H       -2.5848130    -1.0331530     0.8868760
  H        2.0416630    -1.5248420    -0.8815190
  H        2.0422710    -1.5237540     0.8824640
  H        3.0983910    -0.3819430    -0.0005520
units angstrom
no_reorient  #important for SAPT in psi4, default
symmetry c1  #important for SAPT in psi4, default
}

set PROPERTIES_ORIGIN ["COM"]
properties('MP2/aug-cc-pvtz', properties = ['dipole'])
--------------------------------------------------------------------------

    Molecular point group: c1
  Charge       = 0
  Multiplicity = 1
  Basis Set: AUG-CC-PVTZ
    Blend: AUG-CC-PVTZ
  Basis Set: (AUG-CC-PVTZ AUX)
    Blend: AUG-CC-PVTZ-JKFIT

    Orbital Energies [Eh]
    ---------------------

    Doubly Occupied:

       1A    -20.574715     2A    -20.562639     3A    -11.383194
       4A    -11.275798     5A    -11.247011     6A    -11.216887
       7A     -1.454492     8A     -1.346564     9A     -1.050124
      10A     -1.002095    11A     -0.844882    12A     -0.766174
      13A     -0.699624    14A     -0.667848    15A     -0.665656
      16A     -0.614155    17A     -0.586404    18A     -0.564233
      19A     -0.546727    20A     -0.529266    21A     -0.510687
      22A     -0.503925    23A     -0.448192    24A     -0.447894

  @DF-RHF Final Energy:  -305.98034913059183

   => Energetics <=

    Nuclear Repulsion Energy =            242.6420983012482964
    One-Electron Energy =                -898.2265226580270792
    Two-Electron Energy =                 349.6040752261869216
    Total Energy =                       -305.9803491305918328
  Basis Set: (AUG-CC-PVTZ AUX)
    Blend: AUG-CC-PVTZ-RI
    Molecular point group: c1

    Geometry (in Angstrom), charge = 0, multiplicity = 1:

       Center              X                  Y                   Z               Mass
    ------------   -----------------  -----------------  -----------------  -----------------
         O           -0.237877774985    -0.498675788095    -0.000143365677    15.994914619570
         O            1.134000225015     1.313203211905     0.000093634323    15.994914619570
         C           -1.362446774985     0.414558211905     0.000030634323    12.000000000000
         C           -2.611169774985    -0.437141788095     0.000077634323    12.000000000000
         C            1.068839125015     0.147686211905    -0.000162665677    12.000000000000
         C            2.076711225015    -0.926484788095     0.000050634323    12.000000000000
         H           -1.297497774985     1.055871211905     0.883307634323     1.007825032230
         H           -1.297654774985     1.056003211905    -0.883163365677     1.007825032230
         H           -3.498644774985     0.202049211905     0.000202634323     1.007825032230
         H           -2.641210774985    -1.073509788095    -0.886816365677     1.007825032230
         H           -2.641056774985    -1.073638788095     0.886884634323     1.007825032230
         H            1.985419225015    -1.565327788095    -0.881510365677     1.007825032230
         H            1.986027225015    -1.564239788095     0.882472634323     1.007825032230
         H            3.042147225015    -0.422428788095    -0.000543365677     1.007825032230

  Basis Set: AUG-CC-PVTZ
    Blend: AUG-CC-PVTZ
  Basis Set: (AUG-CC-PVTZ AUX)
    Blend: AUG-CC-PVTZ-JKFIT
	 Reference Energy          =    -305.9803491305918328 [Eh]
	 Singles Energy            =      -0.0000000000000000 [Eh]
	 Same-Spin Energy          =      -0.2974972037167719 [Eh]
	 Opposite-Spin Energy      =      -0.9769710112210613 [Eh]
	 Correlation Energy        =      -1.2744682149378332 [Eh]
	 Total Energy              =    -307.2548173455296592 [Eh]

	 ================> DF-SCS-MP2 Energies <==================
	-----------------------------------------------------------
	 SCS Same-Spin Scale       =       0.3333333333333333 [-]
	 SCS Opposite-Spin Scale   =       1.2000000000000000 [-]
	 SCS Same-Spin Energy      =      -0.0991657345722573 [Eh]
	 SCS Opposite-Spin Energy  =      -1.1723652134652736 [Eh]
	 SCS Correlation Energy    =      -1.2715309480375310 [Eh]
	 SCS Total Energy          =    -307.2518800786293696 [Eh]
	-----------------------------------------------------------

  Dipole Moment: [D]
     X:    -0.0558      Y:    -1.3583      Z:     0.0001     Total:     1.3595

*** Psi4 exiting successfully. Buy a developer a beer!
