                               Psi4 1.3.2 release

  ==> Input File <==

--------------------------------------------------------------------------
#psi4
#
memory 32 gb

molecule  {
0 1
  O       -0.1657176    -0.4371986     0.0430095
  O        1.1902440     1.3536890     0.0000850
  C       -1.3062030     0.4550440     0.0000220
  C       -2.5549260    -0.3966560     0.0000690
  C        1.0354490     0.1438350    -0.0001700
  C        2.1329550    -0.8859990     0.0000420
  H       -1.2412540     1.0963570     0.8832990
  H       -1.2414110     1.0964890    -0.8831720
  H       -3.4424010     0.2425350     0.0001940
  H       -2.5849670    -1.0330240    -0.8868250
  H       -2.5848130    -1.0331530     0.8868760
  H        2.0416630    -1.5248420    -0.8815190
  H        2.0422710    -1.5237540     0.8824640
  H        3.0983910    -0.3819430    -0.0005520
units angstrom
no_reorient  #important for SAPT in psi4, default
symmetry c1  #important for SAPT in psi4, default
}

set PROPERTIES_ORIGIN ["COM"]
properties('MP2/aug-cc-pvtz', properties = ['dipole'])
--------------------------------------------------------------------------

    Molecular point group: c1
  Charge       = 0
  Multiplicity = 1
  Basis Set: AUG-CC-PVTZ
    Blend: AUG-CC-PVTZ
  Basis Set: (AUG-CC-PVTZ AUX)
    Blend: AUG-CC-PVTZ-JKFIT

    Orbital Energies [Eh]
    ---------------------

    Doubly Occupied:

       1A    -20.601336     2A    -20.539055     3A    -11.378487
       4A    -11.289911     5A    -11.240530     6A    -11.226756
       7A     -1.458209     8A     -1.349221     9A     -1.056549
      10A     -1.000925    11A     -0.866220    12A     -0.780190
      13A     -0.687180    14A     -0.685166    15A     -0.663990
      16A     -0.609198    17A     -0.578906    18A     -0.564685
      19A     -0.552305    20A     -0.538850    21A     -0.511746
      22A     -0.499827    23A     -0.456748    24A     -0.445230

  @DF-RHF Final Energy:  -305.99192867386313

   => Energetics <=

    Nuclear Repulsion Energy =            243.6447280020739186
    One-Electron Energy =                -900.1108682212275198
    Two-Electron Energy =                 350.4742115452905296
    Total Energy =                       -305.9919286738631286
  Basis Set: (AUG-CC-PVTZ AUX)
    Blend: AUG-CC-PVTZ-RI
    Molecular point group: c1

    Geometry (in Angstrom), charge = 0, multiplicity = 1:

       Center              X                  Y                   Z               Mass
    ------------   -----------------  -----------------  -----------------  -----------------
         O           -0.212637096874    -0.475455166819     0.035177577154    15.994914619570
         O            1.143324503126     1.315432433181    -0.007746922846    15.994914619570
         C           -1.353122496874     0.416787433181    -0.007809922846    12.000000000000
         C           -2.601845496874    -0.434912566819    -0.007762922846    12.000000000000
         C            0.988529503126     0.105578433181    -0.008001922846    12.000000000000
         C            2.086035503126    -0.924255566819    -0.007789922846    12.000000000000
         H           -1.288173496874     1.058100433181     0.875467077154     1.007825032230
         H           -1.288330496874     1.058232433181    -0.891003922846     1.007825032230
         H           -3.489320496874     0.204278433181    -0.007637922846     1.007825032230
         H           -2.631886496874    -1.071280566819    -0.894656922846     1.007825032230
         H           -2.631732496874    -1.071409566819     0.879044077154     1.007825032230
         H            1.994743503126    -1.563098566819    -0.889350922846     1.007825032230
         H            1.995351503126    -1.562010566819     0.874632077154     1.007825032230
         H            3.051471503126    -0.420199566819    -0.008383922846     1.007825032230

  Basis Set: AUG-CC-PVTZ
    Blend: AUG-CC-PVTZ
  Basis Set: (AUG-CC-PVTZ AUX)
    Blend: AUG-CC-PVTZ-JKFIT
	 Reference Energy          =    -305.9919286738631286 [Eh]
	 Singles Energy            =      -0.0000000000000000 [Eh]
	 Same-Spin Energy          =      -0.2968929910664757 [Eh]
	 Opposite-Spin Energy      =      -0.9752829991954484 [Eh]
	 Correlation Energy        =      -1.2721759902619241 [Eh]
	 Total Energy              =    -307.2641046641250568 [Eh]

	 ================> DF-SCS-MP2 Energies <==================
	-----------------------------------------------------------
	 SCS Same-Spin Scale       =       0.3333333333333333 [-]
	 SCS Opposite-Spin Scale   =       1.2000000000000000 [-]
	 SCS Same-Spin Energy      =      -0.0989643303554919 [Eh]
	 SCS Opposite-Spin Energy  =      -1.1703395990345380 [Eh]
	 SCS Correlation Energy    =      -1.2693039293900299 [Eh]
	 SCS Total Energy          =    -307.2612326032531769 [Eh]
	-----------------------------------------------------------

  Dipole Moment: [D]
     X:    -1.1304      Y:    -1.7605      Z:    -0.0501     Total:     2.0928

*** Psi4 exiting successfully. Buy a developer a beer!
