                               Psi4 1.4a3.dev225

  ==> Input File <==

--------------------------------------------------------------------------
#psi4
#
memory 32 gb

molecule  {
0 1
  O       -0.1816510    -0.4579540    -0.0000570
  O        1.1902550     1.3536590     0.0000010
  C       -1.3217009     0.4676472     0.0000261
  C       -2.5549650    -0.3967600     0.0000230
  C        1.0354680     0.1438080    -0.0000450
  C        2.1329650    -0.8861250     0.0000100
  H       -1.2416190     1.0963160     0.8832990
  H       -1.2416760     1.0964030    -0.8831890
  H       -3.4421510     0.2427570     0.0000820
  H       -2.5852380    -1.0333410    -0.8867630
  H       -2.5851830    -1.0334280     0.8867480
  H        2.0420880    -1.5247240    -0.8817090
  H        2.0428830    -1.5236850     0.8825710
  H        3.0983080    -0.3817210    -0.0006790
units angstrom
no_reorient  #important for SAPT in psi4, default
symmetry c1  #important for SAPT in psi4, default
}

set PROPERTIES_ORIGIN ["COM"]
properties('MP2/aug-cc-pvtz', properties = ['dipole'])
--------------------------------------------------------------------------

    Molecular point group: c1
  Charge       = 0
  Multiplicity = 1
  Basis Set: AUG-CC-PVTZ
    Blend: AUG-CC-PVTZ
  Basis Set: (AUG-CC-PVTZ AUX)
    Blend: AUG-CC-PVTZ-JKFIT

    Orbital Energies [Eh]
    ---------------------

    Doubly Occupied:

       1A    -20.598720     2A    -20.542610     3A    -11.380442
       4A    -11.288772     5A    -11.240696     6A    -11.225704
       7A     -1.446639     8A     -1.347938     9A     -1.054450
      10A     -1.000937    11A     -0.861519    12A     -0.777401
      13A     -0.686549    14A     -0.681065    15A     -0.659586
      16A     -0.609546    17A     -0.578511    18A     -0.565446
      19A     -0.549995    20A     -0.533944    21A     -0.515287
      22A     -0.501573    23A     -0.458795    24A     -0.445463

  @DF-RHF Final Energy:  -305.99014214608081

   => Energetics <=

    Nuclear Repulsion Energy =            242.8934646476104149
    One-Electron Energy =                -898.6640423837833396
    Two-Electron Energy =                 349.7804355900921678
    Total Energy =                       -305.9901421460808137
  Basis Set: (AUG-CC-PVTZ AUX)
    Blend: AUG-CC-PVTZ-RI
    Molecular point group: c1

    Geometry (in Angstrom), charge = 0, multiplicity = 1:

       Center              X                  Y                   Z               Mass
    ------------   -----------------  -----------------  -----------------  -----------------
         O           -0.223563937086    -0.494116416913    -0.000052869527    15.994914619570
         O            1.148342062914     1.317496583087     0.000005130473    15.994914619570
         C           -1.363613837086     0.431484783087     0.000030230473    12.000000000000
         C           -2.596877937086    -0.432922416913     0.000027130473    12.000000000000
         C            0.993555062914     0.107645583087    -0.000040869527    12.000000000000
         C            2.091052062914    -0.922287416913     0.000014130473    12.000000000000
         H           -1.283531937086     1.060153583087     0.883303130473     1.007825032230
         H           -1.283588937086     1.060240583087    -0.883184869527     1.007825032230
         H           -3.484063937086     0.206594583087     0.000086130473     1.007825032230
         H           -2.627150937086    -1.069503416913    -0.886758869527     1.007825032230
         H           -2.627095937086    -1.069590416913     0.886752130473     1.007825032230
         H            2.000175062914    -1.560886416913    -0.881704869527     1.007825032230
         H            2.000970062914    -1.559847416913     0.882575130473     1.007825032230
         H            3.056395062914    -0.417883416913    -0.000674869527     1.007825032230

  Basis Set: AUG-CC-PVTZ
    Blend: AUG-CC-PVTZ
  Basis Set: (AUG-CC-PVTZ AUX)
    Blend: AUG-CC-PVTZ-JKFIT
	 Reference Energy          =    -305.9901421460808137 [Eh]
	 Singles Energy            =      -0.0000000000000000 [Eh]
	 Same-Spin Energy          =      -0.2972972737319122 [Eh]
	 Opposite-Spin Energy      =      -0.9765522857886151 [Eh]
	 Correlation Energy        =      -1.2738495595205273 [Eh]
	 Total Energy              =    -307.2639917056013132 [Eh]

	 ================> DF-SCS-MP2 Energies <==================
	-----------------------------------------------------------
	 SCS Same-Spin Scale       =       0.3333333333333333 [-]
	 SCS Opposite-Spin Scale   =       1.2000000000000000 [-]
	 SCS Same-Spin Energy      =      -0.0990990912439707 [Eh]
	 SCS Opposite-Spin Energy  =      -1.1718627429463380 [Eh]
	 SCS Correlation Energy    =      -1.2709618341903086 [Eh]
	 SCS Total Energy          =    -307.2611039802711161 [Eh]
	-----------------------------------------------------------

  Dipole Moment: [D]
     X:    -1.0650      Y:    -1.6597      Z:     0.0001     Total:     1.9720

*** Psi4 exiting successfully. Buy a developer a beer!
