                               Psi4 1.3.2 release

  ==> Input File <==

--------------------------------------------------------------------------
#psi4
#
memory 32 gb

molecule  {
0 1
  O       -0.1901073    -0.4682700    -0.0217359
  O        1.1902440     1.3536890     0.0000850
  C       -1.3062030     0.4550440     0.0000220
  C       -2.5549260    -0.3966560     0.0000690
  C        1.0354490     0.1438350    -0.0001700
  C        2.1329550    -0.8859990     0.0000420
  H       -1.2412540     1.0963570     0.8832990
  H       -1.2414110     1.0964890    -0.8831720
  H       -3.4424010     0.2425350     0.0001940
  H       -2.5849670    -1.0330240    -0.8868250
  H       -2.5848130    -1.0331530     0.8868760
  H        2.0416630    -1.5248420    -0.8815190
  H        2.0422710    -1.5237540     0.8824640
  H        3.0983910    -0.3819430    -0.0005520
units angstrom
no_reorient  #important for SAPT in psi4, default
symmetry c1  #important for SAPT in psi4, default
}

set PROPERTIES_ORIGIN ["COM"]
properties('MP2/aug-cc-pvtz', properties = ['dipole'])
--------------------------------------------------------------------------

    Molecular point group: c1
  Charge       = 0
  Multiplicity = 1
  Basis Set: AUG-CC-PVTZ
    Blend: AUG-CC-PVTZ
  Basis Set: (AUG-CC-PVTZ AUX)
    Blend: AUG-CC-PVTZ-JKFIT

    Orbital Energies [Eh]
    ---------------------

    Doubly Occupied:

       1A    -20.600750     2A    -20.546593     3A    -11.383634
       4A    -11.287227     5A    -11.242225     6A    -11.224096
       7A     -1.447668     8A     -1.351931     9A     -1.052832
      10A     -1.000629    11A     -0.859741    12A     -0.779033
      13A     -0.689010    14A     -0.680675    15A     -0.660554
      16A     -0.608582    17A     -0.579963    18A     -0.565628
      19A     -0.549923    20A     -0.535254    21A     -0.512822
      22A     -0.500158    23A     -0.458917    24A     -0.447664

  @DF-RHF Final Energy:  -305.98950040260178

   => Energetics <=

    Nuclear Repulsion Energy =            242.9268498635968569
    One-Electron Energy =                -898.7016861016701341
    Two-Electron Energy =                 349.7853358354714715
    Total Energy =                       -305.9895004026017773
  Basis Set: (AUG-CC-PVTZ AUX)
    Blend: AUG-CC-PVTZ-RI
    Molecular point group: c1

    Geometry (in Angstrom), charge = 0, multiplicity = 1:

       Center              X                  Y                   Z               Mass
    ------------   -----------------  -----------------  -----------------  -----------------
         O           -0.232596355019    -0.500882379680    -0.017806680639    15.994914619570
         O            1.147754944981     1.321076620320     0.004014219361    15.994914619570
         C           -1.348692055019     0.422431620320     0.003951219361    12.000000000000
         C           -2.597415055019    -0.429268379680     0.003998219361    12.000000000000
         C            0.992959944981     0.111222620320     0.003759219361    12.000000000000
         C            2.090465944981    -0.918611379680     0.003971219361    12.000000000000
         H           -1.283743055019     1.063744620320     0.887228219361     1.007825032230
         H           -1.283900055019     1.063876620320    -0.879242780639     1.007825032230
         H           -3.484890055019     0.209922620320     0.004123219361     1.007825032230
         H           -2.627456055019    -1.065636379680    -0.882895780639     1.007825032230
         H           -2.627302055019    -1.065765379680     0.890805219361     1.007825032230
         H            1.999173944981    -1.557454379680    -0.877589780639     1.007825032230
         H            1.999781944981    -1.556366379680     0.886393219361     1.007825032230
         H            3.055901944981    -0.414555379680     0.003377219361     1.007825032230

  Basis Set: AUG-CC-PVTZ
    Blend: AUG-CC-PVTZ
  Basis Set: (AUG-CC-PVTZ AUX)
    Blend: AUG-CC-PVTZ-JKFIT
	 Reference Energy          =    -305.9895004026017773 [Eh]
	 Singles Energy            =      -0.0000000000000000 [Eh]
	 Same-Spin Energy          =      -0.2974553365995039 [Eh]
	 Opposite-Spin Energy      =      -0.9769115802491382 [Eh]
	 Correlation Energy        =      -1.2743669168486420 [Eh]
	 Total Energy              =    -307.2638673194504122 [Eh]

	 ================> DF-SCS-MP2 Energies <==================
	-----------------------------------------------------------
	 SCS Same-Spin Scale       =       0.3333333333333333 [-]
	 SCS Opposite-Spin Scale   =       1.2000000000000000 [-]
	 SCS Same-Spin Energy      =      -0.0991517788665013 [Eh]
	 SCS Opposite-Spin Energy  =      -1.1722938962989657 [Eh]
	 SCS Correlation Energy    =      -1.2714456751654670 [Eh]
	 SCS Total Energy          =    -307.2609460777672439 [Eh]
	-----------------------------------------------------------

  Dipole Moment: [D]
     X:    -0.9033      Y:    -1.6429      Z:     0.0261     Total:     1.8750

*** Psi4 exiting successfully. Buy a developer a beer!
