                               Psi4 1.3.2 release

  ==> Input File <==

--------------------------------------------------------------------------
#psi4
#
memory 32 gb

molecule  {
0 1
  O       -0.0923356    -0.3356377    -0.0001505
  O        1.1902440     1.3536890     0.0000850
  C       -1.3062030     0.4550440     0.0000220
  C       -2.5549260    -0.3966560     0.0000690
  C        1.0354490     0.1438350    -0.0001700
  C        2.1329550    -0.8859990     0.0000420
  H       -1.2412540     1.0963570     0.8832990
  H       -1.2414110     1.0964890    -0.8831720
  H       -3.4424010     0.2425350     0.0001940
  H       -2.5849670    -1.0330240    -0.8868250
  H       -2.5848130    -1.0331530     0.8868760
  H        2.0416630    -1.5248420    -0.8815190
  H        2.0422710    -1.5237540     0.8824640
  H        3.0983910    -0.3819430    -0.0005520
units angstrom
no_reorient  #important for SAPT in psi4, default
symmetry c1  #important for SAPT in psi4, default
}

set PROPERTIES_ORIGIN ["COM"]
properties('MP2/aug-cc-pvtz', properties = ['dipole'])
--------------------------------------------------------------------------

    Molecular point group: c1
  Charge       = 0
  Multiplicity = 1
  Basis Set: AUG-CC-PVTZ
    Blend: AUG-CC-PVTZ
  Basis Set: (AUG-CC-PVTZ AUX)
    Blend: AUG-CC-PVTZ-JKFIT

    Orbital Energies [Eh]
    ---------------------

    Doubly Occupied:

       1A    -20.601994     2A    -20.512101     3A    -11.360450
       4A    -11.300189     5A    -11.235847     6A    -11.235051
       7A     -1.502550     8A     -1.334680     9A     -1.070910
      10A     -1.001557    11A     -0.890530    12A     -0.783478
      13A     -0.703362    14A     -0.685902    15A     -0.671449
      16A     -0.614115    17A     -0.576532    18A     -0.562947
      19A     -0.558482    20A     -0.551466    21A     -0.503352
      22A     -0.500100    23A     -0.444822    24A     -0.432765

  @DF-RHF Final Energy:  -305.98123807996649

   => Energetics <=

    Nuclear Repulsion Energy =            246.1516101596732824
    One-Electron Energy =                -904.9964291465778388
    Two-Electron Energy =                 352.8635809069380684
    Total Energy =                       -305.9812380799664879
  Basis Set: (AUG-CC-PVTZ AUX)
    Blend: AUG-CC-PVTZ-RI
    Molecular point group: c1

    Geometry (in Angstrom), charge = 0, multiplicity = 1:

       Center              X                  Y                   Z               Mass
    ------------   -----------------  -----------------  -----------------  -----------------
         O           -0.152585096186    -0.392343024377    -0.000142315322    15.994914619570
         O            1.129994503814     1.296983675623     0.000093184678    15.994914619570
         C           -1.366452496186     0.398338675623     0.000030184678    12.000000000000
         C           -2.615175496186    -0.453361324377     0.000077184678    12.000000000000
         C            0.975199503814     0.087129675623    -0.000161815322    12.000000000000
         C            2.072705503814    -0.942704324377     0.000050184678    12.000000000000
         H           -1.301503496186     1.039651675623     0.883307184678     1.007825032230
         H           -1.301660496186     1.039783675623    -0.883163815322     1.007825032230
         H           -3.502650496186     0.185829675623     0.000202184678     1.007825032230
         H           -2.645216496186    -1.089729324377    -0.886816815322     1.007825032230
         H           -2.645062496186    -1.089858324377     0.886884184678     1.007825032230
         H            1.981413503814    -1.581547324377    -0.881510815322     1.007825032230
         H            1.982021503814    -1.580459324377     0.882472184678     1.007825032230
         H            3.038141503814    -0.438648324377    -0.000543815322     1.007825032230

  Basis Set: AUG-CC-PVTZ
    Blend: AUG-CC-PVTZ
  Basis Set: (AUG-CC-PVTZ AUX)
    Blend: AUG-CC-PVTZ-JKFIT
	 Reference Energy          =    -305.9812380799664879 [Eh]
	 Singles Energy            =      -0.0000000000000000 [Eh]
	 Same-Spin Energy          =      -0.2954570548257439 [Eh]
	 Opposite-Spin Energy      =      -0.9707957323307352 [Eh]
	 Correlation Energy        =      -1.2662527871564793 [Eh]
	 Total Energy              =    -307.2474908671229628 [Eh]

	 ================> DF-SCS-MP2 Energies <==================
	-----------------------------------------------------------
	 SCS Same-Spin Scale       =       0.3333333333333333 [-]
	 SCS Opposite-Spin Scale   =       1.2000000000000000 [-]
	 SCS Same-Spin Energy      =      -0.0984856849419146 [Eh]
	 SCS Opposite-Spin Energy  =      -1.1649548787968822 [Eh]
	 SCS Correlation Energy    =      -1.2634405637387969 [Eh]
	 SCS Total Energy          =    -307.2446786437052992 [Eh]
	-----------------------------------------------------------

  Dipole Moment: [D]
     X:    -1.8839      Y:    -2.1691      Z:    -0.0000     Total:     2.8730

*** Psi4 exiting successfully. Buy a developer a beer!
