                               Psi4 1.3.2 release

  ==> Input File <==

--------------------------------------------------------------------------
#psi4
#
memory 32 gb

molecule  {
0 1
  O       -0.1816340    -0.4581900    -0.0001520
  O        1.1902440     1.3536890     0.0000850
  C       -1.3062030     0.4550440     0.0000220
  C       -2.5549260    -0.3966560     0.0000690
  C        1.2147167     0.2325090    -0.0001727
  C        2.1329550    -0.8859990     0.0000420
  H       -1.2412540     1.0963570     0.8832990
  H       -1.2414110     1.0964890    -0.8831720
  H       -3.4424010     0.2425350     0.0001940
  H       -2.5849670    -1.0330240    -0.8868250
  H       -2.5848130    -1.0331530     0.8868760
  H        2.0416630    -1.5248420    -0.8815190
  H        2.0422710    -1.5237540     0.8824640
  H        3.0983910    -0.3819430    -0.0005520
units angstrom
no_reorient  #important for SAPT in psi4, default
symmetry c1  #important for SAPT in psi4, default
}

set PROPERTIES_ORIGIN ["COM"]
properties('MP2/aug-cc-pvtz', properties = ['dipole'])
--------------------------------------------------------------------------

    Molecular point group: c1
  Charge       = 0
  Multiplicity = 1
  Basis Set: AUG-CC-PVTZ
    Blend: AUG-CC-PVTZ
  Basis Set: (AUG-CC-PVTZ AUX)
    Blend: AUG-CC-PVTZ-JKFIT

    Orbital Energies [Eh]
    ---------------------

    Doubly Occupied:

       1A    -20.582353     2A    -20.545321     3A    -11.387016
       4A    -11.263009     5A    -11.254974     6A    -11.208212
       7A     -1.490759     8A     -1.315332     9A     -1.057175
      10A     -0.994911    11A     -0.829557    12A     -0.763590
      13A     -0.707008    14A     -0.682298    15A     -0.663944
      16A     -0.617993    17A     -0.589923    18A     -0.559681
      19A     -0.557329    20A     -0.524096    21A     -0.509802
      22A     -0.497011    23A     -0.429428    24A     -0.429163

  @DF-RHF Final Energy:  -305.95257064900693

   => Energetics <=

    Nuclear Repulsion Energy =            242.2067535822766331
    One-Electron Energy =                -897.3988738738961501
    Two-Electron Energy =                 349.2395496426125874
    Total Energy =                       -305.9525706490069297
  Basis Set: (AUG-CC-PVTZ AUX)
    Blend: AUG-CC-PVTZ-RI
    Molecular point group: c1

    Geometry (in Angstrom), charge = 0, multiplicity = 1:

       Center              X                  Y                   Z               Mass
    ------------   -----------------  -----------------  -----------------  -----------------
         O           -0.250093288017    -0.504718142668    -0.000143174881    15.994914619570
         O            1.121784711983     1.307160857332     0.000093825119    15.994914619570
         C           -1.374662288017     0.408515857332     0.000030825119    12.000000000000
         C           -2.623385288017    -0.443184142668     0.000077825119    12.000000000000
         C            1.146257411983     0.185980857332    -0.000163874881    12.000000000000
         C            2.064495711983    -0.932527142668     0.000050825119    12.000000000000
         H           -1.309713288017     1.049828857332     0.883307825119     1.007825032230
         H           -1.309870288017     1.049960857332    -0.883163174881     1.007825032230
         H           -3.510860288017     0.196006857332     0.000202825119     1.007825032230
         H           -2.653426288017    -1.079552142668    -0.886816174881     1.007825032230
         H           -2.653272288017    -1.079681142668     0.886884825119     1.007825032230
         H            1.973203711983    -1.571370142668    -0.881510174881     1.007825032230
         H            1.973811711983    -1.570282142668     0.882472825119     1.007825032230
         H            3.029931711983    -0.428471142668    -0.000543174881     1.007825032230

  Basis Set: AUG-CC-PVTZ
    Blend: AUG-CC-PVTZ
  Basis Set: (AUG-CC-PVTZ AUX)
    Blend: AUG-CC-PVTZ-JKFIT
	 Reference Energy          =    -305.9525706490069297 [Eh]
	 Singles Energy            =      -0.0000000000000000 [Eh]
	 Same-Spin Energy          =      -0.2982672760858056 [Eh]
	 Opposite-Spin Energy      =      -0.9784370416063670 [Eh]
	 Correlation Energy        =      -1.2767043176921726 [Eh]
	 Total Energy              =    -307.2292749666991085 [Eh]

	 ================> DF-SCS-MP2 Energies <==================
	-----------------------------------------------------------
	 SCS Same-Spin Scale       =       0.3333333333333333 [-]
	 SCS Opposite-Spin Scale   =       1.2000000000000000 [-]
	 SCS Same-Spin Energy      =      -0.0994224253619352 [Eh]
	 SCS Opposite-Spin Energy  =      -1.1741244499276404 [Eh]
	 SCS Correlation Energy    =      -1.2735468752895756 [Eh]
	 SCS Total Energy          =    -307.2261175242965123 [Eh]
	-----------------------------------------------------------

  Dipole Moment: [D]
     X:     0.9239      Y:    -1.0243      Z:     0.0001     Total:     1.3794

*** Psi4 exiting successfully. Buy a developer a beer!
