                               Psi4 1.3.2 release

  ==> Input File <==

--------------------------------------------------------------------------
#psi4
#
memory 32 gb

molecule  {
0 1
  O       -0.1206694    -0.3775194    -0.0001512
  O        1.1902440     1.3536890     0.0000850
  C       -1.3062030     0.4550440     0.0000220
  C       -2.5549260    -0.3966560     0.0000690
  C        1.0354490     0.1438350    -0.0001700
  C        2.1329550    -0.8859990     0.0000420
  H       -1.2412540     1.0963570     0.8832990
  H       -1.2414110     1.0964890    -0.8831720
  H       -3.4424010     0.2425350     0.0001940
  H       -2.5849670    -1.0330240    -0.8868250
  H       -2.5848130    -1.0331530     0.8868760
  H        2.0416630    -1.5248420    -0.8815190
  H        2.0422710    -1.5237540     0.8824640
  H        3.0983910    -0.3819430    -0.0005520
units angstrom
no_reorient  #important for SAPT in psi4, default
symmetry c1  #important for SAPT in psi4, default
}

set PROPERTIES_ORIGIN ["COM"]
properties('MP2/aug-cc-pvtz', properties = ['dipole'])
--------------------------------------------------------------------------

    Molecular point group: c1
  Charge       = 0
  Multiplicity = 1
  Basis Set: AUG-CC-PVTZ
    Blend: AUG-CC-PVTZ
  Basis Set: (AUG-CC-PVTZ AUX)
    Blend: AUG-CC-PVTZ-JKFIT

    Orbital Energies [Eh]
    ---------------------

    Doubly Occupied:

       1A    -20.602100     2A    -20.523318     3A    -11.367839
       4A    -11.295818     5A    -11.237192     6A    -11.232139
       7A     -1.483314     8A     -1.341396     9A     -1.064855
      10A     -1.001276    11A     -0.880350    12A     -0.782341
      13A     -0.695477    14A     -0.684072    15A     -0.670670
      16A     -0.611584    17A     -0.576927    18A     -0.563518
      19A     -0.556337    20A     -0.546526    21A     -0.506107
      22A     -0.501317    23A     -0.450588    24A     -0.438487

  @DF-RHF Final Energy:  -305.98973038062456

   => Energetics <=

    Nuclear Repulsion Energy =            245.1217638915649104
    One-Electron Energy =                -902.9958938382701490
    Two-Electron Energy =                 351.8843995660806740
    Total Energy =                       -305.9897303806245645
  Basis Set: (AUG-CC-PVTZ AUX)
    Blend: AUG-CC-PVTZ-RI
    Molecular point group: c1

    Geometry (in Angstrom), charge = 0, multiplicity = 1:

       Center              X                  Y                   Z               Mass
    ------------   -----------------  -----------------  -----------------  -----------------
         O           -0.175772000020    -0.426616822818    -0.000142888166    15.994914619570
         O            1.135141399980     1.304591577182     0.000093311834    15.994914619570
         C           -1.361305600020     0.405946577182     0.000030311834    12.000000000000
         C           -2.610028600020    -0.445753422818     0.000077311834    12.000000000000
         C            0.980346399980     0.094737577182    -0.000161688166    12.000000000000
         C            2.077852399980    -0.935096422818     0.000050311834    12.000000000000
         H           -1.296356600020     1.047259577182     0.883307311834     1.007825032230
         H           -1.296513600020     1.047391577182    -0.883163688166     1.007825032230
         H           -3.497503600020     0.193437577182     0.000202311834     1.007825032230
         H           -2.640069600020    -1.082121422818    -0.886816688166     1.007825032230
         H           -2.639915600020    -1.082250422818     0.886884311834     1.007825032230
         H            1.986560399980    -1.573939422818    -0.881510688166     1.007825032230
         H            1.987168399980    -1.572851422818     0.882472311834     1.007825032230
         H            3.043288399980    -0.431040422818    -0.000543688166     1.007825032230

  Basis Set: AUG-CC-PVTZ
    Blend: AUG-CC-PVTZ
  Basis Set: (AUG-CC-PVTZ AUX)
    Blend: AUG-CC-PVTZ-JKFIT
	 Reference Energy          =    -305.9897303806245645 [Eh]
	 Singles Energy            =      -0.0000000000000000 [Eh]
	 Same-Spin Energy          =      -0.2959561335868026 [Eh]
	 Opposite-Spin Energy      =      -0.9724277047519752 [Eh]
	 Correlation Energy        =      -1.2683838383387778 [Eh]
	 Total Energy              =    -307.2581142189633283 [Eh]

	 ================> DF-SCS-MP2 Energies <==================
	-----------------------------------------------------------
	 SCS Same-Spin Scale       =       0.3333333333333333 [-]
	 SCS Opposite-Spin Scale   =       1.2000000000000000 [-]
	 SCS Same-Spin Energy      =      -0.0986520445289342 [Eh]
	 SCS Opposite-Spin Energy  =      -1.1669132457023701 [Eh]
	 SCS Correlation Energy    =      -1.2655652902313044 [Eh]
	 SCS Total Energy          =    -307.2552956708558440 [Eh]
	-----------------------------------------------------------

  Dipole Moment: [D]
     X:    -1.5814      Y:    -1.9994      Z:     0.0000     Total:     2.5492

*** Psi4 exiting successfully. Buy a developer a beer!
