                               Psi4 1.4a3.dev225

  ==> Input File <==

--------------------------------------------------------------------------
#psi4
#
memory 32 gb

molecule  {
0 1
  O       -0.1816510    -0.4579540    -0.0000570
  O        1.1902550     1.3536590     0.0000010
  C       -1.3061740     0.4550410     0.0000250
  C       -2.5549650    -0.3967600     0.0000230
  C        1.0802890     0.1659682    -0.0000446
  C        2.1329650    -0.8861250     0.0000100
  H       -1.2416190     1.0963160     0.8832990
  H       -1.2416760     1.0964030    -0.8831890
  H       -3.4421510     0.2427570     0.0000820
  H       -2.5852380    -1.0333410    -0.8867630
  H       -2.5851830    -1.0334280     0.8867480
  H        2.0420880    -1.5247240    -0.8817090
  H        2.0428830    -1.5236850     0.8825710
  H        3.0983080    -0.3817210    -0.0006790
units angstrom
no_reorient  #important for SAPT in psi4, default
symmetry c1  #important for SAPT in psi4, default
}

set PROPERTIES_ORIGIN ["COM"]
properties('MP2/aug-cc-pvtz', properties = ['dipole'])
--------------------------------------------------------------------------

    Molecular point group: c1
  Charge       = 0
  Multiplicity = 1
  Basis Set: AUG-CC-PVTZ
    Blend: AUG-CC-PVTZ
  Basis Set: (AUG-CC-PVTZ AUX)
    Blend: AUG-CC-PVTZ-JKFIT

    Orbital Energies [Eh]
    ---------------------

    Doubly Occupied:

       1A    -20.588168     2A    -20.553323     3A    -11.382351
       4A    -11.281973     5A    -11.244062     6A    -11.220977
       7A     -1.446029     8A     -1.354704     9A     -1.050609
      10A     -1.002519    11A     -0.853187    12A     -0.771750
      13A     -0.694510    14A     -0.674131    15A     -0.661484
      16A     -0.611126    17A     -0.583602    18A     -0.565594
      19A     -0.547551    20A     -0.532736    21A     -0.507484
      22A     -0.505440    23A     -0.455069    24A     -0.450107

  @DF-RHF Final Energy:  -305.98808977097082

   => Energetics <=

    Nuclear Repulsion Energy =            242.8905581158367681
    One-Electron Energy =                -898.6803221841032610
    Two-Electron Energy =                 349.8016742972957331
    Total Energy =                       -305.9880897709708165
  Basis Set: (AUG-CC-PVTZ AUX)
    Blend: AUG-CC-PVTZ-RI
    Molecular point group: c1

    Geometry (in Angstrom), charge = 0, multiplicity = 1:

       Center              X                  Y                   Z               Mass
    ------------   -----------------  -----------------  -----------------  -----------------
         O           -0.231788296188    -0.495418459351    -0.000052774129    15.994914619570
         O            1.140117703812     1.316194540649     0.000005225871    15.994914619570
         C           -1.356311296188     0.417576540649     0.000029225871    12.000000000000
         C           -2.605102296188    -0.434224459351     0.000027225871    12.000000000000
         C            1.030151703812     0.128503740649    -0.000040374129    12.000000000000
         C            2.082827703812    -0.923589459351     0.000014225871    12.000000000000
         H           -1.291756296188     1.058851540649     0.883303225871     1.007825032230
         H           -1.291813296188     1.058938540649    -0.883184774129     1.007825032230
         H           -3.492288296188     0.205292540649     0.000086225871     1.007825032230
         H           -2.635375296188    -1.070805459351    -0.886758774129     1.007825032230
         H           -2.635320296188    -1.070892459351     0.886752225871     1.007825032230
         H            1.991950703812    -1.562188459351    -0.881704774129     1.007825032230
         H            1.992745703812    -1.561149459351     0.882575225871     1.007825032230
         H            3.048170703812    -0.419185459351    -0.000674774129     1.007825032230

  Basis Set: AUG-CC-PVTZ
    Blend: AUG-CC-PVTZ
  Basis Set: (AUG-CC-PVTZ AUX)
    Blend: AUG-CC-PVTZ-JKFIT
	 Reference Energy          =    -305.9880897709708165 [Eh]
	 Singles Energy            =      -0.0000000000000000 [Eh]
	 Same-Spin Energy          =      -0.2972974794281369 [Eh]
	 Opposite-Spin Energy      =      -0.9765168979217985 [Eh]
	 Correlation Energy        =      -1.2738143773499355 [Eh]
	 Total Energy              =    -307.2619041483207525 [Eh]

	 ================> DF-SCS-MP2 Energies <==================
	-----------------------------------------------------------
	 SCS Same-Spin Scale       =       0.3333333333333333 [-]
	 SCS Opposite-Spin Scale   =       1.2000000000000000 [-]
	 SCS Same-Spin Energy      =      -0.0990991598093790 [Eh]
	 SCS Opposite-Spin Energy  =      -1.1718202775061581 [Eh]
	 SCS Correlation Energy    =      -1.2709194373155370 [Eh]
	 SCS Total Energy          =    -307.2590092082863293 [Eh]
	-----------------------------------------------------------

  Dipole Moment: [D]
     X:    -0.5245      Y:    -1.5212      Z:     0.0001     Total:     1.6091

*** Psi4 exiting successfully. Buy a developer a beer!
