                               Psi4 1.3.2 release

  ==> Input File <==

--------------------------------------------------------------------------
#psi4
#
memory 32 gb

molecule  {
0 1
  O       -0.1380709    -0.3919815     0.1291228
  O        1.1902440     1.3536890     0.0000850
  C       -1.3062030     0.4550440     0.0000220
  C       -2.5549260    -0.3966560     0.0000690
  C        1.0354490     0.1438350    -0.0001700
  C        2.1329550    -0.8859990     0.0000420
  H       -1.2412540     1.0963570     0.8832990
  H       -1.2414110     1.0964890    -0.8831720
  H       -3.4424010     0.2425350     0.0001940
  H       -2.5849670    -1.0330240    -0.8868250
  H       -2.5848130    -1.0331530     0.8868760
  H        2.0416630    -1.5248420    -0.8815190
  H        2.0422710    -1.5237540     0.8824640
  H        3.0983910    -0.3819430    -0.0005520
units angstrom
no_reorient  #important for SAPT in psi4, default
symmetry c1  #important for SAPT in psi4, default
}

set PROPERTIES_ORIGIN ["COM"]
properties('MP2/aug-cc-pvtz', properties = ['dipole'])
--------------------------------------------------------------------------

    Molecular point group: c1
  Charge       = 0
  Multiplicity = 1
  Basis Set: AUG-CC-PVTZ
    Blend: AUG-CC-PVTZ
  Basis Set: (AUG-CC-PVTZ AUX)
    Blend: AUG-CC-PVTZ-JKFIT

    Orbital Energies [Eh]
    ---------------------

    Doubly Occupied:

       1A    -20.600802     2A    -20.529919     3A    -11.372418
       4A    -11.293030     5A    -11.239032     6A    -11.229866
       7A     -1.471858     8A     -1.344408     9A     -1.060794
      10A     -1.001504    11A     -0.874445    12A     -0.780857
      13A     -0.690369    14A     -0.685147    15A     -0.667672
      16A     -0.610442    17A     -0.577847    18A     -0.563943
      19A     -0.555049    20A     -0.544022    21A     -0.509840
      22A     -0.498490    23A     -0.452007    24A     -0.441371

  @DF-RHF Final Energy:  -305.98926816306471

   => Energetics <=

    Nuclear Repulsion Energy =            244.4776564483041739
    One-Electron Energy =                -901.7435847406130733
    Two-Electron Energy =                 351.2766601292441919
    Total Energy =                       -305.9892681630647076
  Basis Set: (AUG-CC-PVTZ AUX)
    Blend: AUG-CC-PVTZ-RI
    Molecular point group: c1

    Geometry (in Angstrom), charge = 0, multiplicity = 1:

       Center              X                  Y                   Z               Mass
    ------------   -----------------  -----------------  -----------------  -----------------
         O           -0.190012479837    -0.438451851015     0.105648209609    15.994914619570
         O            1.138302420163     1.307218648985    -0.023389590391    15.994914619570
         C           -1.358144579837     0.408573648985    -0.023452590391    12.000000000000
         C           -2.606867579837    -0.443126351015    -0.023405590391    12.000000000000
         C            0.983507420163     0.097364648985    -0.023644590391    12.000000000000
         C            2.081013420163    -0.932469351015    -0.023432590391    12.000000000000
         H           -1.293195579837     1.049886648985     0.859824409609     1.007825032230
         H           -1.293352579837     1.050018648985    -0.906646590391     1.007825032230
         H           -3.494342579837     0.196064648985    -0.023280590391     1.007825032230
         H           -2.636908579837    -1.079494351015    -0.910299590391     1.007825032230
         H           -2.636754579837    -1.079623351015     0.863401409609     1.007825032230
         H            1.989721420163    -1.571312351015    -0.904993590391     1.007825032230
         H            1.990329420163    -1.570224351015     0.858989409609     1.007825032230
         H            3.046449420163    -0.428413351015    -0.024026590391     1.007825032230

  Basis Set: AUG-CC-PVTZ
    Blend: AUG-CC-PVTZ
  Basis Set: (AUG-CC-PVTZ AUX)
    Blend: AUG-CC-PVTZ-JKFIT
	 Reference Energy          =    -305.9892681630647076 [Eh]
	 Singles Energy            =      -0.0000000000000000 [Eh]
	 Same-Spin Energy          =      -0.2963585774189643 [Eh]
	 Opposite-Spin Energy      =      -0.9736773669636877 [Eh]
	 Correlation Energy        =      -1.2700359443826521 [Eh]
	 Total Energy              =    -307.2593041074473490 [Eh]

	 ================> DF-SCS-MP2 Energies <==================
	-----------------------------------------------------------
	 SCS Same-Spin Scale       =       0.3333333333333333 [-]
	 SCS Opposite-Spin Scale   =       1.2000000000000000 [-]
	 SCS Same-Spin Energy      =      -0.0987861924729881 [Eh]
	 SCS Opposite-Spin Energy  =      -1.1684128403564251 [Eh]
	 SCS Correlation Energy    =      -1.2671990328294132 [Eh]
	 SCS Total Energy          =    -307.2564671958941176 [Eh]
	-----------------------------------------------------------

  Dipole Moment: [D]
     X:    -1.3754      Y:    -1.9116      Z:    -0.1430     Total:     2.3593

*** Psi4 exiting successfully. Buy a developer a beer!
