                               Psi4 1.3.2 release

  ==> Input File <==

--------------------------------------------------------------------------
#psi4
#
memory 32 gb

molecule  {
0 1
  O       -0.1816340    -0.4581900    -0.0001520
  O        1.1902440     1.3536890     0.0000850
  C       -1.1509479     0.3289653    -0.0000020
  C       -2.5549260    -0.3966560     0.0000690
  C        1.0354490     0.1438350    -0.0001700
  C        2.1329550    -0.8859990     0.0000420
  H       -1.2412540     1.0963570     0.8832990
  H       -1.2414110     1.0964890    -0.8831720
  H       -3.4424010     0.2425350     0.0001940
  H       -2.5849670    -1.0330240    -0.8868250
  H       -2.5848130    -1.0331530     0.8868760
  H        2.0416630    -1.5248420    -0.8815190
  H        2.0422710    -1.5237540     0.8824640
  H        3.0983910    -0.3819430    -0.0005520
units angstrom
no_reorient  #important for SAPT in psi4, default
symmetry c1  #important for SAPT in psi4, default
}

set PROPERTIES_ORIGIN ["COM"]
properties('MP2/aug-cc-pvtz', properties = ['dipole'])
--------------------------------------------------------------------------

    Molecular point group: c1
  Charge       = 0
  Multiplicity = 1
  Basis Set: AUG-CC-PVTZ
    Blend: AUG-CC-PVTZ
  Basis Set: (AUG-CC-PVTZ AUX)
    Blend: AUG-CC-PVTZ-JKFIT

    Orbital Energies [Eh]
    ---------------------

    Doubly Occupied:

       1A    -20.621925     2A    -20.559642     3A    -11.396627
       4A    -11.290479     5A    -11.251030     6A    -11.219943
       7A     -1.519827     8A     -1.382210     9A     -1.062581
      10A     -0.992190    11A     -0.884617    12A     -0.792453
      13A     -0.710360    14A     -0.706801    15A     -0.685961
      16A     -0.604712    17A     -0.597621    18A     -0.578805
      19A     -0.554414    20A     -0.551274    21A     -0.501745
      22A     -0.466430    23A     -0.456690    24A     -0.425327

  @DF-RHF Final Energy:  -305.94937195042718

   => Energetics <=

    Nuclear Repulsion Energy =            246.2950852412392919
    One-Electron Energy =                -904.8615835996889700
    Two-Electron Energy =                 352.6171264080225569
    Total Energy =                       -305.9493719504271780
  Basis Set: (AUG-CC-PVTZ AUX)
    Blend: AUG-CC-PVTZ-RI
    Molecular point group: c1

    Geometry (in Angstrom), charge = 0, multiplicity = 1:

       Center              X                  Y                   Z               Mass
    ------------   -----------------  -----------------  -----------------  -----------------
         O           -0.246820792282    -0.475451120568    -0.000140272065    15.994914619570
         O            1.125057207718     1.336427879432     0.000096727935    15.994914619570
         C           -1.216134692282     0.311704179432     0.000009727935    12.000000000000
         C           -2.620112792282    -0.413917120568     0.000080727935    12.000000000000
         C            0.970262207718     0.126573879432    -0.000158272065    12.000000000000
         C            2.067768207718    -0.903260120568     0.000053727935    12.000000000000
         H           -1.306440792282     1.079095879432     0.883310727935     1.007825032230
         H           -1.306597792282     1.079227879432    -0.883160272065     1.007825032230
         H           -3.507587792282     0.225273879432     0.000205727935     1.007825032230
         H           -2.650153792282    -1.050285120568    -0.886813272065     1.007825032230
         H           -2.649999792282    -1.050414120568     0.886887727935     1.007825032230
         H            1.976476207718    -1.542103120568    -0.881507272065     1.007825032230
         H            1.977084207718    -1.541015120568     0.882475727935     1.007825032230
         H            3.033204207718    -0.399204120568    -0.000540272065     1.007825032230

  Basis Set: AUG-CC-PVTZ
    Blend: AUG-CC-PVTZ
  Basis Set: (AUG-CC-PVTZ AUX)
    Blend: AUG-CC-PVTZ-JKFIT
	 Reference Energy          =    -305.9493719504271780 [Eh]
	 Singles Energy            =      -0.0000000000000000 [Eh]
	 Same-Spin Energy          =      -0.2982311881374582 [Eh]
	 Opposite-Spin Energy      =      -0.9764646709309324 [Eh]
	 Correlation Energy        =      -1.2746958590683906 [Eh]
	 Total Energy              =    -307.2240678094955797 [Eh]

	 ================> DF-SCS-MP2 Energies <==================
	-----------------------------------------------------------
	 SCS Same-Spin Scale       =       0.3333333333333333 [-]
	 SCS Opposite-Spin Scale   =       1.2000000000000000 [-]
	 SCS Same-Spin Energy      =      -0.0994103960458194 [Eh]
	 SCS Opposite-Spin Energy  =      -1.1717576051171188 [Eh]
	 SCS Correlation Energy    =      -1.2711680011629383 [Eh]
	 SCS Total Energy          =    -307.2205399515901263 [Eh]
	-----------------------------------------------------------

  Dipole Moment: [D]
     X:    -0.0880      Y:    -1.9817      Z:    -0.0000     Total:     1.9837

*** Psi4 exiting successfully. Buy a developer a beer!
