                               Psi4 1.3.2 release

  ==> Input File <==

--------------------------------------------------------------------------
#psi4
#
memory 32 gb

molecule  {
0 1
  O       -0.1816340    -0.4581900    -0.0001520
  O        1.1902440     1.3536890     0.0000850
  C       -1.3838306     0.5180834     0.0000340
  C       -2.5549260    -0.3966560     0.0000690
  C        1.0354490     0.1438350    -0.0001700
  C        2.1329550    -0.8859990     0.0000420
  H       -1.2412540     1.0963570     0.8832990
  H       -1.2414110     1.0964890    -0.8831720
  H       -3.4424010     0.2425350     0.0001940
  H       -2.5849670    -1.0330240    -0.8868250
  H       -2.5848130    -1.0331530     0.8868760
  H        2.0416630    -1.5248420    -0.8815190
  H        2.0422710    -1.5237540     0.8824640
  H        3.0983910    -0.3819430    -0.0005520
units angstrom
no_reorient  #important for SAPT in psi4, default
symmetry c1  #important for SAPT in psi4, default
}

set PROPERTIES_ORIGIN ["COM"]
properties('MP2/aug-cc-pvtz', properties = ['dipole'])
--------------------------------------------------------------------------

    Molecular point group: c1
  Charge       = 0
  Multiplicity = 1
  Basis Set: AUG-CC-PVTZ
    Blend: AUG-CC-PVTZ
  Basis Set: (AUG-CC-PVTZ AUX)
    Blend: AUG-CC-PVTZ-JKFIT

    Orbital Energies [Eh]
    ---------------------

    Doubly Occupied:

       1A    -20.588696     2A    -20.536992     3A    -11.374552
       4A    -11.292905     5A    -11.236856     6A    -11.229013
       7A     -1.430967     8A     -1.334976     9A     -1.057765
      10A     -1.000456    11A     -0.862325    12A     -0.768078
      13A     -0.679200    14A     -0.679001    15A     -0.651451
      16A     -0.611900    17A     -0.575005    18A     -0.569598
      19A     -0.546706    20A     -0.537063    21A     -0.508918
      22A     -0.507558    23A     -0.456833    24A     -0.439489

  @DF-RHF Final Energy:  -305.98203012089607

   => Energetics <=

    Nuclear Repulsion Energy =            241.8097032658723720
    One-Electron Energy =                -896.6308649333634548
    Two-Electron Energy =                 348.8391315465950129
    Total Energy =                       -305.9820301208960700
  Basis Set: (AUG-CC-PVTZ AUX)
    Blend: AUG-CC-PVTZ-RI
    Molecular point group: c1

    Geometry (in Angstrom), charge = 0, multiplicity = 1:

       Center              X                  Y                   Z               Mass
    ------------   -----------------  -----------------  -----------------  -----------------
         O           -0.215082969533    -0.501224596814    -0.000145178233    15.994914619570
         O            1.156795030467     1.310654403186     0.000091821767    15.994914619570
         C           -1.417279569533     0.475048803186     0.000040821767    12.000000000000
         C           -2.588374969533    -0.439690596814     0.000075821767    12.000000000000
         C            1.002000030467     0.100800403186    -0.000163178233    12.000000000000
         C            2.099506030467    -0.929033596814     0.000048821767    12.000000000000
         H           -1.274702969533     1.053322403186     0.883305821767     1.007825032230
         H           -1.274859969533     1.053454403186    -0.883165178233     1.007825032230
         H           -3.475849969533     0.199500403186     0.000200821767     1.007825032230
         H           -2.618415969533    -1.076058596814    -0.886818178233     1.007825032230
         H           -2.618261969533    -1.076187596814     0.886882821767     1.007825032230
         H            2.008214030467    -1.567876596814    -0.881512178233     1.007825032230
         H            2.008822030467    -1.566788596814     0.882470821767     1.007825032230
         H            3.064942030467    -0.424977596814    -0.000545178233     1.007825032230

  Basis Set: AUG-CC-PVTZ
    Blend: AUG-CC-PVTZ
  Basis Set: (AUG-CC-PVTZ AUX)
    Blend: AUG-CC-PVTZ-JKFIT
	 Reference Energy          =    -305.9820301208960700 [Eh]
	 Singles Energy            =      -0.0000000000000000 [Eh]
	 Same-Spin Energy          =      -0.2976952586004966 [Eh]
	 Opposite-Spin Energy      =      -0.9777813586017284 [Eh]
	 Correlation Energy        =      -1.2754766172022249 [Eh]
	 Total Energy              =    -307.2575067380983000 [Eh]

	 ================> DF-SCS-MP2 Energies <==================
	-----------------------------------------------------------
	 SCS Same-Spin Scale       =       0.3333333333333333 [-]
	 SCS Opposite-Spin Scale   =       1.2000000000000000 [-]
	 SCS Same-Spin Energy      =      -0.0992317528668322 [Eh]
	 SCS Opposite-Spin Energy  =      -1.1733376303220742 [Eh]
	 SCS Correlation Energy    =      -1.2725693831889064 [Eh]
	 SCS Total Energy          =    -307.2545995040849789 [Eh]
	-----------------------------------------------------------

  Dipole Moment: [D]
     X:    -1.3927      Y:    -1.5749      Z:     0.0001     Total:     2.1023

*** Psi4 exiting successfully. Buy a developer a beer!
