                               Psi4 1.3.2 release

  ==> Input File <==

--------------------------------------------------------------------------
#psi4
#
memory 32 gb

molecule  {
0 1
  O       -0.1511906    -0.4151201     0.0861186
  O        1.1902440     1.3536890     0.0000850
  C       -1.3062030     0.4550440     0.0000220
  C       -2.5549260    -0.3966560     0.0000690
  C        1.0354490     0.1438350    -0.0001700
  C        2.1329550    -0.8859990     0.0000420
  H       -1.2412540     1.0963570     0.8832990
  H       -1.2414110     1.0964890    -0.8831720
  H       -3.4424010     0.2425350     0.0001940
  H       -2.5849670    -1.0330240    -0.8868250
  H       -2.5848130    -1.0331530     0.8868760
  H        2.0416630    -1.5248420    -0.8815190
  H        2.0422710    -1.5237540     0.8824640
  H        3.0983910    -0.3819430    -0.0005520
units angstrom
no_reorient  #important for SAPT in psi4, default
symmetry c1  #important for SAPT in psi4, default
}

set PROPERTIES_ORIGIN ["COM"]
properties('MP2/aug-cc-pvtz', properties = ['dipole'])
--------------------------------------------------------------------------

    Molecular point group: c1
  Charge       = 0
  Multiplicity = 1
  Basis Set: AUG-CC-PVTZ
    Blend: AUG-CC-PVTZ
  Basis Set: (AUG-CC-PVTZ AUX)
    Blend: AUG-CC-PVTZ-JKFIT

    Orbital Energies [Eh]
    ---------------------

    Doubly Occupied:

       1A    -20.601268     2A    -20.534324     3A    -11.375315
       4A    -11.291552     5A    -11.239668     6A    -11.228384
       7A     -1.465218     8A     -1.346921     9A     -1.058808
      10A     -1.001180    11A     -0.870435    12A     -0.780665
      13A     -0.687933    14A     -0.686026    15A     -0.666030
      16A     -0.609789    17A     -0.578301    18A     -0.564260
      19A     -0.553743    20A     -0.541429    21A     -0.510719
      22A     -0.499420    23A     -0.454590    24A     -0.443337

  @DF-RHF Final Energy:  -305.99140892608256

   => Energetics <=

    Nuclear Repulsion Energy =            244.0814331120917871
    One-Electron Energy =                -900.9670565838473522
    Two-Electron Energy =                 350.8942145456730373
    Total Energy =                       -305.9914089260825563
  Basis Set: (AUG-CC-PVTZ AUX)
    Blend: AUG-CC-PVTZ-RI
    Molecular point group: c1

    Geometry (in Angstrom), charge = 0, multiplicity = 1:

       Center              X                  Y                   Z               Mass
    ------------   -----------------  -----------------  -----------------  -----------------
         O           -0.200748957903    -0.457387274186     0.070455815726    15.994914619570
         O            1.140685642097     1.311421825814    -0.015577784274    15.994914619570
         C           -1.355761357903     0.412776825814    -0.015640784274    12.000000000000
         C           -2.604484357903    -0.438923174186    -0.015593784274    12.000000000000
         C            0.985890642097     0.101567825814    -0.015832784274    12.000000000000
         C            2.083396642097    -0.928266174186    -0.015620784274    12.000000000000
         H           -1.290812357903     1.054089825814     0.867636215726     1.007825032230
         H           -1.290969357903     1.054221825814    -0.898834784274     1.007825032230
         H           -3.491959357903     0.200267825814    -0.015468784274     1.007825032230
         H           -2.634525357903    -1.075291174186    -0.902487784274     1.007825032230
         H           -2.634371357903    -1.075420174186     0.871213215726     1.007825032230
         H            1.992104642097    -1.567109174186    -0.897181784274     1.007825032230
         H            1.992712642097    -1.566021174186     0.866801215726     1.007825032230
         H            3.048832642097    -0.424210174186    -0.016214784274     1.007825032230

  Basis Set: AUG-CC-PVTZ
    Blend: AUG-CC-PVTZ
  Basis Set: (AUG-CC-PVTZ AUX)
    Blend: AUG-CC-PVTZ-JKFIT
	 Reference Energy          =    -305.9914089260825563 [Eh]
	 Singles Energy            =      -0.0000000000000000 [Eh]
	 Same-Spin Energy          =      -0.2965952832997879 [Eh]
	 Opposite-Spin Energy      =      -0.9743979018074426 [Eh]
	 Correlation Energy        =      -1.2709931851072305 [Eh]
	 Total Energy              =    -307.2624021111897719 [Eh]

	 ================> DF-SCS-MP2 Energies <==================
	-----------------------------------------------------------
	 SCS Same-Spin Scale       =       0.3333333333333333 [-]
	 SCS Opposite-Spin Scale   =       1.2000000000000000 [-]
	 SCS Same-Spin Energy      =      -0.0988650944332626 [Eh]
	 SCS Opposite-Spin Energy  =      -1.1692774821689311 [Eh]
	 SCS Correlation Energy    =      -1.2681425766021936 [Eh]
	 SCS Total Energy          =    -307.2595515026847579 [Eh]
	-----------------------------------------------------------

  Dipole Moment: [D]
     X:    -1.2619      Y:    -1.8373      Z:    -0.0977     Total:     2.2310

*** Psi4 exiting successfully. Buy a developer a beer!
