                               Psi4 1.3.2 release

  ==> Input File <==

--------------------------------------------------------------------------
#psi4
#
memory 32 gb

molecule  {
0 1
  O       -0.1816340    -0.4581900    -0.0001520
  O        1.1902440     1.3536890     0.0000850
  C       -1.3062030     0.4550440     0.0000220
  C       -2.5549260    -0.3966560     0.0000690
  C        0.9458151     0.0994980    -0.0001687
  C        2.1329550    -0.8859990     0.0000420
  H       -1.2412540     1.0963570     0.8832990
  H       -1.2414110     1.0964890    -0.8831720
  H       -3.4424010     0.2425350     0.0001940
  H       -2.5849670    -1.0330240    -0.8868250
  H       -2.5848130    -1.0331530     0.8868760
  H        2.0416630    -1.5248420    -0.8815190
  H        2.0422710    -1.5237540     0.8824640
  H        3.0983910    -0.3819430    -0.0005520
units angstrom
no_reorient  #important for SAPT in psi4, default
symmetry c1  #important for SAPT in psi4, default
}

set PROPERTIES_ORIGIN ["COM"]
properties('MP2/aug-cc-pvtz', properties = ['dipole'])
--------------------------------------------------------------------------

    Molecular point group: c1
  Charge       = 0
  Multiplicity = 1
  Basis Set: AUG-CC-PVTZ
    Blend: AUG-CC-PVTZ
  Basis Set: (AUG-CC-PVTZ AUX)
    Blend: AUG-CC-PVTZ-JKFIT

    Orbital Energies [Eh]
    ---------------------

    Doubly Occupied:

       1A    -20.625743     2A    -20.524606     3A    -11.380940
       4A    -11.300731     5A    -11.237730     6A    -11.233196
       7A     -1.495517     8A     -1.317625     9A     -1.067943
      10A     -0.993020    11A     -0.880871    12A     -0.799234
      13A     -0.703617    14A     -0.676655    15A     -0.672856
      16A     -0.608769    17A     -0.574954    18A     -0.558364
      19A     -0.557866    20A     -0.539682    21A     -0.521221
      22A     -0.501786    23A     -0.447290    24A     -0.429571

  @DF-RHF Final Energy:  -305.97755636202123

   => Energetics <=

    Nuclear Repulsion Energy =            243.8828308344182858
    One-Electron Energy =                -900.4211961160633564
    Two-Electron Energy =                 350.5608089196238097
    Total Energy =                       -305.9775563620212324
  Basis Set: (AUG-CC-PVTZ AUX)
    Blend: AUG-CC-PVTZ-RI
    Molecular point group: c1

    Geometry (in Angstrom), charge = 0, multiplicity = 1:

       Center              X                  Y                   Z               Mass
    ------------   -----------------  -----------------  -----------------  -----------------
         O           -0.213446721665    -0.486591078950    -0.000143720011    15.994914619570
         O            1.158431278335     1.325287921050     0.000093279989    15.994914619570
         C           -1.338015721665     0.426642921050     0.000030279989    12.000000000000
         C           -2.586738721665    -0.425057078950     0.000077279989    12.000000000000
         C            0.914002378335     0.071096921050    -0.000160420011    12.000000000000
         C            2.101142278335    -0.914400078950     0.000050279989    12.000000000000
         H           -1.273066721665     1.067955921050     0.883307279989     1.007825032230
         H           -1.273223721665     1.068087921050    -0.883163720011     1.007825032230
         H           -3.474213721665     0.214133921050     0.000202279989     1.007825032230
         H           -2.616779721665    -1.061425078950    -0.886816720011     1.007825032230
         H           -2.616625721665    -1.061554078950     0.886884279989     1.007825032230
         H            2.009850278335    -1.553243078950    -0.881510720011     1.007825032230
         H            2.010458278335    -1.552155078950     0.882472279989     1.007825032230
         H            3.066578278335    -0.410344078950    -0.000543720011     1.007825032230

  Basis Set: AUG-CC-PVTZ
    Blend: AUG-CC-PVTZ
  Basis Set: (AUG-CC-PVTZ AUX)
    Blend: AUG-CC-PVTZ-JKFIT
	 Reference Energy          =    -305.9775563620212324 [Eh]
	 Singles Energy            =      -0.0000000000000000 [Eh]
	 Same-Spin Energy          =      -0.2975073347915763 [Eh]
	 Opposite-Spin Energy      =      -0.9765608393651932 [Eh]
	 Correlation Energy        =      -1.2740681741567697 [Eh]
	 Total Energy              =    -307.2516245361779852 [Eh]

	 ================> DF-SCS-MP2 Energies <==================
	-----------------------------------------------------------
	 SCS Same-Spin Scale       =       0.3333333333333333 [-]
	 SCS Opposite-Spin Scale   =       1.2000000000000000 [-]
	 SCS Same-Spin Energy      =      -0.0991691115971921 [Eh]
	 SCS Opposite-Spin Energy  =      -1.1718730072382317 [Eh]
	 SCS Correlation Energy    =      -1.2710421188354237 [Eh]
	 SCS Total Energy          =    -307.2485984808566286 [Eh]
	-----------------------------------------------------------

  Dipole Moment: [D]
     X:    -1.8760      Y:    -2.0131      Z:     0.0000     Total:     2.7517

*** Psi4 exiting successfully. Buy a developer a beer!
