                               Psi4 1.4a3.dev225

  ==> Input File <==

--------------------------------------------------------------------------
#psi4
#
memory 32 gb

molecule  {
0 1
  O       -0.1816510    -0.4579540    -0.0000570
  O        1.1902550     1.3536590     0.0000010
  C       -1.2906471     0.4424348     0.0000239
  C       -2.5549650    -0.3967600     0.0000230
  C        1.0354680     0.1438080    -0.0000450
  C        2.1329650    -0.8861250     0.0000100
  H       -1.2416190     1.0963160     0.8832990
  H       -1.2416760     1.0964030    -0.8831890
  H       -3.4421510     0.2427570     0.0000820
  H       -2.5852380    -1.0333410    -0.8867630
  H       -2.5851830    -1.0334280     0.8867480
  H        2.0420880    -1.5247240    -0.8817090
  H        2.0428830    -1.5236850     0.8825710
  H        3.0983080    -0.3817210    -0.0006790
units angstrom
no_reorient  #important for SAPT in psi4, default
symmetry c1  #important for SAPT in psi4, default
}

set PROPERTIES_ORIGIN ["COM"]
properties('MP2/aug-cc-pvtz', properties = ['dipole'])
--------------------------------------------------------------------------

    Molecular point group: c1
  Charge       = 0
  Multiplicity = 1
  Basis Set: AUG-CC-PVTZ
    Blend: AUG-CC-PVTZ
  Basis Set: (AUG-CC-PVTZ AUX)
    Blend: AUG-CC-PVTZ-JKFIT

    Orbital Energies [Eh]
    ---------------------

    Doubly Occupied:

       1A    -20.603277     2A    -20.545452     3A    -11.383309
       4A    -11.287656     5A    -11.242537     6A    -11.224358
       7A     -1.456054     8A     -1.354381     9A     -1.053942
      10A     -1.000345    11A     -0.862680    12A     -0.781441
      13A     -0.690254    14A     -0.683699    15A     -0.663983
      16A     -0.607956    17A     -0.580656    18A     -0.565444
      19A     -0.551502    20A     -0.539254    21A     -0.508747
      22A     -0.498815    23A     -0.457384    24A     -0.448409

  @DF-RHF Final Energy:  -305.99071301715992

   => Energetics <=

    Nuclear Repulsion Energy =            243.4579151038739155
    One-Electron Energy =                -899.7141900644136285
    Two-Electron Energy =                 350.2655619433797938
    Total Energy =                       -305.9907130171599192
  Basis Set: (AUG-CC-PVTZ AUX)
    Blend: AUG-CC-PVTZ-RI
    Molecular point group: c1

    Geometry (in Angstrom), charge = 0, multiplicity = 1:

       Center              X                  Y                   Z               Mass
    ------------   -----------------  -----------------  -----------------  -----------------
         O           -0.227796024742    -0.490680409506    -0.000052569705    15.994914619570
         O            1.144109975258     1.320932590494     0.000005430295    15.994914619570
         C           -1.336792124742     0.409708390494     0.000028330295    12.000000000000
         C           -2.601110024742    -0.429486409506     0.000027430295    12.000000000000
         C            0.989322975258     0.111081590494    -0.000040569705    12.000000000000
         C            2.086819975258    -0.918851409506     0.000014430295    12.000000000000
         H           -1.287764024742     1.063589590494     0.883303430295     1.007825032230
         H           -1.287821024742     1.063676590494    -0.883184569705     1.007825032230
         H           -3.488296024742     0.210030590494     0.000086430295     1.007825032230
         H           -2.631383024742    -1.066067409506    -0.886758569705     1.007825032230
         H           -2.631328024742    -1.066154409506     0.886752430295     1.007825032230
         H            1.995942975258    -1.557450409506    -0.881704569705     1.007825032230
         H            1.996737975258    -1.556411409506     0.882575430295     1.007825032230
         H            3.052162975258    -0.414447409506    -0.000674569705     1.007825032230

  Basis Set: AUG-CC-PVTZ
    Blend: AUG-CC-PVTZ
  Basis Set: (AUG-CC-PVTZ AUX)
    Blend: AUG-CC-PVTZ-JKFIT
	 Reference Energy          =    -305.9907130171599192 [Eh]
	 Singles Energy            =      -0.0000000000000000 [Eh]
	 Same-Spin Energy          =      -0.2972208042122568 [Eh]
	 Opposite-Spin Energy      =      -0.9761225288839610 [Eh]
	 Correlation Energy        =      -1.2733433330962178 [Eh]
	 Total Energy              =    -307.2640563502561122 [Eh]

	 ================> DF-SCS-MP2 Energies <==================
	-----------------------------------------------------------
	 SCS Same-Spin Scale       =       0.3333333333333333 [-]
	 SCS Opposite-Spin Scale   =       1.2000000000000000 [-]
	 SCS Same-Spin Energy      =      -0.0990736014040856 [Eh]
	 SCS Opposite-Spin Energy  =      -1.1713470346607531 [Eh]
	 SCS Correlation Energy    =      -1.2704206360648387 [Eh]
	 SCS Total Energy          =    -307.2611336532247606 [Eh]
	-----------------------------------------------------------

  Dipole Moment: [D]
     X:    -0.8990      Y:    -1.7065      Z:     0.0001     Total:     1.9288

*** Psi4 exiting successfully. Buy a developer a beer!
