                               Psi4 1.3.2 release

  ==> Input File <==

--------------------------------------------------------------------------
#psi4
#
memory 32 gb

molecule  {
0 1
  O       -0.1709418    -0.4793393    -0.0001483
  O        1.1902440     1.3536890     0.0000850
  C       -1.3062030     0.4550440     0.0000220
  C       -2.5549260    -0.3966560     0.0000690
  C        1.0354490     0.1438350    -0.0001700
  C        2.1329550    -0.8859990     0.0000420
  H       -1.2412540     1.0963570     0.8832990
  H       -1.2414110     1.0964890    -0.8831720
  H       -3.4424010     0.2425350     0.0001940
  H       -2.5849670    -1.0330240    -0.8868250
  H       -2.5848130    -1.0331530     0.8868760
  H        2.0416630    -1.5248420    -0.8815190
  H        2.0422710    -1.5237540     0.8824640
  H        3.0983910    -0.3819430    -0.0005520
units angstrom
no_reorient  #important for SAPT in psi4, default
symmetry c1  #important for SAPT in psi4, default
}

set PROPERTIES_ORIGIN ["COM"]
properties('MP2/aug-cc-pvtz', properties = ['dipole'])
--------------------------------------------------------------------------

    Molecular point group: c1
  Charge       = 0
  Multiplicity = 1
  Basis Set: AUG-CC-PVTZ
    Blend: AUG-CC-PVTZ
  Basis Set: (AUG-CC-PVTZ AUX)
    Blend: AUG-CC-PVTZ-JKFIT

    Orbital Energies [Eh]
    ---------------------

    Doubly Occupied:

       1A    -20.601997     2A    -20.544254     3A    -11.381137
       4A    -11.290639     5A    -11.239807     6A    -11.225871
       7A     -1.447830     8A     -1.349999     9A     -1.053430
      10A     -1.000009    11A     -0.859840    12A     -0.778754
      13A     -0.687075    14A     -0.680032    15A     -0.660596
      16A     -0.608824    17A     -0.578458    18A     -0.565815
      19A     -0.549860    20A     -0.533084    21A     -0.515504
      22A     -0.500536    23A     -0.460506    24A     -0.446246

  @DF-RHF Final Energy:  -305.98923328578536

   => Energetics <=

    Nuclear Repulsion Energy =            242.8341617698362427
    One-Electron Energy =                -898.5265845521854544
    Two-Electron Energy =                 349.7031894965638799
    Total Energy =                       -305.9892332857853603
  Basis Set: (AUG-CC-PVTZ AUX)
    Blend: AUG-CC-PVTZ-RI
    Molecular point group: c1

    Geometry (in Angstrom), charge = 0, multiplicity = 1:

       Center              X                  Y                   Z               Mass
    ------------   -----------------  -----------------  -----------------  -----------------
         O           -0.216912309624    -0.509940917349    -0.000140514957    15.994914619570
         O            1.144273490376     1.323087382651     0.000092785043    15.994914619570
         C           -1.352173509624     0.424442382651     0.000029785043    12.000000000000
         C           -2.600896509624    -0.427257617349     0.000076785043    12.000000000000
         C            0.989478490376     0.113233382651    -0.000162214957    12.000000000000
         C            2.086984490376    -0.916600617349     0.000049785043    12.000000000000
         H           -1.287224509624     1.065755382651     0.883306785043     1.007825032230
         H           -1.287381509624     1.065887382651    -0.883164214957     1.007825032230
         H           -3.488371509624     0.211933382651     0.000201785043     1.007825032230
         H           -2.630937509624    -1.063625617349    -0.886817214957     1.007825032230
         H           -2.630783509624    -1.063754617349     0.886883785043     1.007825032230
         H            1.995692490376    -1.555443617349    -0.881511214957     1.007825032230
         H            1.996300490376    -1.554355617349     0.882471785043     1.007825032230
         H            3.052420490376    -0.412544617349    -0.000544214957     1.007825032230

  Basis Set: AUG-CC-PVTZ
    Blend: AUG-CC-PVTZ
  Basis Set: (AUG-CC-PVTZ AUX)
    Blend: AUG-CC-PVTZ-JKFIT
	 Reference Energy          =    -305.9892332857853603 [Eh]
	 Singles Energy            =      -0.0000000000000000 [Eh]
	 Same-Spin Energy          =      -0.2974389030883988 [Eh]
	 Opposite-Spin Energy      =      -0.9770064696587735 [Eh]
	 Correlation Energy        =      -1.2744453727471723 [Eh]
	 Total Energy              =    -307.2636786585325126 [Eh]

	 ================> DF-SCS-MP2 Energies <==================
	-----------------------------------------------------------
	 SCS Same-Spin Scale       =       0.3333333333333333 [-]
	 SCS Opposite-Spin Scale   =       1.2000000000000000 [-]
	 SCS Same-Spin Energy      =      -0.0991463010294663 [Eh]
	 SCS Opposite-Spin Energy  =      -1.1724077635905281 [Eh]
	 SCS Correlation Energy    =      -1.2715540646199943 [Eh]
	 SCS Total Energy          =    -307.2607873504053373 [Eh]
	-----------------------------------------------------------

  Dipole Moment: [D]
     X:    -1.0639      Y:    -1.6246      Z:     0.0000     Total:     1.9419

*** Psi4 exiting successfully. Buy a developer a beer!
