                               Psi4 1.3.2 release

  ==> Input File <==

--------------------------------------------------------------------------
#psi4
#
memory 32 gb

molecule  {
0 1
  O       -0.2480774    -0.5344114    -0.0001519
  O        1.1902440     1.3536890     0.0000850
  C       -1.3062030     0.4550440     0.0000220
  C       -2.5549260    -0.3966560     0.0000690
  C        1.0354490     0.1438350    -0.0001700
  C        2.1329550    -0.8859990     0.0000420
  H       -1.2412540     1.0963570     0.8832990
  H       -1.2414110     1.0964890    -0.8831720
  H       -3.4424010     0.2425350     0.0001940
  H       -2.5849670    -1.0330240    -0.8868250
  H       -2.5848130    -1.0331530     0.8868760
  H        2.0416630    -1.5248420    -0.8815190
  H        2.0422710    -1.5237540     0.8824640
  H        3.0983910    -0.3819430    -0.0005520
units angstrom
no_reorient  #important for SAPT in psi4, default
symmetry c1  #important for SAPT in psi4, default
}

set PROPERTIES_ORIGIN ["COM"]
properties('MP2/aug-cc-pvtz', properties = ['dipole'])
--------------------------------------------------------------------------

    Molecular point group: c1
  Charge       = 0
  Multiplicity = 1
  Basis Set: AUG-CC-PVTZ
    Blend: AUG-CC-PVTZ
  Basis Set: (AUG-CC-PVTZ AUX)
    Blend: AUG-CC-PVTZ-JKFIT

    Orbital Energies [Eh]
    ---------------------

    Doubly Occupied:

       1A    -20.598525     2A    -20.562312     3A    -11.394412
       4A    -11.281815     5A    -11.246303     6A    -11.218328
       7A     -1.430889     8A     -1.353234     9A     -1.045795
      10A     -0.999545    11A     -0.847572    12A     -0.776278
      13A     -0.691731    14A     -0.671943    15A     -0.654556
      16A     -0.608536    17A     -0.581630    18A     -0.568588
      19A     -0.544413    20A     -0.529870    21A     -0.511063
      22A     -0.502538    23A     -0.460751    24A     -0.449647

  @DF-RHF Final Energy:  -305.97604008882246

   => Energetics <=

    Nuclear Repulsion Energy =            241.3913027519512298
    One-Electron Energy =                -895.6741344136981979
    Two-Electron Energy =                 348.3067915729245101
    Total Energy =                       -305.9760400888224581
  Basis Set: (AUG-CC-PVTZ AUX)
    Blend: AUG-CC-PVTZ-RI
    Molecular point group: c1

    Geometry (in Angstrom), charge = 0, multiplicity = 1:

       Center              X                  Y                   Z               Mass
    ------------   -----------------  -----------------  -----------------  -----------------
         O           -0.280036060738    -0.555009051048    -0.000143461009    15.994914619570
         O            1.158285339262     1.333091348952     0.000093438991    15.994914619570
         C           -1.338161660738     0.434446348952     0.000030438991    12.000000000000
         C           -2.586884660738    -0.417253651048     0.000077438991    12.000000000000
         C            1.003490339262     0.123237348952    -0.000161561009    12.000000000000
         C            2.100996339262    -0.906596651048     0.000050438991    12.000000000000
         H           -1.273212660738     1.075759348952     0.883307438991     1.007825032230
         H           -1.273369660738     1.075891348952    -0.883163561009     1.007825032230
         H           -3.474359660738     0.221937348952     0.000202438991     1.007825032230
         H           -2.616925660738    -1.053621651048    -0.886816561009     1.007825032230
         H           -2.616771660738    -1.053750651048     0.886884438991     1.007825032230
         H            2.009704339262    -1.545439651048    -0.881510561009     1.007825032230
         H            2.010312339262    -1.544351651048     0.882472438991     1.007825032230
         H            3.066432339262    -0.402540651048    -0.000543561009     1.007825032230

  Basis Set: AUG-CC-PVTZ
    Blend: AUG-CC-PVTZ
  Basis Set: (AUG-CC-PVTZ AUX)
    Blend: AUG-CC-PVTZ-JKFIT
	 Reference Energy          =    -305.9760400888224581 [Eh]
	 Singles Energy            =      -0.0000000000000000 [Eh]
	 Same-Spin Energy          =      -0.2989585363798664 [Eh]
	 Opposite-Spin Energy      =      -0.9810695723841432 [Eh]
	 Correlation Energy        =      -1.2800281087640095 [Eh]
	 Total Energy              =    -307.2560681975864441 [Eh]

	 ================> DF-SCS-MP2 Energies <==================
	-----------------------------------------------------------
	 SCS Same-Spin Scale       =       0.3333333333333333 [-]
	 SCS Opposite-Spin Scale   =       1.2000000000000000 [-]
	 SCS Same-Spin Energy      =      -0.0996528454599555 [Eh]
	 SCS Opposite-Spin Energy  =      -1.1772834868609718 [Eh]
	 SCS Correlation Energy    =      -1.2769363323209273 [Eh]
	 SCS Total Energy          =    -307.2529764211433871 [Eh]
	-----------------------------------------------------------

  Dipole Moment: [D]
     X:    -0.3866      Y:    -1.3955      Z:     0.0001     Total:     1.4480

*** Psi4 exiting successfully. Buy a developer a beer!
