                               Psi4 1.3.2 release

  ==> Input File <==

--------------------------------------------------------------------------
#psi4
#
memory 32 gb

molecule  {
0 1
  O       -0.1366741    -0.5416229    -0.0001373
  O        1.1902440     1.3536890     0.0000850
  C       -1.3062030     0.4550440     0.0000220
  C       -2.5549260    -0.3966560     0.0000690
  C        1.0354490     0.1438350    -0.0001700
  C        2.1329550    -0.8859990     0.0000420
  H       -1.2412540     1.0963570     0.8832990
  H       -1.2414110     1.0964890    -0.8831720
  H       -3.4424010     0.2425350     0.0001940
  H       -2.5849670    -1.0330240    -0.8868250
  H       -2.5848130    -1.0331530     0.8868760
  H        2.0416630    -1.5248420    -0.8815190
  H        2.0422710    -1.5237540     0.8824640
  H        3.0983910    -0.3819430    -0.0005520
units angstrom
no_reorient  #important for SAPT in psi4, default
symmetry c1  #important for SAPT in psi4, default
}

set PROPERTIES_ORIGIN ["COM"]
properties('MP2/aug-cc-pvtz', properties = ['dipole'])
--------------------------------------------------------------------------

    Molecular point group: c1
  Charge       = 0
  Multiplicity = 1
  Basis Set: AUG-CC-PVTZ
    Blend: AUG-CC-PVTZ
  Basis Set: (AUG-CC-PVTZ AUX)
    Blend: AUG-CC-PVTZ-JKFIT

    Orbital Energies [Eh]
    ---------------------

    Doubly Occupied:

       1A    -20.604088     2A    -20.544902     3A    -11.379186
       4A    -11.298377     5A    -11.234404     6A    -11.228576
       7A     -1.439096     8A     -1.346861     9A     -1.051975
      10A     -0.997609    11A     -0.855679    12A     -0.775532
      13A     -0.683250    14A     -0.674393    15A     -0.657087
      16A     -0.609611    17A     -0.575113    18A     -0.568767
      19A     -0.546784    20A     -0.527613    21A     -0.517767
      22A     -0.502592    23A     -0.465638    24A     -0.443543

  @DF-RHF Final Energy:  -305.98039718846462

   => Energetics <=

    Nuclear Repulsion Energy =            241.8584203352724558
    One-Electron Energy =                -896.6207511836171307
    Two-Electron Energy =                 348.7819336598799964
    Total Energy =                       -305.9803971884646216
  Basis Set: (AUG-CC-PVTZ AUX)
    Blend: AUG-CC-PVTZ-RI
    Molecular point group: c1

    Geometry (in Angstrom), charge = 0, multiplicity = 1:

       Center              X                  Y                   Z               Mass
    ------------   -----------------  -----------------  -----------------  -----------------
         O           -0.188869411584    -0.560910566446    -0.000131513131    15.994914619570
         O            1.138048688416     1.334401333554     0.000090786869    15.994914619570
         C           -1.358398311584     0.435756333554     0.000027786869    12.000000000000
         C           -2.607121311584    -0.415943666446     0.000074786869    12.000000000000
         C            0.983253688416     0.124547333554    -0.000164213131    12.000000000000
         C            2.080759688416    -0.905286666446     0.000047786869    12.000000000000
         H           -1.293449311584     1.077069333554     0.883304786869     1.007825032230
         H           -1.293606311584     1.077201333554    -0.883166213131     1.007825032230
         H           -3.494596311584     0.223247333554     0.000199786869     1.007825032230
         H           -2.637162311584    -1.052311666446    -0.886819213131     1.007825032230
         H           -2.637008311584    -1.052440666446     0.886881786869     1.007825032230
         H            1.989467688416    -1.544129666446    -0.881513213131     1.007825032230
         H            1.990075688416    -1.543041666446     0.882469786869     1.007825032230
         H            3.046195688416    -0.401230666446    -0.000546213131     1.007825032230

  Basis Set: AUG-CC-PVTZ
    Blend: AUG-CC-PVTZ
  Basis Set: (AUG-CC-PVTZ AUX)
    Blend: AUG-CC-PVTZ-JKFIT
	 Reference Energy          =    -305.9803971884646216 [Eh]
	 Singles Energy            =      -0.0000000000000000 [Eh]
	 Same-Spin Energy          =      -0.2981562505387717 [Eh]
	 Opposite-Spin Energy      =      -0.9793349419348502 [Eh]
	 Correlation Energy        =      -1.2774911924736219 [Eh]
	 Total Energy              =    -307.2578883809382546 [Eh]

	 ================> DF-SCS-MP2 Energies <==================
	-----------------------------------------------------------
	 SCS Same-Spin Scale       =       0.3333333333333333 [-]
	 SCS Opposite-Spin Scale   =       1.2000000000000000 [-]
	 SCS Same-Spin Energy      =      -0.0993854168462572 [Eh]
	 SCS Opposite-Spin Energy  =      -1.1752019303218202 [Eh]
	 SCS Correlation Energy    =      -1.2745873471680773 [Eh]
	 SCS Total Energy          =    -307.2549845356326728 [Eh]
	-----------------------------------------------------------

  Dipole Moment: [D]
     X:    -1.3034      Y:    -1.4616      Z:     0.0000     Total:     1.9583

*** Psi4 exiting successfully. Buy a developer a beer!
