                               Psi4 1.3.2 release

  ==> Input File <==

--------------------------------------------------------------------------
#psi4
#
memory 32 gb

molecule  {
0 1
  O       -0.2832535    -0.5707367    -0.0001516
  O        1.1902440     1.3536890     0.0000850
  C       -1.3062030     0.4550440     0.0000220
  C       -2.5549260    -0.3966560     0.0000690
  C        1.0354490     0.1438350    -0.0001700
  C        2.1329550    -0.8859990     0.0000420
  H       -1.2412540     1.0963570     0.8832990
  H       -1.2414110     1.0964890    -0.8831720
  H       -3.4424010     0.2425350     0.0001940
  H       -2.5849670    -1.0330240    -0.8868250
  H       -2.5848130    -1.0331530     0.8868760
  H        2.0416630    -1.5248420    -0.8815190
  H        2.0422710    -1.5237540     0.8824640
  H        3.0983910    -0.3819430    -0.0005520
units angstrom
no_reorient  #important for SAPT in psi4, default
symmetry c1  #important for SAPT in psi4, default
}

set PROPERTIES_ORIGIN ["COM"]
properties('MP2/aug-cc-pvtz', properties = ['dipole'])
--------------------------------------------------------------------------

    Molecular point group: c1
  Charge       = 0
  Multiplicity = 1
  Basis Set: AUG-CC-PVTZ
    Blend: AUG-CC-PVTZ
  Basis Set: (AUG-CC-PVTZ AUX)
    Blend: AUG-CC-PVTZ-JKFIT

    Orbital Energies [Eh]
    ---------------------

    Doubly Occupied:

       1A    -20.596849     2A    -20.570565     3A    -11.400040
       4A    -11.279090     5A    -11.248777     6A    -11.215171
       7A     -1.426026     8A     -1.350725     9A     -1.042783
      10A     -0.998447    11A     -0.842221    12A     -0.774917
      13A     -0.692107    14A     -0.667769    15A     -0.652494
      16A     -0.609194    17A     -0.582011    18A     -0.570511
      19A     -0.541529    20A     -0.528270    21A     -0.508506
      22A     -0.504416    23A     -0.460481    24A     -0.448081

  @DF-RHF Final Energy:  -305.96455693098864

   => Energetics <=

    Nuclear Repulsion Energy =            240.5662802450838740
    One-Electron Energy =                -894.0397168808423203
    Two-Electron Energy =                 347.5088797047697540
    Total Energy =                       -305.9645569309886355
  Basis Set: (AUG-CC-PVTZ AUX)
    Blend: AUG-CC-PVTZ-RI
    Molecular point group: c1

    Geometry (in Angstrom), charge = 0, multiplicity = 1:

       Center              X                  Y                   Z               Mass
    ------------   -----------------  -----------------  -----------------  -----------------
         O           -0.308822345950    -0.584735781589    -0.000143215505    15.994914619570
         O            1.164675154050     1.339689918411     0.000093384495    15.994914619570
         C           -1.331771845950     0.441044918411     0.000030384495    12.000000000000
         C           -2.580494845950    -0.410655081589     0.000077384495    12.000000000000
         C            1.009880154050     0.129835918411    -0.000161615505    12.000000000000
         C            2.107386154050    -0.899998081589     0.000050384495    12.000000000000
         H           -1.266822845950     1.082357918411     0.883307384495     1.007825032230
         H           -1.266979845950     1.082489918411    -0.883163615505     1.007825032230
         H           -3.467969845950     0.228535918411     0.000202384495     1.007825032230
         H           -2.610535845950    -1.047023081589    -0.886816615505     1.007825032230
         H           -2.610381845950    -1.047152081589     0.886884384495     1.007825032230
         H            2.016094154050    -1.538841081589    -0.881510615505     1.007825032230
         H            2.016702154050    -1.537753081589     0.882472384495     1.007825032230
         H            3.072822154050    -0.395942081589    -0.000543615505     1.007825032230

  Basis Set: AUG-CC-PVTZ
    Blend: AUG-CC-PVTZ
  Basis Set: (AUG-CC-PVTZ AUX)
    Blend: AUG-CC-PVTZ-JKFIT
	 Reference Energy          =    -305.9645569309886355 [Eh]
	 Singles Energy            =      -0.0000000000000000 [Eh]
	 Same-Spin Energy          =      -0.2999664625267709 [Eh]
	 Opposite-Spin Energy      =      -0.9837513044746082 [Eh]
	 Correlation Energy        =      -1.2837177670013791 [Eh]
	 Total Energy              =    -307.2482746979900412 [Eh]

	 ================> DF-SCS-MP2 Energies <==================
	-----------------------------------------------------------
	 SCS Same-Spin Scale       =       0.3333333333333333 [-]
	 SCS Opposite-Spin Scale   =       1.2000000000000000 [-]
	 SCS Same-Spin Energy      =      -0.0999888208422570 [Eh]
	 SCS Opposite-Spin Energy  =      -1.1805015653695299 [Eh]
	 SCS Correlation Energy    =      -1.2804903862117869 [Eh]
	 SCS Total Energy          =    -307.2450473172004308 [Eh]
	-----------------------------------------------------------

  Dipole Moment: [D]
     X:    -0.0885      Y:    -1.2632      Z:     0.0001     Total:     1.2663

*** Psi4 exiting successfully. Buy a developer a beer!
