                               Psi4 1.3.2 release

  ==> Input File <==

--------------------------------------------------------------------------
#psi4
#
memory 32 gb

molecule  {
0 1
  O       -0.1989205    -0.4780688    -0.0433133
  O        1.1902440     1.3536890     0.0000850
  C       -1.3062030     0.4550440     0.0000220
  C       -2.5549260    -0.3966560     0.0000690
  C        1.0354490     0.1438350    -0.0001700
  C        2.1329550    -0.8859990     0.0000420
  H       -1.2412540     1.0963570     0.8832990
  H       -1.2414110     1.0964890    -0.8831720
  H       -3.4424010     0.2425350     0.0001940
  H       -2.5849670    -1.0330240    -0.8868250
  H       -2.5848130    -1.0331530     0.8868760
  H        2.0416630    -1.5248420    -0.8815190
  H        2.0422710    -1.5237540     0.8824640
  H        3.0983910    -0.3819430    -0.0005520
units angstrom
no_reorient  #important for SAPT in psi4, default
symmetry c1  #important for SAPT in psi4, default
}

set PROPERTIES_ORIGIN ["COM"]
properties('MP2/aug-cc-pvtz', properties = ['dipole'])
--------------------------------------------------------------------------

    Molecular point group: c1
  Charge       = 0
  Multiplicity = 1
  Basis Set: AUG-CC-PVTZ
    Blend: AUG-CC-PVTZ
  Basis Set: (AUG-CC-PVTZ AUX)
    Blend: AUG-CC-PVTZ-JKFIT

    Orbital Energies [Eh]
    ---------------------

    Doubly Occupied:

       1A    -20.600385     2A    -20.549187     3A    -11.385423
       4A    -11.286290     5A    -11.242891     6A    -11.223162
       7A     -1.444313     8A     -1.352545     9A     -1.051551
      10A     -1.000538    11A     -0.857592    12A     -0.778556
      13A     -0.689594    14A     -0.679109    15A     -0.659388
      16A     -0.608478    17A     -0.580321    18A     -0.566041
      19A     -0.549076    20A     -0.534189    21A     -0.512944
      22A     -0.500307    23A     -0.459299    24A     -0.448300

  @DF-RHF Final Energy:  -305.98782085031002

   => Energetics <=

    Nuclear Repulsion Energy =            242.6737892273604871
    One-Electron Energy =                -898.2042639488572604
    Two-Electron Energy =                 349.5426538711868147
    Total Energy =                       -305.9878208503100154
  Basis Set: (AUG-CC-PVTZ AUX)
    Blend: AUG-CC-PVTZ-RI
    Molecular point group: c1

    Geometry (in Angstrom), charge = 0, multiplicity = 1:

       Center              X                  Y                   Z               Mass
    ------------   -----------------  -----------------  -----------------  -----------------
         O           -0.239808618142    -0.508901206427    -0.035464499172    15.994914619570
         O            1.149355881858     1.322856593573     0.007933800828    15.994914619570
         C           -1.347091118142     0.424211593573     0.007870800828    12.000000000000
         C           -2.595814118142    -0.427488406427     0.007917800828    12.000000000000
         C            0.994560881858     0.113002593573     0.007678800828    12.000000000000
         C            2.092066881858    -0.916831406427     0.007890800828    12.000000000000
         H           -1.282142118142     1.065524593573     0.891147800828     1.007825032230
         H           -1.282299118142     1.065656593573    -0.875323199172     1.007825032230
         H           -3.483289118142     0.211702593573     0.008042800828     1.007825032230
         H           -2.625855118142    -1.063856406427    -0.878976199172     1.007825032230
         H           -2.625701118142    -1.063985406427     0.894724800828     1.007825032230
         H            2.000774881858    -1.555674406427    -0.873670199172     1.007825032230
         H            2.001382881858    -1.554586406427     0.890312800828     1.007825032230
         H            3.057502881858    -0.412775406427     0.007296800828     1.007825032230

  Basis Set: AUG-CC-PVTZ
    Blend: AUG-CC-PVTZ
  Basis Set: (AUG-CC-PVTZ AUX)
    Blend: AUG-CC-PVTZ-JKFIT
	 Reference Energy          =    -305.9878208503100154 [Eh]
	 Singles Energy            =      -0.0000000000000000 [Eh]
	 Same-Spin Energy          =      -0.2976741990801061 [Eh]
	 Opposite-Spin Energy      =      -0.9775336982620420 [Eh]
	 Correlation Energy        =      -1.2752078973421481 [Eh]
	 Total Energy              =    -307.2630287476521858 [Eh]

	 ================> DF-SCS-MP2 Energies <==================
	-----------------------------------------------------------
	 SCS Same-Spin Scale       =       0.3333333333333333 [-]
	 SCS Opposite-Spin Scale   =       1.2000000000000000 [-]
	 SCS Same-Spin Energy      =      -0.0992247330267020 [Eh]
	 SCS Opposite-Spin Energy  =      -1.1730404379144503 [Eh]
	 SCS Correlation Energy    =      -1.2722651709411523 [Eh]
	 SCS Total Energy          =    -307.2600860212511407 [Eh]
	-----------------------------------------------------------

  Dipole Moment: [D]
     X:    -0.8203      Y:    -1.6036      Z:     0.0529     Total:     1.8020

*** Psi4 exiting successfully. Buy a developer a beer!
