                               Psi4 1.3.2 release

  ==> Input File <==

--------------------------------------------------------------------------
#psi4
#
memory 32 gb

molecule  {
0 1
  O       -0.1977434    -0.4776773    -0.0001521
  O        1.1902440     1.3536890     0.0000850
  C       -1.3062030     0.4550440     0.0000220
  C       -2.5549260    -0.3966560     0.0000690
  C        1.0354490     0.1438350    -0.0001700
  C        2.1329550    -0.8859990     0.0000420
  H       -1.2412540     1.0963570     0.8832990
  H       -1.2414110     1.0964890    -0.8831720
  H       -3.4424010     0.2425350     0.0001940
  H       -2.5849670    -1.0330240    -0.8868250
  H       -2.5848130    -1.0331530     0.8868760
  H        2.0416630    -1.5248420    -0.8815190
  H        2.0422710    -1.5237540     0.8824640
  H        3.0983910    -0.3819430    -0.0005520
units angstrom
no_reorient  #important for SAPT in psi4, default
symmetry c1  #important for SAPT in psi4, default
}

set PROPERTIES_ORIGIN ["COM"]
properties('MP2/aug-cc-pvtz', properties = ['dipole'])
--------------------------------------------------------------------------

    Molecular point group: c1
  Charge       = 0
  Multiplicity = 1
  Basis Set: AUG-CC-PVTZ
    Blend: AUG-CC-PVTZ
  Basis Set: (AUG-CC-PVTZ AUX)
    Blend: AUG-CC-PVTZ-JKFIT

    Orbital Energies [Eh]
    ---------------------

    Doubly Occupied:

       1A    -20.600526     2A    -20.548833     3A    -11.385166
       4A    -11.286444     5A    -11.242752     6A    -11.223293
       7A     -1.444794     8A     -1.352530     9A     -1.051764
      10A     -1.000519    11A     -0.857881    12A     -0.778666
      13A     -0.689513    14A     -0.679385    15A     -0.659584
      16A     -0.608468    17A     -0.580258    18A     -0.565966
      19A     -0.549170    20A     -0.534277    21A     -0.512906
      22A     -0.500369    23A     -0.459422    24A     -0.448242

  @DF-RHF Final Energy:  -305.98830175104717

   => Energetics <=

    Nuclear Repulsion Energy =            242.7118092584512397
    One-Electron Energy =                -898.2787661211385739
    Two-Electron Energy =                 349.5786551116401597
    Total Energy =                       -305.9883017510471745
  Basis Set: (AUG-CC-PVTZ AUX)
    Blend: AUG-CC-PVTZ-RI
    Molecular point group: c1

    Geometry (in Angstrom), charge = 0, multiplicity = 1:

       Center              X                  Y                   Z               Mass
    ------------   -----------------  -----------------  -----------------  -----------------
         O           -0.238845340907    -0.508580823250    -0.000143624679    15.994914619570
         O            1.149142059093     1.322785476750     0.000093475321    15.994914619570
         C           -1.347304940907     0.424140476750     0.000030475321    12.000000000000
         C           -2.596027940907    -0.427559523250     0.000077475321    12.000000000000
         C            0.994347059093     0.112931476750    -0.000161524679    12.000000000000
         C            2.091853059093    -0.916902523250     0.000050475321    12.000000000000
         H           -1.282355940907     1.065453476750     0.883307475321     1.007825032230
         H           -1.282512940907     1.065585476750    -0.883163524679     1.007825032230
         H           -3.483502940907     0.211631476750     0.000202475321     1.007825032230
         H           -2.626068940907    -1.063927523250    -0.886816524679     1.007825032230
         H           -2.625914940907    -1.064056523250     0.886884475321     1.007825032230
         H            2.000561059093    -1.555745523250    -0.881510524679     1.007825032230
         H            2.001169059093    -1.554657523250     0.882472475321     1.007825032230
         H            3.057289059093    -0.412846523250    -0.000543524679     1.007825032230

  Basis Set: AUG-CC-PVTZ
    Blend: AUG-CC-PVTZ
  Basis Set: (AUG-CC-PVTZ AUX)
    Blend: AUG-CC-PVTZ-JKFIT
	 Reference Energy          =    -305.9883017510471745 [Eh]
	 Singles Energy            =      -0.0000000000000000 [Eh]
	 Same-Spin Energy          =      -0.2976400316633061 [Eh]
	 Opposite-Spin Energy      =      -0.9774359630081449 [Eh]
	 Correlation Energy        =      -1.2750759946714512 [Eh]
	 Total Energy              =    -307.2633777457186284 [Eh]

	 ================> DF-SCS-MP2 Energies <==================
	-----------------------------------------------------------
	 SCS Same-Spin Scale       =       0.3333333333333333 [-]
	 SCS Opposite-Spin Scale   =       1.2000000000000000 [-]
	 SCS Same-Spin Energy      =      -0.0992133438877687 [Eh]
	 SCS Opposite-Spin Energy  =      -1.1729231556097739 [Eh]
	 SCS Correlation Energy    =      -1.2721364994975426 [Eh]
	 SCS Total Energy          =    -307.2604382505447234 [Eh]
	-----------------------------------------------------------

  Dipole Moment: [D]
     X:    -0.8336      Y:    -1.6077      Z:     0.0001     Total:     1.8110

*** Psi4 exiting successfully. Buy a developer a beer!
