                               Psi4 1.3.2 release

  ==> Input File <==

--------------------------------------------------------------------------
#psi4
#
memory 32 gb

molecule  {
0 1
  O       -0.2375181    -0.5143929    -0.1294249
  O        1.1902440     1.3536890     0.0000850
  C       -1.3062030     0.4550440     0.0000220
  C       -2.5549260    -0.3966560     0.0000690
  C        1.0354490     0.1438350    -0.0001700
  C        2.1329550    -0.8859990     0.0000420
  H       -1.2412540     1.0963570     0.8832990
  H       -1.2414110     1.0964890    -0.8831720
  H       -3.4424010     0.2425350     0.0001940
  H       -2.5849670    -1.0330240    -0.8868250
  H       -2.5848130    -1.0331530     0.8868760
  H        2.0416630    -1.5248420    -0.8815190
  H        2.0422710    -1.5237540     0.8824640
  H        3.0983910    -0.3819430    -0.0005520
units angstrom
no_reorient  #important for SAPT in psi4, default
symmetry c1  #important for SAPT in psi4, default
}

set PROPERTIES_ORIGIN ["COM"]
properties('MP2/aug-cc-pvtz', properties = ['dipole'])
--------------------------------------------------------------------------

    Molecular point group: c1
  Charge       = 0
  Multiplicity = 1
  Basis Set: AUG-CC-PVTZ
    Blend: AUG-CC-PVTZ
  Basis Set: (AUG-CC-PVTZ AUX)
    Blend: AUG-CC-PVTZ-JKFIT

    Orbital Energies [Eh]
    ---------------------

    Doubly Occupied:

       1A    -20.598192     2A    -20.559744     3A    -11.392769
       4A    -11.282427     5A    -11.246032     6A    -11.219266
       7A     -1.432818     8A     -1.352902     9A     -1.046548
      10A     -1.000062    11A     -0.849369    12A     -0.776429
      13A     -0.691420    14A     -0.672726    15A     -0.655054
      16A     -0.608702    17A     -0.581584    18A     -0.568192
      19A     -0.545537    20A     -0.530803    21A     -0.512366
      22A     -0.501134    23A     -0.458954    24A     -0.449471

  @DF-RHF Final Energy:  -305.97684015771517

   => Energetics <=

    Nuclear Repulsion Energy =            241.6118669075621881
    One-Electron Energy =                -896.1124064419444721
    Two-Electron Energy =                 348.5236993766670821
    Total Energy =                       -305.9768401577151735
  Basis Set: (AUG-CC-PVTZ AUX)
    Blend: AUG-CC-PVTZ-RI
    Molecular point group: c1

    Geometry (in Angstrom), charge = 0, multiplicity = 1:

       Center              X                  Y                   Z               Mass
    ------------   -----------------  -----------------  -----------------  -----------------
         O           -0.271394880464    -0.538626954951    -0.105933740437    15.994914619570
         O            1.156367219536     1.329454945049     0.023576159563    15.994914619570
         C           -1.340079780464     0.430809945049     0.023513159563    12.000000000000
         C           -2.588802780464    -0.420890054951     0.023560159563    12.000000000000
         C            1.001572219536     0.119600945049     0.023321159563    12.000000000000
         C            2.099078219536    -0.910233054951     0.023533159563    12.000000000000
         H           -1.275130780464     1.072122945049     0.906790159563     1.007825032230
         H           -1.275287780464     1.072254945049    -0.859680840437     1.007825032230
         H           -3.476277780464     0.218300945049     0.023685159563     1.007825032230
         H           -2.618843780464    -1.057258054951    -0.863333840437     1.007825032230
         H           -2.618689780464    -1.057387054951     0.910367159563     1.007825032230
         H            2.007786219536    -1.549076054951    -0.858027840437     1.007825032230
         H            2.008394219536    -1.547988054951     0.905955159563     1.007825032230
         H            3.064514219536    -0.406177054951     0.022939159563     1.007825032230

  Basis Set: AUG-CC-PVTZ
    Blend: AUG-CC-PVTZ
  Basis Set: (AUG-CC-PVTZ AUX)
    Blend: AUG-CC-PVTZ-JKFIT
	 Reference Energy          =    -305.9768401577151735 [Eh]
	 Singles Energy            =      -0.0000000000000000 [Eh]
	 Same-Spin Energy          =      -0.2987118327715999 [Eh]
	 Opposite-Spin Energy      =      -0.9804199532244482 [Eh]
	 Correlation Energy        =      -1.2791317859960480 [Eh]
	 Total Energy              =    -307.2559719437112449 [Eh]

	 ================> DF-SCS-MP2 Energies <==================
	-----------------------------------------------------------
	 SCS Same-Spin Scale       =       0.3333333333333333 [-]
	 SCS Opposite-Spin Scale   =       1.2000000000000000 [-]
	 SCS Same-Spin Energy      =      -0.0995706109238666 [Eh]
	 SCS Opposite-Spin Energy  =      -1.1765039438693379 [Eh]
	 SCS Correlation Energy    =      -1.2760745547932044 [Eh]
	 SCS Total Energy          =    -307.2529147125083568 [Eh]
	-----------------------------------------------------------

  Dipole Moment: [D]
     X:    -0.4574      Y:    -1.4483      Z:     0.1673     Total:     1.5280

*** Psi4 exiting successfully. Buy a developer a beer!
