                               Psi4 1.4a2.dev612

  ==> Input File <==

--------------------------------------------------------------------------
#psi4
#
memory 32 gb

molecule  {
0 1
  N        1.4447430     0.9271060    -0.5600120
  N       -0.8646290     2.1728000     0.5033790
  C       -0.6433280    -0.2041590    -0.0552500
  C        0.8343400    -0.1560850    -0.0228830
  C       -1.4414270     0.9434540     0.1762700
  C       -1.2729090    -1.4294320    -0.3272730
  C       -2.8386676     0.8181690     0.0945471
  C        1.5703020    -1.2114420     0.5410850
  C       -2.6593290    -1.5570310    -0.3269880
  C       -3.4429950    -0.4315550    -0.0645950
  C        2.9613910    -1.1706130     0.5101660
  C        3.5885550    -0.0650650    -0.0636080
  C        2.7882770     0.9583460    -0.5692770
  H       -0.6539860    -2.2940070    -0.5598860
  H       -3.4538380     1.6721500     0.3887520
  H        1.0497850    -2.0407580     1.0110860
  H       -3.1218920    -2.5149200    -0.5495680
  H       -4.5281350    -0.5063600    -0.0566640
  H        3.5458790    -1.9798730     0.9414670
  H        0.0235730     2.3183180     0.0298570
  H       -1.4980030     2.9543290     0.3690670
  H        4.6711930     0.0129590    -0.1060480
  H        3.2359550     1.8482630    -1.0089550
units angstrom
no_reorient  #important for SAPT in psi4, default
symmetry c1  #important for SAPT in psi4, default
}

set PROPERTIES_ORIGIN ["COM"]
properties('MP2/aug-cc-pvtz', properties = ['dipole'])
--------------------------------------------------------------------------

    Molecular point group: c1
  Charge       = 0
  Multiplicity = 1
  Basis Set: AUG-CC-PVTZ
    Blend: AUG-CC-PVTZ
  Basis Set: (AUG-CC-PVTZ AUX)
    Blend: AUG-CC-PVTZ-JKFIT

    Orbital Energies [Eh]
    ---------------------

    Doubly Occupied:

       1A    -15.569021     2A    -15.550731     3A    -11.290115
       4A    -11.281512     5A    -11.281265     6A    -11.263577
       7A    -11.242898     8A    -11.242134     9A    -11.239793
      10A    -11.239193    11A    -11.234635    12A    -11.224441
      13A    -11.221403    14A     -1.262628    15A     -1.213842
      16A     -1.127721    17A     -1.089129    18A     -1.061238
      19A     -0.997456    20A     -0.980672    21A     -0.871598
      22A     -0.864584    23A     -0.816986    24A     -0.800232
      25A     -0.718657    26A     -0.690594    27A     -0.684900
      28A     -0.663421    29A     -0.653311    30A     -0.627080
      31A     -0.596653    32A     -0.592852    33A     -0.585462
      34A     -0.574186    35A     -0.550250    36A     -0.536323
      37A     -0.519348    38A     -0.501823    39A     -0.493380
      40A     -0.443478    41A     -0.421268    42A     -0.389116
      43A     -0.368703    44A     -0.319086    45A     -0.287329

  @DF-RHF Final Energy:  -531.45133790345847

   => Energetics <=

    Nuclear Repulsion Energy =            714.5407705154123050
    One-Electron Energy =               -2137.6161677757181678
    Two-Electron Energy =                 891.6240593568473969
    Total Energy =                       -531.4513379034584659
  Basis Set: (AUG-CC-PVTZ AUX)
    Blend: AUG-CC-PVTZ-RI
    Molecular point group: c1

    Geometry (in Angstrom), charge = 0, multiplicity = 1:

       Center              X                  Y                   Z               Mass
    ------------   -----------------  -----------------  -----------------  -----------------
         N            1.440517362836     0.922348293497    -0.550463761766    14.003074004430
         N           -0.868854637164     2.168042293497     0.512927238234    14.003074004430
         C           -0.647553637164    -0.208916706503    -0.045701761766    12.000000000000
         C            0.830114362836    -0.160842706503    -0.013334761766    12.000000000000
         C           -1.445652637164     0.938696293497     0.185818238234    12.000000000000
         C           -1.277134637164    -1.434189706503    -0.317724761766    12.000000000000
         C           -2.842893237164     0.813411293497     0.104095338234    12.000000000000
         C            1.566076362836    -1.216199706503     0.550633238234    12.000000000000
         C           -2.663554637164    -1.561788706503    -0.317439761766    12.000000000000
         C           -3.447220637164    -0.436312706503    -0.055046761766    12.000000000000
         C            2.957165362836    -1.175370706503     0.519714238234    12.000000000000
         C            3.584329362836    -0.069822706503    -0.054059761766    12.000000000000
         C            2.784051362836     0.953588293497    -0.559728761766    12.000000000000
         H           -0.658211637164    -2.298764706503    -0.550337761766     1.007825032230
         H           -3.458063637164     1.667392293497     0.398300238234     1.007825032230
         H            1.045559362836    -2.045515706503     1.020634238234     1.007825032230
         H           -3.126117637164    -2.519677706503    -0.540019761766     1.007825032230
         H           -4.532360637164    -0.511117706503    -0.047115761766     1.007825032230
         H            3.541653362836    -1.984630706503     0.951015238234     1.007825032230
         H            0.019347362836     2.313560293497     0.039405238234     1.007825032230
         H           -1.502228637164     2.949571293497     0.378615238234     1.007825032230
         H            4.666967362836     0.008201293497    -0.096499761766     1.007825032230
         H            3.231729362836     1.843505293497    -0.999406761766     1.007825032230

  Basis Set: AUG-CC-PVTZ
    Blend: AUG-CC-PVTZ
  Basis Set: (AUG-CC-PVTZ AUX)
    Blend: AUG-CC-PVTZ-JKFIT
	 Reference Energy          =    -531.4513379034584659 [Eh]
	 Singles Energy            =      -0.0000000000000000 [Eh]
	 Same-Spin Energy          =      -0.5965809934062664 [Eh]
	 Opposite-Spin Energy      =      -1.8210103588409263 [Eh]
	 Correlation Energy        =      -2.4175913522471926 [Eh]
	 Total Energy              =    -533.8689292557056660 [Eh]

	 ================> DF-SCS-MP2 Energies <==================
	-----------------------------------------------------------
	 SCS Same-Spin Scale       =       0.3333333333333333 [-]
	 SCS Opposite-Spin Scale   =       1.2000000000000000 [-]
	 SCS Same-Spin Energy      =      -0.1988603311354221 [Eh]
	 SCS Opposite-Spin Energy  =      -2.1852124306091114 [Eh]
	 SCS Correlation Energy    =      -2.3840727617445334 [Eh]
	 SCS Total Energy          =    -533.8354106652029714 [Eh]
	-----------------------------------------------------------

  Dipole Moment: [D]
     X:     1.5566      Y:    -0.4639      Z:     0.0726     Total:     1.6259

*** Psi4 exiting successfully. Buy a developer a beer!
