                               Psi4 1.4a2.dev612

  ==> Input File <==

--------------------------------------------------------------------------
#psi4
#
memory 32 gb

molecule  {
0 1
  N        1.4447430     0.9271060    -0.5600120
  N       -0.8646290     2.1728000     0.5033790
  C       -0.6433280    -0.2041590    -0.0552500
  C        0.8343400    -0.1560850    -0.0228830
  C       -1.4414270     0.9434540     0.1762700
  C       -1.2729090    -1.4294320    -0.3272730
  C       -2.8381000     0.7953410     0.1919050
  C        1.5703020    -1.2114420     0.5410850
  C       -2.6593290    -1.5570310    -0.3269880
  C       -3.4429950    -0.4315550    -0.0645950
  C        2.9613910    -1.1706130     0.5101660
  C        3.5885550    -0.0650650    -0.0636080
  C        2.7882770     0.9583460    -0.5692770
  H       -0.6539860    -2.2940070    -0.5598860
  H       -3.4538380     1.6721500     0.3887520
  H        1.0477337    -2.1371310     0.8358489
  H       -3.1218920    -2.5149200    -0.5495680
  H       -4.5281350    -0.5063600    -0.0566640
  H        3.5458790    -1.9798730     0.9414670
  H        0.0235730     2.3183180     0.0298570
  H       -1.4980030     2.9543290     0.3690670
  H        4.6711930     0.0129590    -0.1060480
  H        3.2359550     1.8482630    -1.0089550
units angstrom
no_reorient  #important for SAPT in psi4, default
symmetry c1  #important for SAPT in psi4, default
}

set PROPERTIES_ORIGIN ["COM"]
properties('MP2/aug-cc-pvtz', properties = ['dipole'])
--------------------------------------------------------------------------

    Molecular point group: c1
  Charge       = 0
  Multiplicity = 1
  Basis Set: AUG-CC-PVTZ
    Blend: AUG-CC-PVTZ
  Basis Set: (AUG-CC-PVTZ AUX)
    Blend: AUG-CC-PVTZ-JKFIT

    Orbital Energies [Eh]
    ---------------------

    Doubly Occupied:

       1A    -15.569047     2A    -15.551016     3A    -11.290428
       4A    -11.281828     5A    -11.280866     6A    -11.263815
       7A    -11.243651     8A    -11.242889     9A    -11.239438
      10A    -11.238134    11A    -11.234788    12A    -11.224079
      13A    -11.221471    14A     -1.262775    15A     -1.214004
      16A     -1.128028    17A     -1.089045    18A     -1.061442
      19A     -0.997806    20A     -0.980703    21A     -0.871612
      22A     -0.864406    23A     -0.816770    24A     -0.800838
      25A     -0.718825    26A     -0.689980    27A     -0.685057
      28A     -0.662943    29A     -0.653561    30A     -0.626334
      31A     -0.594081    32A     -0.593031    33A     -0.586475
      34A     -0.574724    35A     -0.550529    36A     -0.535474
      37A     -0.521252    38A     -0.500357    39A     -0.494409
      40A     -0.445296    41A     -0.420840    42A     -0.389050
      43A     -0.369303    44A     -0.318619    45A     -0.286684

  @DF-RHF Final Energy:  -531.45094990968255

   => Energetics <=

    Nuclear Repulsion Energy =            714.5941485404756577
    One-Electron Energy =               -2137.7187949712201771
    Two-Electron Energy =                 891.6736965210620838
    Total Energy =                       -531.4509499096825493
  Basis Set: (AUG-CC-PVTZ AUX)
    Blend: AUG-CC-PVTZ-RI
    Molecular point group: c1

    Geometry (in Angstrom), charge = 0, multiplicity = 1:

       Center              X                  Y                   Z               Mass
    ------------   -----------------  -----------------  -----------------  -----------------
         N            1.440489471692     0.924529934644    -0.556294316912    14.003074004430
         N           -0.868882528308     2.170223934644     0.507096683088    14.003074004430
         C           -0.647581528308    -0.206735065356    -0.051532316912    12.000000000000
         C            0.830086471692    -0.158661065356    -0.019165316912    12.000000000000
         C           -1.445680528308     0.940877934644     0.179987683088    12.000000000000
         C           -1.277162528308    -1.432008065356    -0.323555316912    12.000000000000
         C           -2.842353528308     0.792764934644     0.195622683088    12.000000000000
         C            1.566048471692    -1.214018065356     0.544802683088    12.000000000000
         C           -2.663582528308    -1.559607065356    -0.323270316912    12.000000000000
         C           -3.447248528308    -0.434131065356    -0.060877316912    12.000000000000
         C            2.957137471692    -1.173189065356     0.513883683088    12.000000000000
         C            3.584301471692    -0.067641065356    -0.059890316912    12.000000000000
         C            2.784023471692     0.955769934644    -0.565559316912    12.000000000000
         H           -0.658239528308    -2.296583065356    -0.556168316912     1.007825032230
         H           -3.458091528308     1.669573934644     0.392469683088     1.007825032230
         H            1.043480171692    -2.139707065356     0.839566583088     1.007825032230
         H           -3.126145528308    -2.517496065356    -0.545850316912     1.007825032230
         H           -4.532388528308    -0.508936065356    -0.052946316912     1.007825032230
         H            3.541625471692    -1.982449065356     0.945184683088     1.007825032230
         H            0.019319471692     2.315741934644     0.033574683088     1.007825032230
         H           -1.502256528308     2.951752934644     0.372784683088     1.007825032230
         H            4.666939471692     0.010382934644    -0.102330316912     1.007825032230
         H            3.231701471692     1.845686934644    -1.005237316912     1.007825032230

  Basis Set: AUG-CC-PVTZ
    Blend: AUG-CC-PVTZ
  Basis Set: (AUG-CC-PVTZ AUX)
    Blend: AUG-CC-PVTZ-JKFIT
	 Reference Energy          =    -531.4509499096825493 [Eh]
	 Singles Energy            =      -0.0000000000000000 [Eh]
	 Same-Spin Energy          =      -0.5966471253786236 [Eh]
	 Opposite-Spin Energy      =      -1.8210784750772557 [Eh]
	 Correlation Energy        =      -2.4177256004558796 [Eh]
	 Total Energy              =    -533.8686755101384733 [Eh]

	 ================> DF-SCS-MP2 Energies <==================
	-----------------------------------------------------------
	 SCS Same-Spin Scale       =       0.3333333333333333 [-]
	 SCS Opposite-Spin Scale   =       1.2000000000000000 [-]
	 SCS Same-Spin Energy      =      -0.1988823751262079 [Eh]
	 SCS Opposite-Spin Energy  =      -2.1852941700927069 [Eh]
	 SCS Correlation Energy    =      -2.3841765452189145 [Eh]
	 SCS Total Energy          =    -533.8351264549014559 [Eh]
	-----------------------------------------------------------

  Dipole Moment: [D]
     X:     1.5409      Y:    -0.4498      Z:    -0.0915     Total:     1.6078

*** Psi4 exiting successfully. Buy a developer a beer!
