                               Psi4 1.4a2.dev612

  ==> Input File <==

--------------------------------------------------------------------------
#psi4
#
memory 32 gb

molecule  {
0 1
  N        1.4447430     0.9271060    -0.5600120
  N       -0.8646290     2.1728000     0.5033790
  C       -0.6433280    -0.2041590    -0.0552500
  C        0.8343400    -0.1560850    -0.0228830
  C       -1.4414270     0.9434540     0.1762700
  C       -1.2729090    -1.4294320    -0.3272730
  C       -2.8381000     0.7953410     0.1919050
  C        1.5703020    -1.2114420     0.5410850
  C       -2.6593290    -1.5570310    -0.3269880
  C       -3.4429950    -0.4315550    -0.0645950
  C        2.9613910    -1.1706130     0.5101660
  C        3.5885550    -0.0650650    -0.0636080
  C        2.7882770     0.9583460    -0.5692770
  H       -0.6460146    -2.3644378    -0.2683796
  H       -3.4538380     1.6721500     0.3887520
  H        1.0497850    -2.0407580     1.0110860
  H       -3.1218920    -2.5149200    -0.5495680
  H       -4.5281350    -0.5063600    -0.0566640
  H        3.5458790    -1.9798730     0.9414670
  H        0.0235730     2.3183180     0.0298570
  H       -1.4980030     2.9543290     0.3690670
  H        4.6711930     0.0129590    -0.1060480
  H        3.2359550     1.8482630    -1.0089550
units angstrom
no_reorient  #important for SAPT in psi4, default
symmetry c1  #important for SAPT in psi4, default
}

set PROPERTIES_ORIGIN ["COM"]
properties('MP2/aug-cc-pvtz', properties = ['dipole'])
--------------------------------------------------------------------------

    Molecular point group: c1
  Charge       = 0
  Multiplicity = 1
  Basis Set: AUG-CC-PVTZ
    Blend: AUG-CC-PVTZ
  Basis Set: (AUG-CC-PVTZ AUX)
    Blend: AUG-CC-PVTZ-JKFIT

    Orbital Energies [Eh]
    ---------------------

    Doubly Occupied:

       1A    -15.568952     2A    -15.551244     3A    -11.290609
       4A    -11.281447     5A    -11.281285     6A    -11.263627
       7A    -11.242945     8A    -11.242630     9A    -11.242336
      10A    -11.238546    11A    -11.235509    12A    -11.224653
      13A    -11.221962    14A     -1.262678    15A     -1.214293
      16A     -1.128077    17A     -1.089117    18A     -1.061721
      19A     -0.997128    20A     -0.981004    21A     -0.871597
      22A     -0.864902    23A     -0.814997    24A     -0.800941
      25A     -0.718942    26A     -0.690803    27A     -0.682381
      28A     -0.664332    29A     -0.653199    30A     -0.627491
      31A     -0.594585    32A     -0.591401    33A     -0.584544
      34A     -0.573875    35A     -0.551905    36A     -0.537169
      37A     -0.518829    38A     -0.502472    39A     -0.492029
      40A     -0.444670    41A     -0.420481    42A     -0.388937
      43A     -0.369527    44A     -0.318346    45A     -0.287056

  @DF-RHF Final Energy:  -531.44730813023057

   => Energetics <=

    Nuclear Repulsion Energy =            714.5303971715020452
    One-Electron Energy =               -2137.5850639256614159
    Two-Electron Energy =                 891.6073586239288034
    Total Energy =                       -531.4473081302305673
  Basis Set: (AUG-CC-PVTZ AUX)
    Blend: AUG-CC-PVTZ-RI
    Molecular point group: c1

    Geometry (in Angstrom), charge = 0, multiplicity = 1:

       Center              X                  Y                   Z               Mass
    ------------   -----------------  -----------------  -----------------  -----------------
         N            1.440430082776     0.924376215674    -0.559059977887    14.003074004430
         N           -0.868941917224     2.170070215674     0.504331022113    14.003074004430
         C           -0.647640917224    -0.206888784326    -0.054297977887    12.000000000000
         C            0.830027082776    -0.158814784326    -0.021930977887    12.000000000000
         C           -1.445739917224     0.940724215674     0.177222022113    12.000000000000
         C           -1.277221917224    -1.432161784326    -0.326320977887    12.000000000000
         C           -2.842412917224     0.792611215674     0.192857022113    12.000000000000
         C            1.565989082776    -1.214171784326     0.542037022113    12.000000000000
         C           -2.663641917224    -1.559760784326    -0.326035977887    12.000000000000
         C           -3.447307917224    -0.434284784326    -0.063642977887    12.000000000000
         C            2.957078082776    -1.173342784326     0.511118022113    12.000000000000
         C            3.584242082776    -0.067794784326    -0.062655977887    12.000000000000
         C            2.783964082776     0.955616215674    -0.568324977887    12.000000000000
         H           -0.650327517224    -2.367167584326    -0.267427577887     1.007825032230
         H           -3.458150917224     1.669420215674     0.389704022113     1.007825032230
         H            1.045472082776    -2.043487784326     1.012038022113     1.007825032230
         H           -3.126204917224    -2.517649784326    -0.548615977887     1.007825032230
         H           -4.532447917224    -0.509089784326    -0.055711977887     1.007825032230
         H            3.541566082776    -1.982602784326     0.942419022113     1.007825032230
         H            0.019260082776     2.315588215674     0.030809022113     1.007825032230
         H           -1.502315917224     2.951599215674     0.370019022113     1.007825032230
         H            4.666880082776     0.010229215674    -0.105095977887     1.007825032230
         H            3.231642082776     1.845533215674    -1.008002977887     1.007825032230

  Basis Set: AUG-CC-PVTZ
    Blend: AUG-CC-PVTZ
  Basis Set: (AUG-CC-PVTZ AUX)
    Blend: AUG-CC-PVTZ-JKFIT
	 Reference Energy          =    -531.4473081302305673 [Eh]
	 Singles Energy            =      -0.0000000000000000 [Eh]
	 Same-Spin Energy          =      -0.5969178630758809 [Eh]
	 Opposite-Spin Energy      =      -1.8216634146465216 [Eh]
	 Correlation Energy        =      -2.4185812777224025 [Eh]
	 Total Energy              =    -533.8658894079529773 [Eh]

	 ================> DF-SCS-MP2 Energies <==================
	-----------------------------------------------------------
	 SCS Same-Spin Scale       =       0.3333333333333333 [-]
	 SCS Opposite-Spin Scale   =       1.2000000000000000 [-]
	 SCS Same-Spin Energy      =      -0.1989726210252936 [Eh]
	 SCS Opposite-Spin Energy  =      -2.1859960975758259 [Eh]
	 SCS Correlation Energy    =      -2.3849687186011197 [Eh]
	 SCS Total Energy          =    -533.8322768488317251 [Eh]
	-----------------------------------------------------------

  Dipole Moment: [D]
     X:     1.4920      Y:    -0.3982      Z:     0.1875     Total:     1.5556

*** Psi4 exiting successfully. Buy a developer a beer!
