                               Psi4 1.4a2.dev612

  ==> Input File <==

--------------------------------------------------------------------------
#psi4
#
memory 32 gb

molecule  {
0 1
  N        1.4447430     0.9271060    -0.5600120
  N       -0.8646290     2.1728000     0.5033790
  C       -0.6433280    -0.2041590    -0.0552500
  C        0.8343400    -0.1560850    -0.0228830
  C       -1.4414270     0.9434540     0.1762700
  C       -1.2729090    -1.4294320    -0.3272730
  C       -2.8381000     0.7953410     0.1919050
  C        1.5622828    -1.0974316     0.7634301
  C       -2.6593290    -1.5570310    -0.3269880
  C       -3.4429950    -0.4315550    -0.0645950
  C        2.9613910    -1.1706130     0.5101660
  C        3.5885550    -0.0650650    -0.0636080
  C        2.7882770     0.9583460    -0.5692770
  H       -0.6539860    -2.2940070    -0.5598860
  H       -3.4538380     1.6721500     0.3887520
  H        1.0497850    -2.0407580     1.0110860
  H       -3.1218920    -2.5149200    -0.5495680
  H       -4.5281350    -0.5063600    -0.0566640
  H        3.5458790    -1.9798730     0.9414670
  H        0.0235730     2.3183180     0.0298570
  H       -1.4980030     2.9543290     0.3690670
  H        4.6711930     0.0129590    -0.1060480
  H        3.2359550     1.8482630    -1.0089550
units angstrom
no_reorient  #important for SAPT in psi4, default
symmetry c1  #important for SAPT in psi4, default
}

set PROPERTIES_ORIGIN ["COM"]
properties('MP2/aug-cc-pvtz', properties = ['dipole'])
--------------------------------------------------------------------------

    Molecular point group: c1
  Charge       = 0
  Multiplicity = 1
  Basis Set: AUG-CC-PVTZ
    Blend: AUG-CC-PVTZ
  Basis Set: (AUG-CC-PVTZ AUX)
    Blend: AUG-CC-PVTZ-JKFIT

    Orbital Energies [Eh]
    ---------------------

    Doubly Occupied:

       1A    -15.568477     2A    -15.551485     3A    -11.294557
       4A    -11.284501     5A    -11.281464     6A    -11.269020
       7A    -11.246904     8A    -11.242373     9A    -11.239939
      10A    -11.238581    11A    -11.234781    12A    -11.224304
      13A    -11.221513    14A     -1.262319    15A     -1.214309
      16A     -1.128110    17A     -1.085158    18A     -1.060128
      19A     -0.997630    20A     -0.980402    21A     -0.870346
      22A     -0.862157    23A     -0.816994    24A     -0.800247
      25A     -0.717684    26A     -0.690028    27A     -0.684938
      28A     -0.659470    29A     -0.651927    30A     -0.625649
      31A     -0.593829    32A     -0.593514    33A     -0.585247
      34A     -0.573607    35A     -0.546684    36A     -0.533743
      37A     -0.521939    38A     -0.499573    39A     -0.493616
      40A     -0.445654    41A     -0.421391    42A     -0.384522
      43A     -0.364634    44A     -0.321007    45A     -0.288339

  @DF-RHF Final Energy:  -531.43443399895307

   => Energetics <=

    Nuclear Repulsion Energy =            713.8212246173384301
    One-Electron Energy =               -2136.1659278219535736
    Two-Electron Energy =                 890.9102692056620754
    Total Energy =                       -531.4344339989530681
  Basis Set: (AUG-CC-PVTZ AUX)
    Blend: AUG-CC-PVTZ-RI
    Molecular point group: c1

    Geometry (in Angstrom), charge = 0, multiplicity = 1:

       Center              X                  Y                   Z               Mass
    ------------   -----------------  -----------------  -----------------  -----------------
         N            1.441043097124     0.915915082628    -0.573019834149    14.003074004430
         N           -0.868328902876     2.161609082628     0.490371165851    14.003074004430
         C           -0.647027902876    -0.215349917372    -0.068257834149    12.000000000000
         C            0.830640097124    -0.167275917372    -0.035890834149    12.000000000000
         C           -1.445126902876     0.932263082628     0.163262165851    12.000000000000
         C           -1.276608902876    -1.440622917372    -0.340280834149    12.000000000000
         C           -2.841799902876     0.784150082628     0.178897165851    12.000000000000
         C            1.558582897124    -1.108622517372     0.750422265851    12.000000000000
         C           -2.663028902876    -1.568221917372    -0.339995834149    12.000000000000
         C           -3.446694902876    -0.442745917372    -0.077602834149    12.000000000000
         C            2.957691097124    -1.181803917372     0.497158165851    12.000000000000
         C            3.584855097124    -0.076255917372    -0.076615834149    12.000000000000
         C            2.784577097124     0.947155082628    -0.582284834149    12.000000000000
         H           -0.657685902876    -2.305197917372    -0.572893834149     1.007825032230
         H           -3.457537902876     1.660959082628     0.375744165851     1.007825032230
         H            1.046085097124    -2.051948917372     0.998078165851     1.007825032230
         H           -3.125591902876    -2.526110917372    -0.562575834149     1.007825032230
         H           -4.531834902876    -0.517550917372    -0.069671834149     1.007825032230
         H            3.542179097124    -1.991063917372     0.928459165851     1.007825032230
         H            0.019873097124     2.307127082628     0.016849165851     1.007825032230
         H           -1.501702902876     2.943138082628     0.356059165851     1.007825032230
         H            4.667493097124     0.001768082628    -0.119055834149     1.007825032230
         H            3.232255097124     1.837072082628    -1.021962834149     1.007825032230

  Basis Set: AUG-CC-PVTZ
    Blend: AUG-CC-PVTZ
  Basis Set: (AUG-CC-PVTZ AUX)
    Blend: AUG-CC-PVTZ-JKFIT
	 Reference Energy          =    -531.4344339989530681 [Eh]
	 Singles Energy            =      -0.0000000000000000 [Eh]
	 Same-Spin Energy          =      -0.5970448033899003 [Eh]
	 Opposite-Spin Energy      =      -1.8228789462845363 [Eh]
	 Correlation Energy        =      -2.4199237496744366 [Eh]
	 Total Energy              =    -533.8543577486275353 [Eh]

	 ================> DF-SCS-MP2 Energies <==================
	-----------------------------------------------------------
	 SCS Same-Spin Scale       =       0.3333333333333333 [-]
	 SCS Opposite-Spin Scale   =       1.2000000000000000 [-]
	 SCS Same-Spin Energy      =      -0.1990149344633001 [Eh]
	 SCS Opposite-Spin Energy  =      -2.1874547355414435 [Eh]
	 SCS Correlation Energy    =      -2.3864696700047436 [Eh]
	 SCS Total Energy          =    -533.8209036689578397 [Eh]
	-----------------------------------------------------------

  Dipole Moment: [D]
     X:     1.5169      Y:    -0.3711      Z:    -0.0905     Total:     1.5643

*** Psi4 exiting successfully. Buy a developer a beer!
