                               Psi4 1.4a2.dev612

  ==> Input File <==

--------------------------------------------------------------------------
#psi4
#
memory 32 gb

molecule  {
0 1
  N        1.4447430     0.9271060    -0.5600120
  N       -0.8646290     2.1728000     0.5033790
  C       -0.6433280    -0.2041590    -0.0552500
  C        0.8343400    -0.1560850    -0.0228830
  C       -1.4414270     0.9434540     0.1762700
  C       -1.2729090    -1.4294320    -0.3272730
  C       -2.8381000     0.7953410     0.1919050
  C        1.5703020    -1.2114420     0.5410850
  C       -2.6593290    -1.5570310    -0.3269880
  C       -3.4429950    -0.4315550    -0.0645950
  C        2.9613910    -1.1706130     0.5101660
  C        3.5885550    -0.0650650    -0.0636080
  C        2.7882770     0.9583460    -0.5692770
  H       -0.6539860    -2.2940070    -0.5598860
  H       -3.4538380     1.6721500     0.3887520
  H        1.0467081    -2.1853175     0.7482304
  H       -3.1218920    -2.5149200    -0.5495680
  H       -4.5281350    -0.5063600    -0.0566640
  H        3.5458790    -1.9798730     0.9414670
  H        0.0235730     2.3183180     0.0298570
  H       -1.4980030     2.9543290     0.3690670
  H        4.6711930     0.0129590    -0.1060480
  H        3.2359550     1.8482630    -1.0089550
units angstrom
no_reorient  #important for SAPT in psi4, default
symmetry c1  #important for SAPT in psi4, default
}

set PROPERTIES_ORIGIN ["COM"]
properties('MP2/aug-cc-pvtz', properties = ['dipole'])
--------------------------------------------------------------------------

    Molecular point group: c1
  Charge       = 0
  Multiplicity = 1
  Basis Set: AUG-CC-PVTZ
    Blend: AUG-CC-PVTZ
  Basis Set: (AUG-CC-PVTZ AUX)
    Blend: AUG-CC-PVTZ-JKFIT

    Orbital Energies [Eh]
    ---------------------

    Doubly Occupied:

       1A    -15.569250     2A    -15.551036     3A    -11.290840
       4A    -11.282306     5A    -11.280886     6A    -11.264170
       7A    -11.245513     8A    -11.243058     9A    -11.239551
      10A    -11.238120    11A    -11.234875    12A    -11.224117
      13A    -11.221545    14A     -1.263035    15A     -1.214048
      16A     -1.128068    17A     -1.089036    18A     -1.061384
      19A     -0.997765    20A     -0.980687    21A     -0.871508
      22A     -0.864046    23A     -0.816575    24A     -0.800934
      25A     -0.718647    26A     -0.689491    27A     -0.685110
      28A     -0.662120    29A     -0.653372    30A     -0.625216
      31A     -0.593474    32A     -0.592641    33A     -0.586556
      34A     -0.575010    35A     -0.550786    36A     -0.533876
      37A     -0.521666    38A     -0.499524    39A     -0.494703
      40A     -0.445312    41A     -0.420908    42A     -0.389013
      43A     -0.369400    44A     -0.318332    45A     -0.286728

  @DF-RHF Final Energy:  -531.44732872914767

   => Energetics <=

    Nuclear Repulsion Energy =            714.5187536930382066
    One-Electron Energy =               -2137.5636921085883841
    Two-Electron Energy =                 891.5976096864025067
    Total Energy =                       -531.4473287291476709
  Basis Set: (AUG-CC-PVTZ AUX)
    Blend: AUG-CC-PVTZ-RI
    Molecular point group: c1

    Geometry (in Angstrom), charge = 0, multiplicity = 1:

       Center              X                  Y                   Z               Mass
    ------------   -----------------  -----------------  -----------------  -----------------
         N            1.440495548824     0.924815460896    -0.555775138678    14.003074004430
         N           -0.868876451176     2.170509460896     0.507615861322    14.003074004430
         C           -0.647575451176    -0.206449539104    -0.051013138678    12.000000000000
         C            0.830092548824    -0.158375539104    -0.018646138678    12.000000000000
         C           -1.445674451176     0.941163460896     0.180506861322    12.000000000000
         C           -1.277156451176    -1.431722539104    -0.323036138678    12.000000000000
         C           -2.842347451176     0.793050460896     0.196141861322    12.000000000000
         C            1.566054548824    -1.213732539104     0.545321861322    12.000000000000
         C           -2.663576451176    -1.559321539104    -0.322751138678    12.000000000000
         C           -3.447242451176    -0.433845539104    -0.060358138678    12.000000000000
         C            2.957143548824    -1.172903539104     0.514402861322    12.000000000000
         C            3.584307548824    -0.067355539104    -0.059371138678    12.000000000000
         C            2.784029548824     0.956055460896    -0.565040138678    12.000000000000
         H           -0.658233451176    -2.296297539104    -0.555649138678     1.007825032230
         H           -3.458085451176     1.669859460896     0.392988861322     1.007825032230
         H            1.042460648824    -2.187608039104     0.752467261322     1.007825032230
         H           -3.126139451176    -2.517210539104    -0.545331138678     1.007825032230
         H           -4.532382451176    -0.508650539104    -0.052427138678     1.007825032230
         H            3.541631548824    -1.982163539104     0.945703861322     1.007825032230
         H            0.019325548824     2.316027460896     0.034093861322     1.007825032230
         H           -1.502250451176     2.952038460896     0.373303861322     1.007825032230
         H            4.666945548824     0.010668460896    -0.101811138678     1.007825032230
         H            3.231707548824     1.845972460896    -1.004718138678     1.007825032230

  Basis Set: AUG-CC-PVTZ
    Blend: AUG-CC-PVTZ
  Basis Set: (AUG-CC-PVTZ AUX)
    Blend: AUG-CC-PVTZ-JKFIT
	 Reference Energy          =    -531.4473287291476709 [Eh]
	 Singles Energy            =      -0.0000000000000000 [Eh]
	 Same-Spin Energy          =      -0.5968123513649956 [Eh]
	 Opposite-Spin Energy      =      -1.8214685090005209 [Eh]
	 Correlation Energy        =      -2.4182808603655164 [Eh]
	 Total Energy              =    -533.8656095895131557 [Eh]

	 ================> DF-SCS-MP2 Energies <==================
	-----------------------------------------------------------
	 SCS Same-Spin Scale       =       0.3333333333333333 [-]
	 SCS Opposite-Spin Scale   =       1.2000000000000000 [-]
	 SCS Same-Spin Energy      =      -0.1989374504549985 [Eh]
	 SCS Opposite-Spin Energy  =      -2.1857622108006249 [Eh]
	 SCS Correlation Energy    =      -2.3846996612556235 [Eh]
	 SCS Total Energy          =    -533.8320283904032522 [Eh]
	-----------------------------------------------------------

  Dipole Moment: [D]
     X:     1.5537      Y:    -0.4496      Z:    -0.1503     Total:     1.6244

*** Psi4 exiting successfully. Buy a developer a beer!
