                               Psi4 1.4a2.dev612

  ==> Input File <==

--------------------------------------------------------------------------
#psi4
#
memory 32 gb

molecule  {
0 1
  N        1.4447430     0.9271060    -0.5600120
  N       -0.8646290     2.1728000     0.5033790
  C       -0.6433280    -0.2041590    -0.0552500
  C        0.8343400    -0.1560850    -0.0228830
  C       -1.4414270     0.9434540     0.1762700
  C       -1.2729090    -1.4294320    -0.3272730
  C       -2.8381000     0.7953410     0.1919050
  C        1.5638867    -1.1202337     0.7189611
  C       -2.6593290    -1.5570310    -0.3269880
  C       -3.4429950    -0.4315550    -0.0645950
  C        2.9613910    -1.1706130     0.5101660
  C        3.5885550    -0.0650650    -0.0636080
  C        2.7882770     0.9583460    -0.5692770
  H       -0.6539860    -2.2940070    -0.5598860
  H       -3.4538380     1.6721500     0.3887520
  H        1.0497850    -2.0407580     1.0110860
  H       -3.1218920    -2.5149200    -0.5495680
  H       -4.5281350    -0.5063600    -0.0566640
  H        3.5458790    -1.9798730     0.9414670
  H        0.0235730     2.3183180     0.0298570
  H       -1.4980030     2.9543290     0.3690670
  H        4.6711930     0.0129590    -0.1060480
  H        3.2359550     1.8482630    -1.0089550
units angstrom
no_reorient  #important for SAPT in psi4, default
symmetry c1  #important for SAPT in psi4, default
}

set PROPERTIES_ORIGIN ["COM"]
properties('MP2/aug-cc-pvtz', properties = ['dipole'])
--------------------------------------------------------------------------

    Molecular point group: c1
  Charge       = 0
  Multiplicity = 1
  Basis Set: AUG-CC-PVTZ
    Blend: AUG-CC-PVTZ
  Basis Set: (AUG-CC-PVTZ AUX)
    Blend: AUG-CC-PVTZ-JKFIT

    Orbital Energies [Eh]
    ---------------------

    Doubly Occupied:

       1A    -15.568642     2A    -15.551325     3A    -11.292865
       4A    -11.283390     5A    -11.281230     6A    -11.267252
       7A    -11.245291     8A    -11.242565     9A    -11.239704
      10A    -11.238405    11A    -11.234674    12A    -11.224183
      13A    -11.221419    14A     -1.262363    15A     -1.214173
      16A     -1.128013    17A     -1.086296    18A     -1.060596
      19A     -0.997750    20A     -0.980488    21A     -0.870732
      22A     -0.862952    23A     -0.816985    24A     -0.800447
      25A     -0.718003    26A     -0.690240    27A     -0.684916
      28A     -0.660853    29A     -0.652671    30A     -0.626420
      31A     -0.594246    32A     -0.593480    33A     -0.585545
      34A     -0.573858    35A     -0.547662    36A     -0.535014
      37A     -0.521651    38A     -0.500082    39A     -0.493675
      40A     -0.445541    41A     -0.421378    42A     -0.385666
      43A     -0.365652    44A     -0.320558    45A     -0.287913

  @DF-RHF Final Energy:  -531.44130540076640

   => Energetics <=

    Nuclear Repulsion Energy =            714.0964315439725851
    One-Electron Energy =               -2136.7219427016379996
    Two-Electron Energy =                 891.1842057568990185
    Total Energy =                       -531.4413054007663959
  Basis Set: (AUG-CC-PVTZ AUX)
    Blend: AUG-CC-PVTZ-RI
    Molecular point group: c1

    Geometry (in Angstrom), charge = 0, multiplicity = 1:

       Center              X                  Y                   Z               Mass
    ------------   -----------------  -----------------  -----------------  -----------------
         N            1.440929936833     0.917523843941    -0.569882403525    14.003074004430
         N           -0.868442063167     2.163217843941     0.493508596475    14.003074004430
         C           -0.647141063167    -0.213741156059    -0.065120403525    12.000000000000
         C            0.830526936833    -0.165667156059    -0.032753403525    12.000000000000
         C           -1.445240063167     0.933871843941     0.166399596475    12.000000000000
         C           -1.276722063167    -1.439014156059    -0.337143403525    12.000000000000
         C           -2.841913063167     0.785758843941     0.182034596475    12.000000000000
         C            1.560073636833    -1.129815856059     0.709090696475    12.000000000000
         C           -2.663142063167    -1.566613156059    -0.336858403525    12.000000000000
         C           -3.446808063167    -0.441137156059    -0.074465403525    12.000000000000
         C            2.957577936833    -1.180195156059     0.500295596475    12.000000000000
         C            3.584741936833    -0.074647156059    -0.073478403525    12.000000000000
         C            2.784463936833     0.948763843941    -0.579147403525    12.000000000000
         H           -0.657799063167    -2.303589156059    -0.569756403525     1.007825032230
         H           -3.457651063167     1.662567843941     0.378881596475     1.007825032230
         H            1.045971936833    -2.050340156059     1.001215596475     1.007825032230
         H           -3.125705063167    -2.524502156059    -0.559438403525     1.007825032230
         H           -4.531948063167    -0.515942156059    -0.066534403525     1.007825032230
         H            3.542065936833    -1.989455156059     0.931596596475     1.007825032230
         H            0.019759936833     2.308735843941     0.019986596475     1.007825032230
         H           -1.501816063167     2.944746843941     0.359196596475     1.007825032230
         H            4.667379936833     0.003376843941    -0.115918403525     1.007825032230
         H            3.232141936833     1.838680843941    -1.018825403525     1.007825032230

  Basis Set: AUG-CC-PVTZ
    Blend: AUG-CC-PVTZ
  Basis Set: (AUG-CC-PVTZ AUX)
    Blend: AUG-CC-PVTZ-JKFIT
	 Reference Energy          =    -531.4413054007663959 [Eh]
	 Singles Energy            =      -0.0000000000000000 [Eh]
	 Same-Spin Energy          =      -0.5968398558534020 [Eh]
	 Opposite-Spin Energy      =      -1.8220611321567419 [Eh]
	 Correlation Energy        =      -2.4189009880101437 [Eh]
	 Total Energy              =    -533.8602063887765325 [Eh]

	 ================> DF-SCS-MP2 Energies <==================
	-----------------------------------------------------------
	 SCS Same-Spin Scale       =       0.3333333333333333 [-]
	 SCS Opposite-Spin Scale   =       1.2000000000000000 [-]
	 SCS Same-Spin Energy      =      -0.1989466186178007 [Eh]
	 SCS Opposite-Spin Energy  =      -2.1864733585880902 [Eh]
	 SCS Correlation Energy    =      -2.3854199772058911 [Eh]
	 SCS Total Energy          =    -533.8267253779722523 [Eh]
	-----------------------------------------------------------

  Dipole Moment: [D]
     X:     1.5207      Y:    -0.3949      Z:    -0.0605     Total:     1.5723

*** Psi4 exiting successfully. Buy a developer a beer!
