                               Psi4 1.4a2.dev612

  ==> Input File <==

--------------------------------------------------------------------------
#psi4
#
memory 32 gb

molecule  {
0 1
  N        1.4447430     0.9271060    -0.5600120
  N       -0.8646290     2.1728000     0.5033790
  C       -0.6433280    -0.2041590    -0.0552500
  C        0.8343400    -0.1560850    -0.0228830
  C       -1.4414270     0.9434540     0.1762700
  C       -1.2729090    -1.4294320    -0.3272730
  C       -2.8381000     0.7953410     0.1919050
  C        1.5703020    -1.2114420     0.5410850
  C       -2.6593290    -1.5570310    -0.3269880
  C       -3.4429950    -0.4315550    -0.0645950
  C        2.9613910    -1.1706130     0.5101660
  C        3.5885550    -0.0650650    -0.0636080
  C        2.7882770     0.9583460    -0.5692770
  H       -0.6539860    -2.2940070    -0.5598860
  H       -3.4538380     1.6721500     0.3887520
  H        1.0497850    -2.0407580     1.0110860
  H       -3.1218920    -2.5149200    -0.5495680
  H       -4.5281350    -0.5063600    -0.0566640
  H        3.5458790    -1.9798730     0.9414670
  H        0.0235730     2.3183180     0.0298570
  H       -1.4980030     2.9543290     0.3690670
  H        4.6711930     0.0129590    -0.1060480
  H        3.2353891     1.9367721    -0.8296067
units angstrom
no_reorient  #important for SAPT in psi4, default
symmetry c1  #important for SAPT in psi4, default
}

set PROPERTIES_ORIGIN ["COM"]
properties('MP2/aug-cc-pvtz', properties = ['dipole'])
--------------------------------------------------------------------------

    Molecular point group: c1
  Charge       = 0
  Multiplicity = 1
  Basis Set: AUG-CC-PVTZ
    Blend: AUG-CC-PVTZ
  Basis Set: (AUG-CC-PVTZ AUX)
    Blend: AUG-CC-PVTZ-JKFIT

    Orbital Energies [Eh]
    ---------------------

    Doubly Occupied:

       1A    -15.569057     2A    -15.551084     3A    -11.290262
       4A    -11.283170     5A    -11.280982     6A    -11.263679
       7A    -11.243130     8A    -11.242283     9A    -11.239268
      10A    -11.238282    11A    -11.234627    12A    -11.224029
      13A    -11.221284    14A     -1.262657    15A     -1.214052
      16A     -1.127986    17A     -1.089236    18A     -1.061272
      19A     -0.997747    20A     -0.980676    21A     -0.871631
      22A     -0.863748    23A     -0.816742    24A     -0.800638
      25A     -0.717900    26A     -0.690714    27A     -0.684865
      28A     -0.663007    29A     -0.653560    30A     -0.626066
      31A     -0.594794    32A     -0.592569    33A     -0.586166
      34A     -0.573759    35A     -0.552925    36A     -0.536187
      37A     -0.517206    38A     -0.502647    39A     -0.493405
      40A     -0.445357    41A     -0.421116    42A     -0.389220
      43A     -0.367654    44A     -0.319263    45A     -0.286930

  @DF-RHF Final Energy:  -531.45070266743744

   => Energetics <=

    Nuclear Repulsion Energy =            714.5858984993051308
    One-Electron Energy =               -2137.7075374244500381
    Two-Electron Energy =                 891.6709362577074671
    Total Energy =                       -531.4507026674374401
  Basis Set: (AUG-CC-PVTZ AUX)
    Blend: AUG-CC-PVTZ-RI
    Molecular point group: c1

    Geometry (in Angstrom), charge = 0, multiplicity = 1:

       Center              X                  Y                   Z               Mass
    ------------   -----------------  -----------------  -----------------  -----------------
         N            1.440480670042     0.923434426706    -0.558395391706    14.003074004430
         N           -0.868891329958     2.169128426706     0.504995608294    14.003074004430
         C           -0.647590329958    -0.207830573294    -0.053633391706    12.000000000000
         C            0.830077670042    -0.159756573294    -0.021266391706    12.000000000000
         C           -1.445689329958     0.939782426706     0.177886608294    12.000000000000
         C           -1.277171329958    -1.433103573294    -0.325656391706    12.000000000000
         C           -2.842362329958     0.791669426706     0.193521608294    12.000000000000
         C            1.566039670042    -1.215113573294     0.542701608294    12.000000000000
         C           -2.663591329958    -1.560702573294    -0.325371391706    12.000000000000
         C           -3.447257329958    -0.435226573294    -0.062978391706    12.000000000000
         C            2.957128670042    -1.174284573294     0.511782608294    12.000000000000
         C            3.584292670042    -0.068736573294    -0.061991391706    12.000000000000
         C            2.784014670042     0.954674426706    -0.567660391706    12.000000000000
         H           -0.658248329958    -2.297678573294    -0.558269391706     1.007825032230
         H           -3.458100329958     1.668478426706     0.390368608294     1.007825032230
         H            1.045522670042    -2.044429573294     1.012702608294     1.007825032230
         H           -3.126154329958    -2.518591573294    -0.547951391706     1.007825032230
         H           -4.532397329958    -0.510031573294    -0.055047391706     1.007825032230
         H            3.541616670042    -1.983544573294     0.943083608294     1.007825032230
         H            0.019310670042     2.314646426706     0.031473608294     1.007825032230
         H           -1.502265329958     2.950657426706     0.370683608294     1.007825032230
         H            4.666930670042     0.009287426706    -0.104431391706     1.007825032230
         H            3.231126770042     1.933100526706    -0.827990091706     1.007825032230

  Basis Set: AUG-CC-PVTZ
    Blend: AUG-CC-PVTZ
  Basis Set: (AUG-CC-PVTZ AUX)
    Blend: AUG-CC-PVTZ-JKFIT
	 Reference Energy          =    -531.4507026674374401 [Eh]
	 Singles Energy            =      -0.0000000000000000 [Eh]
	 Same-Spin Energy          =      -0.5966935695764830 [Eh]
	 Opposite-Spin Energy      =      -1.8211540053618060 [Eh]
	 Correlation Energy        =      -2.4178475749382891 [Eh]
	 Total Energy              =    -533.8685502423757043 [Eh]

	 ================> DF-SCS-MP2 Energies <==================
	-----------------------------------------------------------
	 SCS Same-Spin Scale       =       0.3333333333333333 [-]
	 SCS Opposite-Spin Scale   =       1.2000000000000000 [-]
	 SCS Same-Spin Energy      =      -0.1988978565254943 [Eh]
	 SCS Opposite-Spin Energy  =      -2.1853848064341670 [Eh]
	 SCS Correlation Energy    =      -2.3842826629596612 [Eh]
	 SCS Total Energy          =    -533.8349853303971031 [Eh]
	-----------------------------------------------------------

  Dipole Moment: [D]
     X:     1.5054      Y:    -0.4010      Z:     0.1183     Total:     1.5624

*** Psi4 exiting successfully. Buy a developer a beer!
