                               Psi4 1.4a2.dev612

  ==> Input File <==

--------------------------------------------------------------------------
#psi4
#
memory 32 gb

molecule  {
0 1
  N        1.4447430     0.9271060    -0.5600120
  N       -0.8646290     2.1728000     0.5033790
  C       -0.6433280    -0.2041590    -0.0552500
  C        0.8343400    -0.1560850    -0.0228830
  C       -1.4414270     0.9434540     0.1762700
  C       -1.2729090    -1.4294320    -0.3272730
  C       -2.8381000     0.7953410     0.1919050
  C        1.5703020    -1.2114420     0.5410850
  C       -2.6593290    -1.5570310    -0.3269880
  C       -3.4429950    -0.4315550    -0.0645950
  C        2.9613910    -1.1706130     0.5101660
  C        3.5885550    -0.0650650    -0.0636080
  C        2.7882770     0.9583460    -0.5692770
  H       -0.6500003    -2.3292224    -0.4141328
  H       -3.4538380     1.6721500     0.3887520
  H        1.0497850    -2.0407580     1.0110860
  H       -3.1218920    -2.5149200    -0.5495680
  H       -4.5281350    -0.5063600    -0.0566640
  H        3.5458790    -1.9798730     0.9414670
  H        0.0235730     2.3183180     0.0298570
  H       -1.4980030     2.9543290     0.3690670
  H        4.6711930     0.0129590    -0.1060480
  H        3.2359550     1.8482630    -1.0089550
units angstrom
no_reorient  #important for SAPT in psi4, default
symmetry c1  #important for SAPT in psi4, default
}

set PROPERTIES_ORIGIN ["COM"]
properties('MP2/aug-cc-pvtz', properties = ['dipole'])
--------------------------------------------------------------------------

    Molecular point group: c1
  Charge       = 0
  Multiplicity = 1
  Basis Set: AUG-CC-PVTZ
    Blend: AUG-CC-PVTZ
  Basis Set: (AUG-CC-PVTZ AUX)
    Blend: AUG-CC-PVTZ-JKFIT

    Orbital Energies [Eh]
    ---------------------

    Doubly Occupied:

       1A    -15.568888     2A    -15.551113     3A    -11.290370
       4A    -11.281458     5A    -11.281026     6A    -11.263607
       7A    -11.242672     8A    -11.242196     9A    -11.240210
      10A    -11.238300    11A    -11.234868    12A    -11.224102
      13A    -11.221396    14A     -1.262611    15A     -1.214090
      16A     -1.127995    17A     -1.089088    18A     -1.061551
      19A     -0.997635    20A     -0.980780    21A     -0.871680
      22A     -0.864751    23A     -0.816448    24A     -0.800777
      25A     -0.718967    26A     -0.690700    27A     -0.684307
      28A     -0.663929    29A     -0.653307    30A     -0.627321
      31A     -0.594837    32A     -0.592114    33A     -0.586263
      34A     -0.574186    35A     -0.551344    36A     -0.536972
      37A     -0.519316    38A     -0.502175    39A     -0.493314
      40A     -0.445261    41A     -0.420729    42A     -0.389001
      43A     -0.369145    44A     -0.318808    45A     -0.286802

  @DF-RHF Final Energy:  -531.45215666913600

   => Energetics <=

    Nuclear Repulsion Energy =            714.6251978433257364
    One-Electron Energy =               -2137.7818842087372104
    Two-Electron Energy =                 891.7045296962755856
    Total Energy =                       -531.4521566691360022
  Basis Set: (AUG-CC-PVTZ AUX)
    Blend: AUG-CC-PVTZ-RI
    Molecular point group: c1

    Geometry (in Angstrom), charge = 0, multiplicity = 1:

       Center              X                  Y                   Z               Mass
    ------------   -----------------  -----------------  -----------------  -----------------
         N            1.440453699806     0.924167548906    -0.558196325930    14.003074004430
         N           -0.868918300194     2.169861548906     0.505194674070    14.003074004430
         C           -0.647617300194    -0.207097451094    -0.053434325930    12.000000000000
         C            0.830050699806    -0.159023451094    -0.021067325930    12.000000000000
         C           -1.445716300194     0.940515548906     0.178085674070    12.000000000000
         C           -1.277198300194    -1.432370451094    -0.325457325930    12.000000000000
         C           -2.842389300194     0.792402548906     0.193720674070    12.000000000000
         C            1.566012699806    -1.214380451094     0.542900674070    12.000000000000
         C           -2.663618300194    -1.559969451094    -0.325172325930    12.000000000000
         C           -3.447284300194    -0.434493451094    -0.062779325930    12.000000000000
         C            2.957101699806    -1.173551451094     0.511981674070    12.000000000000
         C            3.584265699806    -0.068003451094    -0.061792325930    12.000000000000
         C            2.783987699806     0.955407548906    -0.567461325930    12.000000000000
         H           -0.654289600194    -2.332160851094    -0.412317125930     1.007825032230
         H           -3.458127300194     1.669211548906     0.390567674070     1.007825032230
         H            1.045495699806    -2.043696451094     1.012901674070     1.007825032230
         H           -3.126181300194    -2.517858451094    -0.547752325930     1.007825032230
         H           -4.532424300194    -0.509298451094    -0.054848325930     1.007825032230
         H            3.541589699806    -1.982811451094     0.943282674070     1.007825032230
         H            0.019283699806     2.315379548906     0.031672674070     1.007825032230
         H           -1.502292300194     2.951390548906     0.370882674070     1.007825032230
         H            4.666903699806     0.010020548906    -0.104232325930     1.007825032230
         H            3.231665699806     1.845324548906    -1.007139325930     1.007825032230

  Basis Set: AUG-CC-PVTZ
    Blend: AUG-CC-PVTZ
  Basis Set: (AUG-CC-PVTZ AUX)
    Blend: AUG-CC-PVTZ-JKFIT
	 Reference Energy          =    -531.4521566691360022 [Eh]
	 Singles Energy            =      -0.0000000000000000 [Eh]
	 Same-Spin Energy          =      -0.5965997073293694 [Eh]
	 Opposite-Spin Energy      =      -1.8209713817823259 [Eh]
	 Correlation Energy        =      -2.4175710891116955 [Eh]
	 Total Energy              =    -533.8697277582476772 [Eh]

	 ================> DF-SCS-MP2 Energies <==================
	-----------------------------------------------------------
	 SCS Same-Spin Scale       =       0.3333333333333333 [-]
	 SCS Opposite-Spin Scale   =       1.2000000000000000 [-]
	 SCS Same-Spin Energy      =      -0.1988665691097898 [Eh]
	 SCS Opposite-Spin Energy  =      -2.1851656581387910 [Eh]
	 SCS Correlation Energy    =      -2.3840322272485808 [Eh]
	 SCS Total Energy          =    -533.8361888963845558 [Eh]
	-----------------------------------------------------------

  Dipole Moment: [D]
     X:     1.5199      Y:    -0.4234      Z:     0.0993     Total:     1.5809

*** Psi4 exiting successfully. Buy a developer a beer!
