                               Psi4 1.4a2.dev612

  ==> Input File <==

--------------------------------------------------------------------------
#psi4
#
memory 32 gb

molecule  {
0 1
  N        1.4447430     0.9271060    -0.5600120
  N       -0.8646290     2.1728000     0.5033790
  C       -0.6433280    -0.2041590    -0.0552500
  C        0.8343400    -0.1560850    -0.0228830
  C       -1.4414270     0.9434540     0.1762700
  C       -1.2729090    -1.4294320    -0.3272730
  C       -2.8381000     0.7953410     0.1919050
  C        1.5703020    -1.2114420     0.5410850
  C       -2.6593290    -1.5570310    -0.3269880
  C       -3.4429950    -0.4315550    -0.0645950
  C        2.9613910    -1.1706130     0.5101660
  C        3.5885550    -0.0650650    -0.0636080
  C        2.7882770     0.9583460    -0.5692770
  H       -0.6539860    -2.2940070    -0.5598860
  H       -3.4538380     1.6721500     0.3887520
  H        1.0497850    -2.0407580     1.0110860
  H       -3.1218920    -2.5149200    -0.5495680
  H       -4.5281350    -0.5063600    -0.0566640
  H        3.5458131    -2.0031099     0.8971946
  H        0.0235730     2.3183180     0.0298570
  H       -1.4980030     2.9543290     0.3690670
  H        4.6711930     0.0129590    -0.1060480
  H        3.2359550     1.8482630    -1.0089550
units angstrom
no_reorient  #important for SAPT in psi4, default
symmetry c1  #important for SAPT in psi4, default
}

set PROPERTIES_ORIGIN ["COM"]
properties('MP2/aug-cc-pvtz', properties = ['dipole'])
--------------------------------------------------------------------------

    Molecular point group: c1
  Charge       = 0
  Multiplicity = 1
  Basis Set: AUG-CC-PVTZ
    Blend: AUG-CC-PVTZ
  Basis Set: (AUG-CC-PVTZ AUX)
    Blend: AUG-CC-PVTZ-JKFIT

    Orbital Energies [Eh]
    ---------------------

    Doubly Occupied:

       1A    -15.568860     2A    -15.551057     3A    -11.290072
       4A    -11.281420     5A    -11.280905     6A    -11.263598
       7A    -11.242706     8A    -11.242026     9A    -11.239179
      10A    -11.238194    11A    -11.234584    12A    -11.223970
      13A    -11.221237    14A     -1.262544    15A     -1.214002
      16A     -1.127927    17A     -1.088994    18A     -1.061403
      19A     -0.997808    20A     -0.980669    21A     -0.871596
      22A     -0.864482    23A     -0.816984    24A     -0.800671
      25A     -0.718758    26A     -0.690656    27A     -0.684967
      28A     -0.663445    29A     -0.653325    30A     -0.627220
      31A     -0.595562    32A     -0.592417    33A     -0.586156
      34A     -0.573984    35A     -0.551042    36A     -0.536666
      37A     -0.519981    38A     -0.501479    39A     -0.493808
      40A     -0.445259    41A     -0.421027    42A     -0.388784
      43A     -0.368697    44A     -0.319158    45A     -0.286664

  @DF-RHF Final Energy:  -531.45336167991513

   => Energetics <=

    Nuclear Repulsion Energy =            714.6343541079220358
    One-Electron Energy =               -2137.8075435885361912
    Two-Electron Energy =                 891.7198278006990222
    Total Energy =                       -531.4533616799151332
  Basis Set: (AUG-CC-PVTZ AUX)
    Blend: AUG-CC-PVTZ-RI
    Molecular point group: c1

    Geometry (in Angstrom), charge = 0, multiplicity = 1:

       Center              X                  Y                   Z               Mass
    ------------   -----------------  -----------------  -----------------  -----------------
         N            1.440477707322     0.924096571013    -0.557070340488    14.003074004430
         N           -0.868894292678     2.169790571013     0.506320659512    14.003074004430
         C           -0.647593292678    -0.207168428987    -0.052308340488    12.000000000000
         C            0.830074707322    -0.159094428987    -0.019941340488    12.000000000000
         C           -1.445692292678     0.940444571013     0.179211659512    12.000000000000
         C           -1.277174292678    -1.432441428987    -0.324331340488    12.000000000000
         C           -2.842365292678     0.792331571013     0.194846659512    12.000000000000
         C            1.566036707322    -1.214451428987     0.544026659512    12.000000000000
         C           -2.663594292678    -1.560040428987    -0.324046340488    12.000000000000
         C           -3.447260292678    -0.434564428987    -0.061653340488    12.000000000000
         C            2.957125707322    -1.173622428987     0.513107659512    12.000000000000
         C            3.584289707322    -0.068074428987    -0.060666340488    12.000000000000
         C            2.784011707322     0.955336571013    -0.566335340488    12.000000000000
         H           -0.658251292678    -2.297016428987    -0.556944340488     1.007825032230
         H           -3.458103292678     1.669140571013     0.391693659512     1.007825032230
         H            1.045519707322    -2.043767428987     1.014027659512     1.007825032230
         H           -3.126157292678    -2.517929428987    -0.546626340488     1.007825032230
         H           -4.532400292678    -0.509369428987    -0.053722340488     1.007825032230
         H            3.541547807322    -2.006119328987     0.900136259512     1.007825032230
         H            0.019307707322     2.315308571013     0.032798659512     1.007825032230
         H           -1.502268292678     2.951319571013     0.372008659512     1.007825032230
         H            4.666927707322     0.009949571013    -0.103106340488     1.007825032230
         H            3.231689707322     1.845253571013    -1.006013340488     1.007825032230

  Basis Set: AUG-CC-PVTZ
    Blend: AUG-CC-PVTZ
  Basis Set: (AUG-CC-PVTZ AUX)
    Blend: AUG-CC-PVTZ-JKFIT
	 Reference Energy          =    -531.4533616799151332 [Eh]
	 Singles Energy            =      -0.0000000000000000 [Eh]
	 Same-Spin Energy          =      -0.5965154544540512 [Eh]
	 Opposite-Spin Energy      =      -1.8207907257291036 [Eh]
	 Correlation Energy        =      -2.4173061801831546 [Eh]
	 Total Energy              =    -533.8706678600982514 [Eh]

	 ================> DF-SCS-MP2 Energies <==================
	-----------------------------------------------------------
	 SCS Same-Spin Scale       =       0.3333333333333333 [-]
	 SCS Opposite-Spin Scale   =       1.2000000000000000 [-]
	 SCS Same-Spin Energy      =      -0.1988384848180171 [Eh]
	 SCS Opposite-Spin Energy  =      -2.1849488708749241 [Eh]
	 SCS Correlation Energy    =      -2.3837873556929412 [Eh]
	 SCS Total Energy          =    -533.8371490356080358 [Eh]
	-----------------------------------------------------------

  Dipole Moment: [D]
     X:     1.5260      Y:    -0.4341      Z:    -0.0126     Total:     1.5865

*** Psi4 exiting successfully. Buy a developer a beer!
