                               Psi4 1.4a2.dev612

  ==> Input File <==

--------------------------------------------------------------------------
#psi4
#
memory 32 gb

molecule  {
0 1
  N        1.4447430     0.9271060    -0.5600120
  N       -0.8646290     2.1728000     0.5033790
  C       -0.6433280    -0.2041590    -0.0552500
  C        0.8343400    -0.1560850    -0.0228830
  C       -1.4414270     0.9434540     0.1762700
  C       -1.2729090    -1.4294320    -0.3272730
  C       -2.8381000     0.7953410     0.1919050
  C        1.5703020    -1.2114420     0.5410850
  C       -2.6593290    -1.5570310    -0.3269880
  C       -3.4429950    -0.4315550    -0.0645950
  C        2.9613910    -1.1706130     0.5101660
  C        3.5885550    -0.0650650    -0.0636080
  C        2.7882770     0.9583460    -0.5692770
  H       -0.6539860    -2.2940070    -0.5598860
  H       -3.4538380     1.6721500     0.3887520
  H        1.0497850    -2.0407580     1.0110860
  H       -3.1218920    -2.5149200    -0.5495680
  H       -4.5281350    -0.5063600    -0.0566640
  H        3.5458790    -1.9798730     0.9414670
  H        0.0235730     2.3183180     0.0298570
  H       -1.4980030     2.9543290     0.3690670
  H        4.6711930     0.0129590    -0.1060480
  H        3.2351062     1.9810266    -0.7399325
units angstrom
no_reorient  #important for SAPT in psi4, default
symmetry c1  #important for SAPT in psi4, default
}

set PROPERTIES_ORIGIN ["COM"]
properties('MP2/aug-cc-pvtz', properties = ['dipole'])
--------------------------------------------------------------------------

    Molecular point group: c1
  Charge       = 0
  Multiplicity = 1
  Basis Set: AUG-CC-PVTZ
    Blend: AUG-CC-PVTZ
  Basis Set: (AUG-CC-PVTZ AUX)
    Blend: AUG-CC-PVTZ-JKFIT

    Orbital Energies [Eh]
    ---------------------

    Doubly Occupied:

       1A    -15.569364     2A    -15.551159     3A    -11.290511
       4A    -11.285276     5A    -11.281087     6A    -11.263885
       7A    -11.243575     8A    -11.242647     9A    -11.239384
      10A    -11.238381    11A    -11.234728    12A    -11.224117
      13A    -11.221369    14A     -1.262832    15A     -1.214139
      16A     -1.128075    17A     -1.089511    18A     -1.061144
      19A     -0.997696    20A     -0.980707    21A     -0.871724
      22A     -0.862876    23A     -0.816446    24A     -0.800581
      25A     -0.716933    26A     -0.690738    27A     -0.684817
      28A     -0.662567    29A     -0.653732    30A     -0.624740
      31A     -0.594009    32A     -0.592627    33A     -0.586170
      34A     -0.573479    35A     -0.553914    36A     -0.535873
      37A     -0.515558    38A     -0.503011    39A     -0.492927
      40A     -0.445474    41A     -0.421299    42A     -0.389444
      43A     -0.366859    44A     -0.319353    45A     -0.287125

  @DF-RHF Final Energy:  -531.44688780498450

   => Energetics <=

    Nuclear Repulsion Energy =            714.5097877201582151
    One-Electron Energy =               -2137.5496353448547779
    Two-Electron Energy =                 891.5929598197119503
    Total Energy =                       -531.4468878049844989
  Basis Set: (AUG-CC-PVTZ AUX)
    Blend: AUG-CC-PVTZ-RI
    Molecular point group: c1

    Geometry (in Angstrom), charge = 0, multiplicity = 1:

       Center              X                  Y                   Z               Mass
    ------------   -----------------  -----------------  -----------------  -----------------
         N            1.440482346349     0.923172199287    -0.558926750869    14.003074004430
         N           -0.868889653651     2.168866199287     0.504464249131    14.003074004430
         C           -0.647588653651    -0.208092800713    -0.054164750869    12.000000000000
         C            0.830079346349    -0.160018800713    -0.021797750869    12.000000000000
         C           -1.445687653651     0.939520199287     0.177355249131    12.000000000000
         C           -1.277169653651    -1.433365800713    -0.326187750869    12.000000000000
         C           -2.842360653651     0.791407199287     0.192990249131    12.000000000000
         C            1.566041346349    -1.215375800713     0.542170249131    12.000000000000
         C           -2.663589653651    -1.560964800713    -0.325902750869    12.000000000000
         C           -3.447255653651    -0.435488800713    -0.063509750869    12.000000000000
         C            2.957130346349    -1.174546800713     0.511251249131    12.000000000000
         C            3.584294346349    -0.068998800713    -0.062522750869    12.000000000000
         C            2.784016346349     0.954412199287    -0.568191750869    12.000000000000
         H           -0.658246653651    -2.297940800713    -0.558800750869     1.007825032230
         H           -3.458098653651     1.668216199287     0.389837249131     1.007825032230
         H            1.045524346349    -2.044691800713     1.012171249131     1.007825032230
         H           -3.126152653651    -2.518853800713    -0.548482750869     1.007825032230
         H           -4.532395653651    -0.510293800713    -0.055578750869     1.007825032230
         H            3.541618346349    -1.983806800713     0.942552249131     1.007825032230
         H            0.019312346349     2.314384199287     0.030942249131     1.007825032230
         H           -1.502263653651     2.950395199287     0.370152249131     1.007825032230
         H            4.666932346349     0.009025199287    -0.104962750869     1.007825032230
         H            3.230845546349     1.977092799287    -0.738847250869     1.007825032230

  Basis Set: AUG-CC-PVTZ
    Blend: AUG-CC-PVTZ
  Basis Set: (AUG-CC-PVTZ AUX)
    Blend: AUG-CC-PVTZ-JKFIT
	 Reference Energy          =    -531.4468878049844989 [Eh]
	 Singles Energy            =      -0.0000000000000000 [Eh]
	 Same-Spin Energy          =      -0.5969109869897903 [Eh]
	 Opposite-Spin Energy      =      -1.8216627899691566 [Eh]
	 Correlation Energy        =      -2.4185737769589468 [Eh]
	 Total Energy              =    -533.8654615819434639 [Eh]

	 ================> DF-SCS-MP2 Energies <==================
	-----------------------------------------------------------
	 SCS Same-Spin Scale       =       0.3333333333333333 [-]
	 SCS Opposite-Spin Scale   =       1.2000000000000000 [-]
	 SCS Same-Spin Energy      =      -0.1989703289965968 [Eh]
	 SCS Opposite-Spin Energy  =      -2.1859953479629879 [Eh]
	 SCS Correlation Energy    =      -2.3849656769595846 [Eh]
	 SCS Total Energy          =    -533.8318534819441084 [Eh]
	-----------------------------------------------------------

  Dipole Moment: [D]
     X:     1.4781      Y:    -0.4104      Z:     0.1776     Total:     1.5443

*** Psi4 exiting successfully. Buy a developer a beer!
