                               Psi4 1.4a2.dev612

  ==> Input File <==

--------------------------------------------------------------------------
#psi4
#
memory 32 gb

molecule  {
0 1
  N        1.4447430     0.9271060    -0.5600120
  N       -0.8646290     2.1728000     0.5033790
  C       -0.6433280    -0.2041590    -0.0552500
  C        0.8343400    -0.1560850    -0.0228830
  C       -1.4414270     0.9434540     0.1762700
  C       -1.2729090    -1.4294320    -0.3272730
  C       -2.8381000     0.7953410     0.1919050
  C        1.5703020    -1.2114420     0.5410850
  C       -2.6593290    -1.5570310    -0.3269880
  C       -3.4429950    -0.4315550    -0.0645950
  C        2.9613910    -1.1706130     0.5101660
  C        3.5885550    -0.0650650    -0.0636080
  C        2.7882770     0.9583460    -0.5692770
  H       -0.6539860    -2.2940070    -0.5598860
  H       -3.4538380     1.6721500     0.3887520
  H        1.0497850    -2.0407580     1.0110860
  H       -3.1218920    -2.5149200    -0.5495680
  H       -4.5281350    -0.5063600    -0.0566640
  H        3.5458790    -1.9798730     0.9414670
  H        0.0235730     2.3183180     0.0298570
  H       -1.4980030     2.9543290     0.3690670
  H        4.6711930     0.0129590    -0.1060480
  H        3.2356721     1.8925175    -0.9192808
units angstrom
no_reorient  #important for SAPT in psi4, default
symmetry c1  #important for SAPT in psi4, default
}

set PROPERTIES_ORIGIN ["COM"]
properties('MP2/aug-cc-pvtz', properties = ['dipole'])
--------------------------------------------------------------------------

    Molecular point group: c1
  Charge       = 0
  Multiplicity = 1
  Basis Set: AUG-CC-PVTZ
    Blend: AUG-CC-PVTZ
  Basis Set: (AUG-CC-PVTZ AUX)
    Blend: AUG-CC-PVTZ-JKFIT

    Orbital Energies [Eh]
    ---------------------

    Doubly Occupied:

       1A    -15.568887     2A    -15.551050     3A    -11.290117
       4A    -11.281864     5A    -11.280922     6A    -11.263549
       7A    -11.242842     8A    -11.242069     9A    -11.239201
      10A    -11.238222    11A    -11.234576    12A    -11.223979
      13A    -11.221240    14A     -1.262560    15A     -1.214007
      16A     -1.127937    17A     -1.089068    18A     -1.061365
      19A     -0.997789    20A     -0.980665    21A     -0.871596
      22A     -0.864327    23A     -0.816932    24A     -0.800677
      25A     -0.718566    26A     -0.690690    27A     -0.684922
      28A     -0.663311    29A     -0.653419    30A     -0.626912
      31A     -0.595335    32A     -0.592475    33A     -0.586175
      34A     -0.574013    35A     -0.551853    36A     -0.536463
      37A     -0.518739    38A     -0.502111    39A     -0.493682
      40A     -0.445281    41A     -0.420979    42A     -0.389076
      43A     -0.368268    44A     -0.319194    45A     -0.286773

  @DF-RHF Final Energy:  -531.45282065096103

   => Energetics <=

    Nuclear Repulsion Energy =            714.6295995903730045
    One-Electron Energy =               -2137.7974879618550403
    Two-Electron Energy =                 891.7150677205211196
    Total Energy =                       -531.4528206509610300
  Basis Set: (AUG-CC-PVTZ AUX)
    Blend: AUG-CC-PVTZ-RI
    Molecular point group: c1

    Geometry (in Angstrom), charge = 0, multiplicity = 1:

       Center              X                  Y                   Z               Mass
    ------------   -----------------  -----------------  -----------------  -----------------
         N            1.440478993142     0.923696654718    -0.557864033136    14.003074004430
         N           -0.868893006858     2.169390654718     0.505526966864    14.003074004430
         C           -0.647592006858    -0.207568345282    -0.053102033136    12.000000000000
         C            0.830075993142    -0.159494345282    -0.020735033136    12.000000000000
         C           -1.445691006858     0.940044654718     0.178417966864    12.000000000000
         C           -1.277173006858    -1.432841345282    -0.325125033136    12.000000000000
         C           -2.842364006858     0.791931654718     0.194052966864    12.000000000000
         C            1.566037993142    -1.214851345282     0.543232966864    12.000000000000
         C           -2.663593006858    -1.560440345282    -0.324840033136    12.000000000000
         C           -3.447259006858    -0.434964345282    -0.062447033136    12.000000000000
         C            2.957126993142    -1.174022345282     0.512313966864    12.000000000000
         C            3.584290993142    -0.068474345282    -0.061460033136    12.000000000000
         C            2.784012993142     0.954936654718    -0.567129033136    12.000000000000
         H           -0.658250006858    -2.297416345282    -0.557738033136     1.007825032230
         H           -3.458102006858     1.668740654718     0.390899966864     1.007825032230
         H            1.045520993142    -2.044167345282     1.013233966864     1.007825032230
         H           -3.126156006858    -2.518329345282    -0.547420033136     1.007825032230
         H           -4.532399006858    -0.509769345282    -0.054516033136     1.007825032230
         H            3.541614993142    -1.983282345282     0.943614966864     1.007825032230
         H            0.019308993142     2.314908654718     0.032004966864     1.007825032230
         H           -1.502267006858     2.950919654718     0.371214966864     1.007825032230
         H            4.666928993142     0.009549654718    -0.103900033136     1.007825032230
         H            3.231408093142     1.889108154718    -0.917132833136     1.007825032230

  Basis Set: AUG-CC-PVTZ
    Blend: AUG-CC-PVTZ
  Basis Set: (AUG-CC-PVTZ AUX)
    Blend: AUG-CC-PVTZ-JKFIT
	 Reference Energy          =    -531.4528206509610300 [Eh]
	 Singles Energy            =      -0.0000000000000000 [Eh]
	 Same-Spin Energy          =      -0.5965590672912174 [Eh]
	 Opposite-Spin Energy      =      -1.8208668471096168 [Eh]
	 Correlation Energy        =      -2.4174259144008343 [Eh]
	 Total Energy              =    -533.8702465653618674 [Eh]

	 ================> DF-SCS-MP2 Energies <==================
	-----------------------------------------------------------
	 SCS Same-Spin Scale       =       0.3333333333333333 [-]
	 SCS Opposite-Spin Scale   =       1.2000000000000000 [-]
	 SCS Same-Spin Energy      =      -0.1988530224304058 [Eh]
	 SCS Opposite-Spin Energy  =      -2.1850402165315401 [Eh]
	 SCS Correlation Energy    =      -2.3838932389619458 [Eh]
	 SCS Total Energy          =    -533.8367138899229758 [Eh]
	-----------------------------------------------------------

  Dipole Moment: [D]
     X:     1.5217      Y:    -0.4043      Z:     0.0634     Total:     1.5758

*** Psi4 exiting successfully. Buy a developer a beer!
