                               Psi4 1.4a2.dev612

  ==> Input File <==

--------------------------------------------------------------------------
#psi4
#
memory 32 gb

molecule  {
0 1
  N        1.4447430     0.9271060    -0.5600120
  N       -0.8646290     2.1728000     0.5033790
  C       -0.6433280    -0.2041590    -0.0552500
  C        0.8343400    -0.1560850    -0.0228830
  C       -1.4414270     0.9434540     0.1762700
  C       -1.2729090    -1.4294320    -0.3272730
  C       -2.8395191     0.8524111    -0.0514897
  C        1.5703020    -1.2114420     0.5410850
  C       -2.6593290    -1.5570310    -0.3269880
  C       -3.4429950    -0.4315550    -0.0645950
  C        2.9613910    -1.1706130     0.5101660
  C        3.5885550    -0.0650650    -0.0636080
  C        2.7882770     0.9583460    -0.5692770
  H       -0.6539860    -2.2940070    -0.5598860
  H       -3.4538380     1.6721500     0.3887520
  H        1.0497850    -2.0407580     1.0110860
  H       -3.1218920    -2.5149200    -0.5495680
  H       -4.5281350    -0.5063600    -0.0566640
  H        3.5458790    -1.9798730     0.9414670
  H        0.0235730     2.3183180     0.0298570
  H       -1.4980030     2.9543290     0.3690670
  H        4.6711930     0.0129590    -0.1060480
  H        3.2359550     1.8482630    -1.0089550
units angstrom
no_reorient  #important for SAPT in psi4, default
symmetry c1  #important for SAPT in psi4, default
}

set PROPERTIES_ORIGIN ["COM"]
properties('MP2/aug-cc-pvtz', properties = ['dipole'])
--------------------------------------------------------------------------

    Molecular point group: c1
  Charge       = 0
  Multiplicity = 1
  Basis Set: AUG-CC-PVTZ
    Blend: AUG-CC-PVTZ
  Basis Set: (AUG-CC-PVTZ AUX)
    Blend: AUG-CC-PVTZ-JKFIT

    Orbital Energies [Eh]
    ---------------------

    Doubly Occupied:

       1A    -15.569443     2A    -15.551318     3A    -11.290437
       4A    -11.284956     5A    -11.281880     6A    -11.263923
       7A    -11.243478     8A    -11.243315     9A    -11.242689
      10A    -11.242524    11A    -11.234786    12A    -11.227763
      13A    -11.221591    14A     -1.262993    15A     -1.213770
      16A     -1.127294    17A     -1.089512    18A     -1.060556
      19A     -0.995681    20A     -0.980337    21A     -0.871233
      22A     -0.864769    23A     -0.816622    24A     -0.798291
      25A     -0.717913    26A     -0.690631    27A     -0.684477
      28A     -0.663250    29A     -0.653360    30A     -0.626502
      31A     -0.596747    32A     -0.593275    33A     -0.581988
      34A     -0.573431    35A     -0.549428    36A     -0.535716
      37A     -0.518146    38A     -0.501611    39A     -0.489264
      40A     -0.440048    41A     -0.421854    42A     -0.389417
      43A     -0.368757    44A     -0.319465    45A     -0.288412

  @DF-RHF Final Energy:  -531.43711874680423

   => Energetics <=

    Nuclear Repulsion Energy =            713.9703778649879951
    One-Electron Energy =               -2136.4492843824655210
    Two-Electron Energy =                 891.0417877706732952
    Total Energy =                       -531.4371187468042308
  Basis Set: (AUG-CC-PVTZ AUX)
    Blend: AUG-CC-PVTZ-RI
    Molecular point group: c1

    Geometry (in Angstrom), charge = 0, multiplicity = 1:

       Center              X                  Y                   Z               Mass
    ------------   -----------------  -----------------  -----------------  -----------------
         N            1.440577438893     0.919932403480    -0.540160396982    14.003074004430
         N           -0.868794561107     2.165626403480     0.523230603018    14.003074004430
         C           -0.647493561107    -0.211332596520    -0.035398396982    12.000000000000
         C            0.830174438893    -0.163258596520    -0.003031396982    12.000000000000
         C           -1.445592561107     0.936280403480     0.196121603018    12.000000000000
         C           -1.277074561107    -1.436605596520    -0.307421396982    12.000000000000
         C           -2.843684661107     0.845237503480    -0.031638096982    12.000000000000
         C            1.566136438893    -1.218615596520     0.560936603018    12.000000000000
         C           -2.663494561107    -1.564204596520    -0.307136396982    12.000000000000
         C           -3.447160561107    -0.438728596520    -0.044743396982    12.000000000000
         C            2.957225438893    -1.177786596520     0.530017603018    12.000000000000
         C            3.584389438893    -0.072238596520    -0.043756396982    12.000000000000
         C            2.784111438893     0.951172403480    -0.549425396982    12.000000000000
         H           -0.658151561107    -2.301180596520    -0.540034396982     1.007825032230
         H           -3.458003561107     1.664976403480     0.408603603018     1.007825032230
         H            1.045619438893    -2.047931596520     1.030937603018     1.007825032230
         H           -3.126057561107    -2.522093596520    -0.529716396982     1.007825032230
         H           -4.532300561107    -0.513533596520    -0.036812396982     1.007825032230
         H            3.541713438893    -1.987046596520     0.961318603018     1.007825032230
         H            0.019407438893     2.311144403480     0.049708603018     1.007825032230
         H           -1.502168561107     2.947155403480     0.388918603018     1.007825032230
         H            4.667027438893     0.005785403480    -0.086196396982     1.007825032230
         H            3.231789438893     1.841089403480    -0.989103396982     1.007825032230

  Basis Set: AUG-CC-PVTZ
    Blend: AUG-CC-PVTZ
  Basis Set: (AUG-CC-PVTZ AUX)
    Blend: AUG-CC-PVTZ-JKFIT
	 Reference Energy          =    -531.4371187468042308 [Eh]
	 Singles Energy            =      -0.0000000000000000 [Eh]
	 Same-Spin Energy          =      -0.5970819540323562 [Eh]
	 Opposite-Spin Energy      =      -1.8228857966083591 [Eh]
	 Correlation Energy        =      -2.4199677506407156 [Eh]
	 Total Energy              =    -533.8570864974449250 [Eh]

	 ================> DF-SCS-MP2 Energies <==================
	-----------------------------------------------------------
	 SCS Same-Spin Scale       =       0.3333333333333333 [-]
	 SCS Opposite-Spin Scale   =       1.2000000000000000 [-]
	 SCS Same-Spin Energy      =      -0.1990273180107854 [Eh]
	 SCS Opposite-Spin Energy  =      -2.1874629559300307 [Eh]
	 SCS Correlation Energy    =      -2.3864902739408160 [Eh]
	 SCS Total Energy          =    -533.8236090207450388 [Eh]
	-----------------------------------------------------------

  Dipole Moment: [D]
     X:     1.6846      Y:    -0.5743      Z:     0.1599     Total:     1.7870

*** Psi4 exiting successfully. Buy a developer a beer!
