                               Psi4 1.4a2.dev612

  ==> Input File <==

--------------------------------------------------------------------------
#psi4
#
memory 32 gb

molecule  {
0 1
  N        1.4447430     0.9271060    -0.5600120
  N       -0.8646290     2.1728000     0.5033790
  C       -0.6433280    -0.2041590    -0.0552500
  C        0.8343400    -0.1560850    -0.0228830
  C       -1.4414270     0.9434540     0.1762700
  C       -1.2729090    -1.4294320    -0.3272730
  C       -2.8381000     0.7953410     0.1919050
  C        1.5703020    -1.2114420     0.5410850
  C       -2.6593290    -1.5570310    -0.3269880
  C       -3.4429950    -0.4315550    -0.0645950
  C        2.9613910    -1.1706130     0.5101660
  C        3.5885550    -0.0650650    -0.0636080
  C        2.7882770     0.9583460    -0.5692770
  H       -0.6526574    -2.3057455    -0.5113016
  H       -3.4538380     1.6721500     0.3887520
  H        1.0497850    -2.0407580     1.0110860
  H       -3.1218920    -2.5149200    -0.5495680
  H       -4.5281350    -0.5063600    -0.0566640
  H        3.5458790    -1.9798730     0.9414670
  H        0.0235730     2.3183180     0.0298570
  H       -1.4980030     2.9543290     0.3690670
  H        4.6711930     0.0129590    -0.1060480
  H        3.2359550     1.8482630    -1.0089550
units angstrom
no_reorient  #important for SAPT in psi4, default
symmetry c1  #important for SAPT in psi4, default
}

set PROPERTIES_ORIGIN ["COM"]
properties('MP2/aug-cc-pvtz', properties = ['dipole'])
--------------------------------------------------------------------------

    Molecular point group: c1
  Charge       = 0
  Multiplicity = 1
  Basis Set: AUG-CC-PVTZ
    Blend: AUG-CC-PVTZ
  Basis Set: (AUG-CC-PVTZ AUX)
    Blend: AUG-CC-PVTZ-JKFIT

    Orbital Energies [Eh]
    ---------------------

    Doubly Occupied:

       1A    -15.568860     2A    -15.551068     3A    -11.290179
       4A    -11.281432     5A    -11.280930     6A    -11.263541
       7A    -11.242699     8A    -11.242074     9A    -11.239326
      10A    -11.238218    11A    -11.234633    12A    -11.223964
      13A    -11.221244    14A     -1.262562    15A     -1.214018
      16A     -1.127949    17A     -1.089039    18A     -1.061447
      19A     -0.997792    20A     -0.980692    21A     -0.871643
      22A     -0.864610    23A     -0.816925    24A     -0.800710
      25A     -0.718885    26A     -0.690668    27A     -0.684907
      28A     -0.663609    29A     -0.653323    30A     -0.627245
      31A     -0.595348    32A     -0.592365    33A     -0.586368
      34A     -0.574255    35A     -0.550932    36A     -0.536774
      37A     -0.519816    38A     -0.501730    39A     -0.493719
      40A     -0.445320    41A     -0.420857    42A     -0.389013
      43A     -0.368839    44A     -0.319049    45A     -0.286691

  @DF-RHF Final Energy:  -531.45339307928498

   => Energetics <=

    Nuclear Repulsion Energy =            714.6433749371623207
    One-Electron Energy =               -2137.8230014875639426
    Two-Electron Energy =                 891.7262334711167568
    Total Energy =                       -531.4533930792849787
  Basis Set: (AUG-CC-PVTZ AUX)
    Blend: AUG-CC-PVTZ-RI
    Molecular point group: c1

    Geometry (in Angstrom), charge = 0, multiplicity = 1:

       Center              X                  Y                   Z               Mass
    ------------   -----------------  -----------------  -----------------  -----------------
         N            1.440469444294     0.924028437925    -0.557620557959    14.003074004430
         N           -0.868902555706     2.169722437925     0.505770442041    14.003074004430
         C           -0.647601555706    -0.207236562075    -0.052858557959    12.000000000000
         C            0.830066444294    -0.159162562075    -0.020491557959    12.000000000000
         C           -1.445700555706     0.940376437925     0.178661442041    12.000000000000
         C           -1.277182555706    -1.432509562075    -0.324881557959    12.000000000000
         C           -2.842373555706     0.792263437925     0.194296442041    12.000000000000
         C            1.566028444294    -1.214519562075     0.543476442041    12.000000000000
         C           -2.663602555706    -1.560108562075    -0.324596557959    12.000000000000
         C           -3.447268555706    -0.434632562075    -0.062203557959    12.000000000000
         C            2.957117444294    -1.173690562075     0.512557442041    12.000000000000
         C            3.584281444294    -0.068142562075    -0.061216557959    12.000000000000
         C            2.784003444294     0.955268437925    -0.566885557959    12.000000000000
         H           -0.656930955706    -2.308823062075    -0.508910157959     1.007825032230
         H           -3.458111555706     1.669072437925     0.391143442041     1.007825032230
         H            1.045511444294    -2.043835562075     1.013477442041     1.007825032230
         H           -3.126165555706    -2.517997562075    -0.547176557959     1.007825032230
         H           -4.532408555706    -0.509437562075    -0.054272557959     1.007825032230
         H            3.541605444294    -1.982950562075     0.943858442041     1.007825032230
         H            0.019299444294     2.315240437925     0.032248442041     1.007825032230
         H           -1.502276555706     2.951251437925     0.371458442041     1.007825032230
         H            4.666919444294     0.009881437925    -0.103656557959     1.007825032230
         H            3.231681444294     1.845185437925    -1.006563557959     1.007825032230

  Basis Set: AUG-CC-PVTZ
    Blend: AUG-CC-PVTZ
  Basis Set: (AUG-CC-PVTZ AUX)
    Blend: AUG-CC-PVTZ-JKFIT
	 Reference Energy          =    -531.4533930792849787 [Eh]
	 Singles Energy            =      -0.0000000000000000 [Eh]
	 Same-Spin Energy          =      -0.5965143885378252 [Eh]
	 Opposite-Spin Energy      =      -1.8207891138697421 [Eh]
	 Correlation Energy        =      -2.4173035024075675 [Eh]
	 Total Energy              =    -533.8706965816925276 [Eh]

	 ================> DF-SCS-MP2 Energies <==================
	-----------------------------------------------------------
	 SCS Same-Spin Scale       =       0.3333333333333333 [-]
	 SCS Opposite-Spin Scale   =       1.2000000000000000 [-]
	 SCS Same-Spin Energy      =      -0.1988381295126084 [Eh]
	 SCS Opposite-Spin Energy  =      -2.1849469366436902 [Eh]
	 SCS Correlation Energy    =      -2.3837850661562987 [Eh]
	 SCS Total Energy          =    -533.8371781454412712 [Eh]
	-----------------------------------------------------------

  Dipole Moment: [D]
     X:     1.5268      Y:    -0.4246      Z:     0.0418     Total:     1.5853

*** Psi4 exiting successfully. Buy a developer a beer!
