                               Psi4 1.4a2.dev612

  ==> Input File <==

--------------------------------------------------------------------------
#psi4
#
memory 32 gb

molecule  {
0 1
  N        1.4447430     0.9271060    -0.5600120
  N       -0.8646290     2.1728000     0.5033790
  C       -0.6433280    -0.2041590    -0.0552500
  C        0.8343400    -0.1560850    -0.0228830
  C       -1.4414270     0.9434540     0.1762700
  C       -1.2729090    -1.4294320    -0.3272730
  C       -2.8381000     0.7953410     0.1919050
  C        1.5654905    -1.1430358     0.6744920
  C       -2.6593290    -1.5570310    -0.3269880
  C       -3.4429950    -0.4315550    -0.0645950
  C        2.9613910    -1.1706130     0.5101660
  C        3.5885550    -0.0650650    -0.0636080
  C        2.7882770     0.9583460    -0.5692770
  H       -0.6539860    -2.2940070    -0.5598860
  H       -3.4538380     1.6721500     0.3887520
  H        1.0497850    -2.0407580     1.0110860
  H       -3.1218920    -2.5149200    -0.5495680
  H       -4.5281350    -0.5063600    -0.0566640
  H        3.5458790    -1.9798730     0.9414670
  H        0.0235730     2.3183180     0.0298570
  H       -1.4980030     2.9543290     0.3690670
  H        4.6711930     0.0129590    -0.1060480
  H        3.2359550     1.8482630    -1.0089550
units angstrom
no_reorient  #important for SAPT in psi4, default
symmetry c1  #important for SAPT in psi4, default
}

set PROPERTIES_ORIGIN ["COM"]
properties('MP2/aug-cc-pvtz', properties = ['dipole'])
--------------------------------------------------------------------------

    Molecular point group: c1
  Charge       = 0
  Multiplicity = 1
  Basis Set: AUG-CC-PVTZ
    Blend: AUG-CC-PVTZ
  Basis Set: (AUG-CC-PVTZ AUX)
    Blend: AUG-CC-PVTZ-JKFIT

    Orbital Energies [Eh]
    ---------------------

    Doubly Occupied:

       1A    -15.568773     2A    -15.551202     3A    -11.291553
       4A    -11.282531     5A    -11.281058     6A    -11.265789
       7A    -11.243969     8A    -11.242703     9A    -11.239514
      10A    -11.238279    11A    -11.234604    12A    -11.224091
      13A    -11.221346    14A     -1.262416    15A     -1.214075
      16A     -1.127949    17A     -1.087277    18A     -1.060946
      19A     -0.997825    20A     -0.980552    21A     -0.871056
      22A     -0.863605    23A     -0.816988    24A     -0.800598
      25A     -0.718316    26A     -0.690434    27A     -0.684922
      28A     -0.661980    29A     -0.653202    30A     -0.626957
      31A     -0.594769    32A     -0.593218    33A     -0.585777
      34A     -0.574041    35A     -0.548572    36A     -0.535915
      37A     -0.521340    38A     -0.500512    39A     -0.493704
      40A     -0.445443    41A     -0.421313    42A     -0.386718
      43A     -0.366565    44A     -0.320156    45A     -0.287533

  @DF-RHF Final Energy:  -531.44662545557151

   => Energetics <=

    Nuclear Repulsion Energy =            714.3174705007158991
    One-Electron Energy =               -2137.1680186983689964
    Two-Electron Energy =                 891.4039227420815905
    Total Energy =                       -531.4466254555715068
  Basis Set: (AUG-CC-PVTZ AUX)
    Blend: AUG-CC-PVTZ-RI
    Molecular point group: c1

    Geometry (in Angstrom), charge = 0, multiplicity = 1:

       Center              X                  Y                   Z               Mass
    ------------   -----------------  -----------------  -----------------  -----------------
         N            1.440816783597     0.919132605254    -0.566744965845    14.003074004430
         N           -0.868555216403     2.164826605254     0.496646034155    14.003074004430
         C           -0.647254216403    -0.212132394746    -0.061982965845    12.000000000000
         C            0.830413783597    -0.164058394746    -0.029615965845    12.000000000000
         C           -1.445353216403     0.935480605254     0.169537034155    12.000000000000
         C           -1.276835216403    -1.437405394746    -0.334005965845    12.000000000000
         C           -2.842026216403     0.787367605254     0.185172034155    12.000000000000
         C            1.561564283597    -1.151009194746     0.667759034155    12.000000000000
         C           -2.663255216403    -1.565004394746    -0.333720965845    12.000000000000
         C           -3.446921216403    -0.439528394746    -0.071327965845    12.000000000000
         C            2.957464783597    -1.178586394746     0.503433034155    12.000000000000
         C            3.584628783597    -0.073038394746    -0.070340965845    12.000000000000
         C            2.784350783597     0.950372605254    -0.576009965845    12.000000000000
         H           -0.657912216403    -2.301980394746    -0.566618965845     1.007825032230
         H           -3.457764216403     1.664176605254     0.382019034155     1.007825032230
         H            1.045858783597    -2.048731394746     1.004353034155     1.007825032230
         H           -3.125818216403    -2.522893394746    -0.556300965845     1.007825032230
         H           -4.532061216403    -0.514333394746    -0.063396965845     1.007825032230
         H            3.541952783597    -1.987846394746     0.934734034155     1.007825032230
         H            0.019646783597     2.310344605254     0.023124034155     1.007825032230
         H           -1.501929216403     2.946355605254     0.362334034155     1.007825032230
         H            4.667266783597     0.004985605254    -0.112780965845     1.007825032230
         H            3.232028783597     1.840289605254    -1.015687965845     1.007825032230

  Basis Set: AUG-CC-PVTZ
    Blend: AUG-CC-PVTZ
  Basis Set: (AUG-CC-PVTZ AUX)
    Blend: AUG-CC-PVTZ-JKFIT
	 Reference Energy          =    -531.4466254555715068 [Eh]
	 Singles Energy            =      -0.0000000000000000 [Eh]
	 Same-Spin Energy          =      -0.5966816637646113 [Eh]
	 Opposite-Spin Energy      =      -1.8214429204017135 [Eh]
	 Correlation Energy        =      -2.4181245841663248 [Eh]
	 Total Energy              =    -533.8647500397378280 [Eh]

	 ================> DF-SCS-MP2 Energies <==================
	-----------------------------------------------------------
	 SCS Same-Spin Scale       =       0.3333333333333333 [-]
	 SCS Opposite-Spin Scale   =       1.2000000000000000 [-]
	 SCS Same-Spin Energy      =      -0.1988938879215371 [Eh]
	 SCS Opposite-Spin Energy  =      -2.1857315044820562 [Eh]
	 SCS Correlation Energy    =      -2.3846253924035934 [Eh]
	 SCS Total Energy          =    -533.8312508479750704 [Eh]
	-----------------------------------------------------------

  Dipole Moment: [D]
     X:     1.5234      Y:    -0.4118      Z:    -0.0352     Total:     1.5785

*** Psi4 exiting successfully. Buy a developer a beer!
