                               Psi4 1.4a2.dev612

  ==> Input File <==

--------------------------------------------------------------------------
#psi4
#
memory 32 gb

molecule  {
0 1
  N        1.4447430     0.9271060    -0.5600120
  N       -0.8646290     2.1728000     0.5033790
  C       -0.6433280    -0.2041590    -0.0552500
  C        0.8343400    -0.1560850    -0.0228830
  C       -1.4414270     0.9434540     0.1762700
  C       -1.2729090    -1.4294320    -0.3272730
  C       -2.8381000     0.7953410     0.1919050
  C        1.5703020    -1.2114420     0.5410850
  C       -2.6593290    -1.5570310    -0.3269880
  C       -3.4429950    -0.4315550    -0.0645950
  C        2.9613910    -1.1706130     0.5101660
  C        3.5885550    -0.0650650    -0.0636080
  C        2.7882770     0.9583460    -0.5692770
  H       -0.6539860    -2.2940070    -0.5598860
  H       -3.4538380     1.6721500     0.3887520
  H        1.0497850    -2.0407580     1.0110860
  H       -3.1218920    -2.5149200    -0.5495680
  H       -4.5281350    -0.5063600    -0.0566640
  H        3.5457473    -2.0263468     0.8529223
  H        0.0235730     2.3183180     0.0298570
  H       -1.4980030     2.9543290     0.3690670
  H        4.6711930     0.0129590    -0.1060480
  H        3.2359550     1.8482630    -1.0089550
units angstrom
no_reorient  #important for SAPT in psi4, default
symmetry c1  #important for SAPT in psi4, default
}

set PROPERTIES_ORIGIN ["COM"]
properties('MP2/aug-cc-pvtz', properties = ['dipole'])
--------------------------------------------------------------------------

    Molecular point group: c1
  Charge       = 0
  Multiplicity = 1
  Basis Set: AUG-CC-PVTZ
    Blend: AUG-CC-PVTZ
  Basis Set: (AUG-CC-PVTZ AUX)
    Blend: AUG-CC-PVTZ-JKFIT

    Orbital Energies [Eh]
    ---------------------

    Doubly Occupied:

       1A    -15.568905     2A    -15.551069     3A    -11.290085
       4A    -11.281446     5A    -11.280916     6A    -11.263914
       7A    -11.242738     8A    -11.242086     9A    -11.239187
      10A    -11.238196    11A    -11.234603    12A    -11.223982
      13A    -11.221247    14A     -1.262577    15A     -1.214014
      16A     -1.127938    17A     -1.088942    18A     -1.061426
      19A     -0.997825    20A     -0.980683    21A     -0.871606
      22A     -0.864313    23A     -0.816995    24A     -0.800581
      25A     -0.718554    26A     -0.690674    27A     -0.684931
      28A     -0.663467    29A     -0.653353    30A     -0.627182
      31A     -0.595517    32A     -0.592459    33A     -0.586076
      34A     -0.573498    35A     -0.551271    36A     -0.536693
      37A     -0.519847    38A     -0.501511    39A     -0.493825
      40A     -0.445282    41A     -0.421188    42A     -0.388461
      43A     -0.368734    44A     -0.319183    45A     -0.286685

  @DF-RHF Final Energy:  -531.45289141757280

   => Energetics <=

    Nuclear Repulsion Energy =            714.6217928858469577
    One-Electron Energy =               -2137.7820348525247027
    Two-Electron Energy =                 891.7073505491050582
    Total Energy =                       -531.4528914175728005
  Basis Set: (AUG-CC-PVTZ AUX)
    Blend: AUG-CC-PVTZ-RI
    Molecular point group: c1

    Geometry (in Angstrom), charge = 0, multiplicity = 1:

       Center              X                  Y                   Z               Mass
    ------------   -----------------  -----------------  -----------------  -----------------
         N            1.440478097216     0.924234259888    -0.556808007596    14.003074004430
         N           -0.868893902784     2.169928259888     0.506582992404    14.003074004430
         C           -0.647592902784    -0.207030740112    -0.052046007596    12.000000000000
         C            0.830075097216    -0.158956740112    -0.019679007596    12.000000000000
         C           -1.445691902784     0.940582259888     0.179473992404    12.000000000000
         C           -1.277173902784    -1.432303740112    -0.324069007596    12.000000000000
         C           -2.842364902784     0.792469259888     0.195108992404    12.000000000000
         C            1.566037097216    -1.214313740112     0.544288992404    12.000000000000
         C           -2.663593902784    -1.559902740112    -0.323784007596    12.000000000000
         C           -3.447259902784    -0.434426740112    -0.061391007596    12.000000000000
         C            2.957126097216    -1.173484740112     0.513369992404    12.000000000000
         C            3.584290097216    -0.067936740112    -0.060404007596    12.000000000000
         C            2.784012097216     0.955474259888    -0.566073007596    12.000000000000
         H           -0.658250902784    -2.296878740112    -0.556682007596     1.007825032230
         H           -3.458102902784     1.669278259888     0.391955992404     1.007825032230
         H            1.045520097216    -2.043629740112     1.014289992404     1.007825032230
         H           -3.126156902784    -2.517791740112    -0.546364007596     1.007825032230
         H           -4.532399902784    -0.509231740112    -0.053460007596     1.007825032230
         H            3.541482397216    -2.029218540112     0.856126292404     1.007825032230
         H            0.019308097216     2.315446259888     0.033060992404     1.007825032230
         H           -1.502267902784     2.951457259888     0.372270992404     1.007825032230
         H            4.666928097216     0.010087259888    -0.102844007596     1.007825032230
         H            3.231690097216     1.845391259888    -1.005751007596     1.007825032230

  Basis Set: AUG-CC-PVTZ
    Blend: AUG-CC-PVTZ
  Basis Set: (AUG-CC-PVTZ AUX)
    Blend: AUG-CC-PVTZ-JKFIT
	 Reference Energy          =    -531.4528914175728005 [Eh]
	 Singles Energy            =      -0.0000000000000000 [Eh]
	 Same-Spin Energy          =      -0.5965406126544752 [Eh]
	 Opposite-Spin Energy      =      -1.8208479847684091 [Eh]
	 Correlation Energy        =      -2.4173885974228844 [Eh]
	 Total Energy              =    -533.8702800149957284 [Eh]

	 ================> DF-SCS-MP2 Energies <==================
	-----------------------------------------------------------
	 SCS Same-Spin Scale       =       0.3333333333333333 [-]
	 SCS Opposite-Spin Scale   =       1.2000000000000000 [-]
	 SCS Same-Spin Energy      =      -0.1988468708848251 [Eh]
	 SCS Opposite-Spin Energy  =      -2.1850175817220907 [Eh]
	 SCS Correlation Energy    =      -2.3838644526069159 [Eh]
	 SCS Total Energy          =    -533.8367558701796725 [Eh]
	-----------------------------------------------------------

  Dipole Moment: [D]
     X:     1.5226      Y:    -0.4448      Z:    -0.0405     Total:     1.5868

*** Psi4 exiting successfully. Buy a developer a beer!
