                               Psi4 1.4a2.dev612

  ==> Input File <==

--------------------------------------------------------------------------
#psi4
#
memory 32 gb

molecule  {
0 1
  N        1.4447430     0.9271060    -0.5600120
  N       -0.8646290     2.1728000     0.5033790
  C       -0.6433280    -0.2041590    -0.0552500
  C        0.8343400    -0.1560850    -0.0228830
  C       -1.4414270     0.9434540     0.1762700
  C       -1.2729090    -1.4294320    -0.3272730
  C       -2.8381000     0.7953410     0.1919050
  C        1.5703020    -1.2114420     0.5410850
  C       -2.6593290    -1.5570310    -0.3269880
  C       -3.4429950    -0.4315550    -0.0645950
  C        2.9613910    -1.1706130     0.5101660
  C        3.5885550    -0.0650650    -0.0636080
  C        2.7882770     0.9583460    -0.5692770
  H       -0.6539860    -2.2940070    -0.5598860
  H       -3.4538380     1.6721500     0.3887520
  H        1.0497850    -2.0407580     1.0110860
  H       -3.1218920    -2.5149200    -0.5495680
  H       -4.5281350    -0.5063600    -0.0566640
  H        3.5455497    -2.0960576     0.7201052
  H        0.0235730     2.3183180     0.0298570
  H       -1.4980030     2.9543290     0.3690670
  H        4.6711930     0.0129590    -0.1060480
  H        3.2359550     1.8482630    -1.0089550
units angstrom
no_reorient  #important for SAPT in psi4, default
symmetry c1  #important for SAPT in psi4, default
}

set PROPERTIES_ORIGIN ["COM"]
properties('MP2/aug-cc-pvtz', properties = ['dipole'])
--------------------------------------------------------------------------

    Molecular point group: c1
  Charge       = 0
  Multiplicity = 1
  Basis Set: AUG-CC-PVTZ
    Blend: AUG-CC-PVTZ
  Basis Set: (AUG-CC-PVTZ AUX)
    Blend: AUG-CC-PVTZ-JKFIT

    Orbital Energies [Eh]
    ---------------------

    Doubly Occupied:

       1A    -15.569256     2A    -15.551168     3A    -11.290227
       4A    -11.281625     5A    -11.281006     6A    -11.266095
       7A    -11.243060     8A    -11.242504     9A    -11.239267
      10A    -11.238250    11A    -11.234730    12A    -11.224069
      13A    -11.221325    14A     -1.262823    15A     -1.214121
      16A     -1.128032    17A     -1.088580    18A     -1.061601
      19A     -0.997949    20A     -0.980793    21A     -0.871698
      22A     -0.863147    23A     -0.817094    24A     -0.799930
      25A     -0.717108    26A     -0.690823    27A     -0.684640
      28A     -0.663618    29A     -0.653527    30A     -0.626841
      31A     -0.595442    32A     -0.592640    33A     -0.585768
      34A     -0.570728    35A     -0.551322    36A     -0.536875
      37A     -0.519353    38A     -0.501636    39A     -0.493939
      40A     -0.445413    41A     -0.421920    42A     -0.386979
      43A     -0.368917    44A     -0.319323    45A     -0.286808

  @DF-RHF Final Energy:  -531.44925466657378

   => Energetics <=

    Nuclear Repulsion Energy =            714.5339263667134446
    One-Electron Energy =               -2137.6024242457201581
    Two-Electron Energy =                 891.6192432124330480
    Total Energy =                       -531.4492546665737791
  Basis Set: (AUG-CC-PVTZ AUX)
    Blend: AUG-CC-PVTZ-RI
    Molecular point group: c1

    Geometry (in Angstrom), charge = 0, multiplicity = 1:

       Center              X                  Y                   Z               Mass
    ------------   -----------------  -----------------  -----------------  -----------------
         N            1.440479268083     0.924647327107    -0.556021007733    14.003074004430
         N           -0.868892731917     2.170341327107     0.507369992267    14.003074004430
         C           -0.647591731917    -0.206617672893    -0.051259007733    12.000000000000
         C            0.830076268083    -0.158543672893    -0.018892007733    12.000000000000
         C           -1.445690731917     0.940995327107     0.180260992267    12.000000000000
         C           -1.277172731917    -1.431890672893    -0.323282007733    12.000000000000
         C           -2.842363731917     0.792882327107     0.195895992267    12.000000000000
         C            1.566038268083    -1.213900672893     0.545075992267    12.000000000000
         C           -2.663592731917    -1.559489672893    -0.322997007733    12.000000000000
         C           -3.447258731917    -0.434013672893    -0.060604007733    12.000000000000
         C            2.957127268083    -1.173071672893     0.514156992267    12.000000000000
         C            3.584291268083    -0.067523672893    -0.059617007733    12.000000000000
         C            2.784013268083     0.955887327107    -0.565286007733    12.000000000000
         H           -0.658249731917    -2.296465672893    -0.555895007733     1.007825032230
         H           -3.458101731917     1.669691327107     0.392742992267     1.007825032230
         H            1.045521268083    -2.043216672893     1.015076992267     1.007825032230
         H           -3.126155731917    -2.517378672893    -0.545577007733     1.007825032230
         H           -4.532398731917    -0.508818672893    -0.052673007733     1.007825032230
         H            3.541285968083    -2.098516272893     0.724096192267     1.007825032230
         H            0.019309268083     2.315859327107     0.033847992267     1.007825032230
         H           -1.502266731917     2.951870327107     0.373057992267     1.007825032230
         H            4.666929268083     0.010500327107    -0.102057007733     1.007825032230
         H            3.231691268083     1.845804327107    -1.004964007733     1.007825032230

  Basis Set: AUG-CC-PVTZ
    Blend: AUG-CC-PVTZ
  Basis Set: (AUG-CC-PVTZ AUX)
    Blend: AUG-CC-PVTZ-JKFIT
	 Reference Energy          =    -531.4492546665737791 [Eh]
	 Singles Energy            =      -0.0000000000000000 [Eh]
	 Same-Spin Energy          =      -0.5967363461142219 [Eh]
	 Opposite-Spin Energy      =      -1.8212994895932670 [Eh]
	 Correlation Energy        =      -2.4180358357074887 [Eh]
	 Total Energy              =    -533.8672905022813211 [Eh]

	 ================> DF-SCS-MP2 Energies <==================
	-----------------------------------------------------------
	 SCS Same-Spin Scale       =       0.3333333333333333 [-]
	 SCS Opposite-Spin Scale   =       1.2000000000000000 [-]
	 SCS Same-Spin Energy      =      -0.1989121153714073 [Eh]
	 SCS Opposite-Spin Energy  =      -2.1855593875119204 [Eh]
	 SCS Correlation Energy    =      -2.3844715028833274 [Eh]
	 SCS Total Energy          =    -533.8337261694571225 [Eh]
	-----------------------------------------------------------

  Dipole Moment: [D]
     X:     1.4966      Y:    -0.4598      Z:    -0.1314     Total:     1.5711

*** Psi4 exiting successfully. Buy a developer a beer!
