                               Psi4 1.4a2.dev612

  ==> Input File <==

--------------------------------------------------------------------------
#psi4
#
memory 32 gb

molecule  {
0 1
  N        1.4447430     0.9271060    -0.5600120
  N       -0.8646290     2.1728000     0.5033790
  C       -0.6433280    -0.2041590    -0.0552500
  C        0.8343400    -0.1560850    -0.0228830
  C       -1.4414270     0.9434540     0.1762700
  C       -1.2729090    -1.4294320    -0.3272730
  C       -2.8381000     0.7953410     0.1919050
  C        1.5606790    -1.0746296     0.8078991
  C       -2.6593290    -1.5570310    -0.3269880
  C       -3.4429950    -0.4315550    -0.0645950
  C        2.9613910    -1.1706130     0.5101660
  C        3.5885550    -0.0650650    -0.0636080
  C        2.7882770     0.9583460    -0.5692770
  H       -0.6539860    -2.2940070    -0.5598860
  H       -3.4538380     1.6721500     0.3887520
  H        1.0497850    -2.0407580     1.0110860
  H       -3.1218920    -2.5149200    -0.5495680
  H       -4.5281350    -0.5063600    -0.0566640
  H        3.5458790    -1.9798730     0.9414670
  H        0.0235730     2.3183180     0.0298570
  H       -1.4980030     2.9543290     0.3690670
  H        4.6711930     0.0129590    -0.1060480
  H        3.2359550     1.8482630    -1.0089550
units angstrom
no_reorient  #important for SAPT in psi4, default
symmetry c1  #important for SAPT in psi4, default
}

set PROPERTIES_ORIGIN ["COM"]
properties('MP2/aug-cc-pvtz', properties = ['dipole'])
--------------------------------------------------------------------------

    Molecular point group: c1
  Charge       = 0
  Multiplicity = 1
  Basis Set: AUG-CC-PVTZ
    Blend: AUG-CC-PVTZ
  Basis Set: (AUG-CC-PVTZ AUX)
    Blend: AUG-CC-PVTZ-JKFIT

    Orbital Energies [Eh]
    ---------------------

    Doubly Occupied:

       1A    -15.568292     2A    -15.551683     3A    -11.296602
       4A    -11.285869     5A    -11.281759     6A    -11.271056
       7A    -11.248774     8A    -11.242142     9A    -11.240219
      10A    -11.238808    11A    -11.234928    12A    -11.224453
      13A    -11.221629    14A     -1.262294    15A     -1.214485
      16A     -1.128243    17A     -1.083911    18A     -1.059525
      19A     -0.997465    20A     -0.980283    21A     -0.869901
      22A     -0.861247    23A     -0.817022    24A     -0.800006
      25A     -0.717404    26A     -0.689831    27A     -0.685001
      28A     -0.657901    29A     -0.651013    30A     -0.624650
      31A     -0.594072    32A     -0.592785    33A     -0.584857
      34A     -0.573269    35A     -0.545653    36A     -0.532094
      37A     -0.522212    38A     -0.498975    39A     -0.493480
      40A     -0.445779    41A     -0.421340    42A     -0.383319
      43A     -0.363517    44A     -0.321514    45A     -0.288809

  @DF-RHF Final Energy:  -531.42598673554392

   => Energetics <=

    Nuclear Repulsion Energy =            713.4942547002638094
    One-Electron Energy =               -2135.5043390743931013
    Two-Electron Energy =                 890.5840976385853764
    Total Energy =                       -531.4259867355439155
  Basis Set: (AUG-CC-PVTZ AUX)
    Blend: AUG-CC-PVTZ-RI
    Molecular point group: c1

    Geometry (in Angstrom), charge = 0, multiplicity = 1:

       Center              X                  Y                   Z               Mass
    ------------   -----------------  -----------------  -----------------  -----------------
         N            1.441156250359     0.914306328370    -0.576157264773    14.003074004430
         N           -0.868215749641     2.160000328370     0.487233735227    14.003074004430
         C           -0.646914749641    -0.216958671630    -0.071395264773    12.000000000000
         C            0.830753250359    -0.168884671630    -0.039028264773    12.000000000000
         C           -1.445013749641     0.930654328370     0.160124735227    12.000000000000
         C           -1.276495749641    -1.442231671630    -0.343418264773    12.000000000000
         C           -2.841686749641     0.782541328370     0.175759735227    12.000000000000
         C            1.557092250359    -1.087429271630     0.791753835227    12.000000000000
         C           -2.662915749641    -1.569830671630    -0.343133264773    12.000000000000
         C           -3.446581749641    -0.444354671630    -0.080740264773    12.000000000000
         C            2.957804250359    -1.183412671630     0.494020735227    12.000000000000
         C            3.584968250359    -0.077864671630    -0.079753264773    12.000000000000
         C            2.784690250359     0.945546328370    -0.585422264773    12.000000000000
         H           -0.657572749641    -2.306806671630    -0.576031264773     1.007825032230
         H           -3.457424749641     1.659350328370     0.372606735227     1.007825032230
         H            1.046198250359    -2.053557671630     0.994940735227     1.007825032230
         H           -3.125478749641    -2.527719671630    -0.565713264773     1.007825032230
         H           -4.531721749641    -0.519159671630    -0.072809264773     1.007825032230
         H            3.542292250359    -1.992672671630     0.925321735227     1.007825032230
         H            0.019986250359     2.305518328370     0.013711735227     1.007825032230
         H           -1.501589749641     2.941529328370     0.352921735227     1.007825032230
         H            4.667606250359     0.000159328370    -0.122193264773     1.007825032230
         H            3.232368250359     1.835463328370    -1.025100264773     1.007825032230

  Basis Set: AUG-CC-PVTZ
    Blend: AUG-CC-PVTZ
  Basis Set: (AUG-CC-PVTZ AUX)
    Blend: AUG-CC-PVTZ-JKFIT
	 Reference Energy          =    -531.4259867355439155 [Eh]
	 Singles Energy            =      -0.0000000000000000 [Eh]
	 Same-Spin Energy          =      -0.5972919051978485 [Eh]
	 Opposite-Spin Energy      =      -1.8238819410825213 [Eh]
	 Correlation Energy        =      -2.4211738462803698 [Eh]
	 Total Energy              =    -533.8471605818242551 [Eh]

	 ================> DF-SCS-MP2 Energies <==================
	-----------------------------------------------------------
	 SCS Same-Spin Scale       =       0.3333333333333333 [-]
	 SCS Opposite-Spin Scale   =       1.2000000000000000 [-]
	 SCS Same-Spin Energy      =      -0.1990973017326161 [Eh]
	 SCS Opposite-Spin Energy  =      -2.1886583292990256 [Eh]
	 SCS Correlation Energy    =      -2.3877556310316419 [Eh]
	 SCS Total Energy          =    -533.8137423665755250 [Eh]
	-----------------------------------------------------------

  Dipole Moment: [D]
     X:     1.5118      Y:    -0.3406      Z:    -0.1250     Total:     1.5548

*** Psi4 exiting successfully. Buy a developer a beer!
