                               Psi4 1.4a2.dev612

  ==> Input File <==

--------------------------------------------------------------------------
#psi4
#
memory 32 gb

molecule  {
0 1
  N        1.4447430     0.9271060    -0.5600120
  N       -0.8646290     2.1728000     0.5033790
  C       -0.6433280    -0.2041590    -0.0552500
  C        0.8343400    -0.1560850    -0.0228830
  C       -1.4414270     0.9434540     0.1762700
  C       -1.2751901    -1.4607211    -0.1805904
  C       -2.8381000     0.7953410     0.1919050
  C        1.5703020    -1.2114420     0.5410850
  C       -2.6593290    -1.5570310    -0.3269880
  C       -3.4429950    -0.4315550    -0.0645950
  C        2.9613910    -1.1706130     0.5101660
  C        3.5885550    -0.0650650    -0.0636080
  C        2.7882770     0.9583460    -0.5692770
  H       -0.6539860    -2.2940070    -0.5598860
  H       -3.4538380     1.6721500     0.3887520
  H        1.0497850    -2.0407580     1.0110860
  H       -3.1218920    -2.5149200    -0.5495680
  H       -4.5281350    -0.5063600    -0.0566640
  H        3.5458790    -1.9798730     0.9414670
  H        0.0235730     2.3183180     0.0298570
  H       -1.4980030     2.9543290     0.3690670
  H        4.6711930     0.0129590    -0.1060480
  H        3.2359550     1.8482630    -1.0089550
units angstrom
no_reorient  #important for SAPT in psi4, default
symmetry c1  #important for SAPT in psi4, default
}

set PROPERTIES_ORIGIN ["COM"]
properties('MP2/aug-cc-pvtz', properties = ['dipole'])
--------------------------------------------------------------------------

    Molecular point group: c1
  Charge       = 0
  Multiplicity = 1
  Basis Set: AUG-CC-PVTZ
    Blend: AUG-CC-PVTZ
  Basis Set: (AUG-CC-PVTZ AUX)
    Blend: AUG-CC-PVTZ-JKFIT

    Orbital Energies [Eh]
    ---------------------

    Doubly Occupied:

       1A    -15.568340     2A    -15.551481     3A    -11.289848
       4A    -11.281239     5A    -11.281003     6A    -11.262890
       7A    -11.241977     8A    -11.241137     9A    -11.241011
      10A    -11.238671    11A    -11.236445    12A    -11.225791
      13A    -11.223353    14A     -1.262164    15A     -1.214361
      16A     -1.127865    17A     -1.088404    18A     -1.061372
      19A     -0.997079    20A     -0.980975    21A     -0.871391
      22A     -0.864276    23A     -0.816116    24A     -0.800065
      25A     -0.718283    26A     -0.690390    27A     -0.683531
      28A     -0.663350    29A     -0.652490    30A     -0.627400
      31A     -0.594807    32A     -0.591770    33A     -0.583816
      34A     -0.574264    35A     -0.550855    36A     -0.535175
      37A     -0.520955    38A     -0.499881    39A     -0.492758
      40A     -0.444521    41A     -0.420910    42A     -0.389083
      43A     -0.370130    44A     -0.318869    45A     -0.285614

  @DF-RHF Final Energy:  -531.44645665371445

   => Energetics <=

    Nuclear Repulsion Energy =            714.4930813733338937
    One-Electron Energy =               -2137.5268677184581065
    Two-Electron Energy =                 891.5873296914096500
    Total Energy =                       -531.4464566537144492
  Basis Set: (AUG-CC-PVTZ AUX)
    Blend: AUG-CC-PVTZ-RI
    Molecular point group: c1

    Geometry (in Angstrom), charge = 0, multiplicity = 1:

       Center              X                  Y                   Z               Mass
    ------------   -----------------  -----------------  -----------------  -----------------
         N            1.440638255759     0.926166428531    -0.567681602019    14.003074004430
         N           -0.868733744241     2.171860428531     0.495709397981    14.003074004430
         C           -0.647432744241    -0.205098571469    -0.062919602019    12.000000000000
         C            0.830235255759    -0.157024571469    -0.030552602019    12.000000000000
         C           -1.445531744241     0.942514428531     0.168600397981    12.000000000000
         C           -1.279294844241    -1.461660671469    -0.188260002019    12.000000000000
         C           -2.842204744241     0.794401428531     0.184235397981    12.000000000000
         C            1.566197255759    -1.212381571469     0.533415397981    12.000000000000
         C           -2.663433744241    -1.557970571469    -0.334657602019    12.000000000000
         C           -3.447099744241    -0.432494571469    -0.072264602019    12.000000000000
         C            2.957286255759    -1.171552571469     0.502496397981    12.000000000000
         C            3.584450255759    -0.066004571469    -0.071277602019    12.000000000000
         C            2.784172255759     0.957406428531    -0.576946602019    12.000000000000
         H           -0.658090744241    -2.294946571469    -0.567555602019     1.007825032230
         H           -3.457942744241     1.671210428531     0.381082397981     1.007825032230
         H            1.045680255759    -2.041697571469     1.003416397981     1.007825032230
         H           -3.125996744241    -2.515859571469    -0.557237602019     1.007825032230
         H           -4.532239744241    -0.507299571469    -0.064333602019     1.007825032230
         H            3.541774255759    -1.980812571469     0.933797397981     1.007825032230
         H            0.019468255759     2.317378428531     0.022187397981     1.007825032230
         H           -1.502107744241     2.953389428531     0.361397397981     1.007825032230
         H            4.667088255759     0.012019428531    -0.113717602019     1.007825032230
         H            3.231850255759     1.847323428531    -1.016624602019     1.007825032230

  Basis Set: AUG-CC-PVTZ
    Blend: AUG-CC-PVTZ
  Basis Set: (AUG-CC-PVTZ AUX)
    Blend: AUG-CC-PVTZ-JKFIT
	 Reference Energy          =    -531.4464566537144492 [Eh]
	 Singles Energy            =      -0.0000000000000000 [Eh]
	 Same-Spin Energy          =      -0.5971062626980994 [Eh]
	 Opposite-Spin Energy      =      -1.8220511406120523 [Eh]
	 Correlation Energy        =      -2.4191574033101517 [Eh]
	 Total Energy              =    -533.8656140570245725 [Eh]

	 ================> DF-SCS-MP2 Energies <==================
	-----------------------------------------------------------
	 SCS Same-Spin Scale       =       0.3333333333333333 [-]
	 SCS Opposite-Spin Scale   =       1.2000000000000000 [-]
	 SCS Same-Spin Energy      =      -0.1990354208993665 [Eh]
	 SCS Opposite-Spin Energy  =      -2.1864613687344625 [Eh]
	 SCS Correlation Energy    =      -2.3854967896338288 [Eh]
	 SCS Total Energy          =    -533.8319534433483113 [Eh]
	-----------------------------------------------------------

  Dipole Moment: [D]
     X:     1.4164      Y:    -0.3505      Z:    -0.0670     Total:     1.4607

*** Psi4 exiting successfully. Buy a developer a beer!
