                               Psi4 1.4a2.dev612

  ==> Input File <==

--------------------------------------------------------------------------
#psi4
#
memory 32 gb

molecule  {
0 1
  N        1.4447430     0.9271060    -0.5600120
  N       -0.8646290     2.1728000     0.5033790
  C       -0.6433280    -0.2041590    -0.0552500
  C        0.8343400    -0.1560850    -0.0228830
  C       -1.4414270     0.9434540     0.1762700
  C       -1.2729090    -1.4294320    -0.3272730
  C       -2.8398029     0.8638251    -0.1001687
  C        1.5703020    -1.2114420     0.5410850
  C       -2.6593290    -1.5570310    -0.3269880
  C       -3.4429950    -0.4315550    -0.0645950
  C        2.9613910    -1.1706130     0.5101660
  C        3.5885550    -0.0650650    -0.0636080
  C        2.7882770     0.9583460    -0.5692770
  H       -0.6539860    -2.2940070    -0.5598860
  H       -3.4538380     1.6721500     0.3887520
  H        1.0497850    -2.0407580     1.0110860
  H       -3.1218920    -2.5149200    -0.5495680
  H       -4.5281350    -0.5063600    -0.0566640
  H        3.5458790    -1.9798730     0.9414670
  H        0.0235730     2.3183180     0.0298570
  H       -1.4980030     2.9543290     0.3690670
  H        4.6711930     0.0129590    -0.1060480
  H        3.2359550     1.8482630    -1.0089550
units angstrom
no_reorient  #important for SAPT in psi4, default
symmetry c1  #important for SAPT in psi4, default
}

set PROPERTIES_ORIGIN ["COM"]
properties('MP2/aug-cc-pvtz', properties = ['dipole'])
--------------------------------------------------------------------------

    Molecular point group: c1
  Charge       = 0
  Multiplicity = 1
  Basis Set: AUG-CC-PVTZ
    Blend: AUG-CC-PVTZ
  Basis Set: (AUG-CC-PVTZ AUX)
    Blend: AUG-CC-PVTZ-JKFIT

    Orbital Energies [Eh]
    ---------------------

    Doubly Occupied:

       1A    -15.569638     2A    -15.551820     3A    -11.290626
       4A    -11.286948     5A    -11.282067     6A    -11.264106
       7A    -11.245535     8A    -11.244189     9A    -11.243500
      10A    -11.242719    11A    -11.234873    12A    -11.229485
      13A    -11.221668    14A     -1.263184    15A     -1.213814
      16A     -1.127168    17A     -1.089703    18A     -1.060239
      19A     -0.994769    20A     -0.980094    21A     -0.871063
      22A     -0.864870    23A     -0.816429    24A     -0.797403
      25A     -0.717638    26A     -0.690730    27A     -0.684323
      28A     -0.663206    29A     -0.653416    30A     -0.626346
      31A     -0.596421    32A     -0.593353    33A     -0.580549
      34A     -0.572744    35A     -0.549130    36A     -0.535507
      37A     -0.517818    38A     -0.501253    39A     -0.486743
      40A     -0.438703    41A     -0.422065    42A     -0.389566
      43A     -0.368800    44A     -0.319784    45A     -0.288800

  @DF-RHF Final Energy:  -531.42935362723256

   => Energetics <=

    Nuclear Repulsion Energy =            713.6737120520691633
    One-Electron Energy =               -2135.8405201854111510
    Two-Electron Energy =                 890.7374545061093158
    Total Energy =                       -531.4293536272325582
  Basis Set: (AUG-CC-PVTZ AUX)
    Blend: AUG-CC-PVTZ-RI
    Molecular point group: c1

    Geometry (in Angstrom), charge = 0, multiplicity = 1:

       Center              X                  Y                   Z               Mass
    ------------   -----------------  -----------------  -----------------  -----------------
         N            1.440597461894     0.919127109159    -0.536725937351    14.003074004430
         N           -0.868774538106     2.164821109159     0.526665062649    14.003074004430
         C           -0.647473538106    -0.212137890841    -0.031963937351    12.000000000000
         C            0.830194461894    -0.164063890841     0.000403062649    12.000000000000
         C           -1.445572538106     0.935475109159     0.199556062649    12.000000000000
         C           -1.277054538106    -1.437410890841    -0.303986937351    12.000000000000
         C           -2.843948438106     0.855846209159    -0.076882637351    12.000000000000
         C            1.566156461894    -1.219420890841     0.564371062649    12.000000000000
         C           -2.663474538106    -1.565009890841    -0.303701937351    12.000000000000
         C           -3.447140538106    -0.439533890841    -0.041308937351    12.000000000000
         C            2.957245461894    -1.178591890841     0.533452062649    12.000000000000
         C            3.584409461894    -0.073043890841    -0.040321937351    12.000000000000
         C            2.784131461894     0.950367109159    -0.545990937351    12.000000000000
         H           -0.658131538106    -2.301985890841    -0.536599937351     1.007825032230
         H           -3.457983538106     1.664171109159     0.412038062649     1.007825032230
         H            1.045639461894    -2.048736890841     1.034372062649     1.007825032230
         H           -3.126037538106    -2.522898890841    -0.526281937351     1.007825032230
         H           -4.532280538106    -0.514338890841    -0.033377937351     1.007825032230
         H            3.541733461894    -1.987851890841     0.964753062649     1.007825032230
         H            0.019427461894     2.310339109159     0.053143062649     1.007825032230
         H           -1.502148538106     2.946350109159     0.392353062649     1.007825032230
         H            4.667047461894     0.004980109159    -0.082761937351     1.007825032230
         H            3.231809461894     1.840284109159    -0.985668937351     1.007825032230

  Basis Set: AUG-CC-PVTZ
    Blend: AUG-CC-PVTZ
  Basis Set: (AUG-CC-PVTZ AUX)
    Blend: AUG-CC-PVTZ-JKFIT
	 Reference Energy          =    -531.4293536272325582 [Eh]
	 Singles Energy            =      -0.0000000000000000 [Eh]
	 Same-Spin Energy          =      -0.5973358874456438 [Eh]
	 Opposite-Spin Energy      =      -1.8238772632722626 [Eh]
	 Correlation Energy        =      -2.4212131507179064 [Eh]
	 Total Energy              =    -533.8505667779504620 [Eh]

	 ================> DF-SCS-MP2 Energies <==================
	-----------------------------------------------------------
	 SCS Same-Spin Scale       =       0.3333333333333333 [-]
	 SCS Opposite-Spin Scale   =       1.2000000000000000 [-]
	 SCS Same-Spin Energy      =      -0.1991119624818813 [Eh]
	 SCS Opposite-Spin Energy  =      -2.1886527159267151 [Eh]
	 SCS Correlation Energy    =      -2.3877646784085962 [Eh]
	 SCS Total Energy          =    -533.8171183056412019 [Eh]
	-----------------------------------------------------------

  Dipole Moment: [D]
     X:     1.7491      Y:    -0.6217      Z:     0.1900     Total:     1.8660

*** Psi4 exiting successfully. Buy a developer a beer!
