                               Psi4 1.4a2.dev612

  ==> Input File <==

--------------------------------------------------------------------------
#psi4
#
memory 32 gb

molecule  {
0 1
  N        1.4447430     0.9271060    -0.5600120
  N       -0.8646290     2.1728000     0.5033790
  C       -0.6433280    -0.2041590    -0.0552500
  C        0.8343400    -0.1560850    -0.0228830
  C       -1.4414270     0.9434540     0.1762700
  C       -1.2729090    -1.4294320    -0.3272730
  C       -2.8381000     0.7953410     0.1919050
  C        1.5703020    -1.2114420     0.5410850
  C       -2.6593290    -1.5570310    -0.3269880
  C       -3.4429950    -0.4315550    -0.0645950
  C        2.9613910    -1.1706130     0.5101660
  C        3.5885550    -0.0650650    -0.0636080
  C        2.7882770     0.9583460    -0.5692770
  H       -0.6539860    -2.2940070    -0.5598860
  H       -3.4538380     1.6721500     0.3887520
  H        1.0497850    -2.0407580     1.0110860
  H       -3.1218920    -2.5149200    -0.5495680
  H       -4.5281350    -0.5063600    -0.0566640
  H        3.5458790    -1.9798730     0.9414670
  H        0.0235730     2.3183180     0.0298570
  H       -1.4980030     2.9543290     0.3690670
  H        4.6711930     0.0129590    -0.1060480
  H        3.2359550     1.8482630    -1.0089550
units angstrom
no_reorient  #important for SAPT in psi4, default
symmetry c1  #important for SAPT in psi4, default
}

set PROPERTIES_ORIGIN ["COM"]
properties('MP2/aug-cc-pvtz', properties = ['dipole'])
--------------------------------------------------------------------------

    Molecular point group: c1
  Charge       = 0
  Multiplicity = 1
  Basis Set: AUG-CC-PVTZ
    Blend: AUG-CC-PVTZ
  Basis Set: (AUG-CC-PVTZ AUX)
    Blend: AUG-CC-PVTZ-JKFIT

    Orbital Energies [Eh]
    ---------------------

    Doubly Occupied:

       1A    -15.568850     2A    -15.551057     3A    -11.290076
       4A    -11.281409     5A    -11.280904     6A    -11.263493
       7A    -11.242711     8A    -11.242006     9A    -11.239180
      10A    -11.238200    11A    -11.234575    12A    -11.223967
      13A    -11.221236    14A     -1.262536    15A     -1.214001
      16A     -1.127926    17A     -1.089007    18A     -1.061398
      19A     -0.997805    20A     -0.980666    21A     -0.871592
      22A     -0.864528    23A     -0.816984    24A     -0.800689
      25A     -0.718807    26A     -0.690652    27A     -0.684971
      28A     -0.663436    29A     -0.653313    30A     -0.627216
      31A     -0.595610    32A     -0.592384    33A     -0.586208
      34A     -0.574265    35A     -0.550713    36A     -0.536656
      37A     -0.520104    38A     -0.501451    39A     -0.493802
      40A     -0.445245    41A     -0.420912    42A     -0.389011
      43A     -0.368671    44A     -0.319145    45A     -0.286653

  @DF-RHF Final Energy:  -531.45350054345943

   => Energetics <=

    Nuclear Repulsion Energy =            714.6381719183639234
    One-Electron Energy =               -2137.8153068982192053
    Two-Electron Energy =                 891.7236344363958551
    Total Energy =                       -531.4535005434594268
  Basis Set: (AUG-CC-PVTZ AUX)
    Blend: AUG-CC-PVTZ-RI
    Molecular point group: c1

    Geometry (in Angstrom), charge = 0, multiplicity = 1:

       Center              X                  Y                   Z               Mass
    ------------   -----------------  -----------------  -----------------  -----------------
         N            1.440477316835     0.923958882138    -0.557332673973    14.003074004430
         N           -0.868894683165     2.169652882138     0.506058326027    14.003074004430
         C           -0.647593683165    -0.207306117862    -0.052570673973    12.000000000000
         C            0.830074316835    -0.159232117862    -0.020203673973    12.000000000000
         C           -1.445692683165     0.940306882138     0.178949326027    12.000000000000
         C           -1.277174683165    -1.432579117862    -0.324593673973    12.000000000000
         C           -2.842365683165     0.792193882138     0.194584326027    12.000000000000
         C            1.566036316835    -1.214589117862     0.543764326027    12.000000000000
         C           -2.663594683165    -1.560178117862    -0.324308673973    12.000000000000
         C           -3.447260683165    -0.434702117862    -0.061915673973    12.000000000000
         C            2.957125316835    -1.173760117862     0.512845326027    12.000000000000
         C            3.584289316835    -0.068212117862    -0.060928673973    12.000000000000
         C            2.784011316835     0.955198882138    -0.566597673973    12.000000000000
         H           -0.658251683165    -2.297154117862    -0.557206673973     1.007825032230
         H           -3.458103683165     1.669002882138     0.391431326027     1.007825032230
         H            1.045519316835    -2.043905117862     1.013765326027     1.007825032230
         H           -3.126157683165    -2.518067117862    -0.546888673973     1.007825032230
         H           -4.532400683165    -0.509507117862    -0.053984673973     1.007825032230
         H            3.541613316835    -1.983020117862     0.944146326027     1.007825032230
         H            0.019307316835     2.315170882138     0.032536326027     1.007825032230
         H           -1.502268683165     2.951181882138     0.371746326027     1.007825032230
         H            4.666927316835     0.009811882138    -0.103368673973     1.007825032230
         H            3.231689316835     1.845115882138    -1.006275673973     1.007825032230

  Basis Set: AUG-CC-PVTZ
    Blend: AUG-CC-PVTZ
  Basis Set: (AUG-CC-PVTZ AUX)
    Blend: AUG-CC-PVTZ-JKFIT
	 Reference Energy          =    -531.4535005434594268 [Eh]
	 Singles Energy            =      -0.0000000000000000 [Eh]
	 Same-Spin Energy          =      -0.5965103833085094 [Eh]
	 Opposite-Spin Energy      =      -1.8207739762411732 [Eh]
	 Correlation Energy        =      -2.4172843595496825 [Eh]
	 Total Energy              =    -533.8707849030090529 [Eh]

	 ================> DF-SCS-MP2 Energies <==================
	-----------------------------------------------------------
	 SCS Same-Spin Scale       =       0.3333333333333333 [-]
	 SCS Opposite-Spin Scale   =       1.2000000000000000 [-]
	 SCS Same-Spin Energy      =      -0.1988367944361698 [Eh]
	 SCS Opposite-Spin Energy  =      -2.1849287714894077 [Eh]
	 SCS Correlation Energy    =      -2.3837655659255774 [Eh]
	 SCS Total Energy          =    -533.8372661093850411 [Eh]
	-----------------------------------------------------------

  Dipole Moment: [D]
     X:     1.5266      Y:    -0.4205      Z:     0.0139     Total:     1.5835

*** Psi4 exiting successfully. Buy a developer a beer!
