                               Psi4 1.4a2.dev612

  ==> Input File <==

--------------------------------------------------------------------------
#psi4
#
memory 32 gb

molecule  {
0 1
  N        1.4447430     0.9271060    -0.5600120
  N       -0.8646290     2.1728000     0.5033790
  C       -0.6433280    -0.2041590    -0.0552500
  C        0.8343400    -0.1560850    -0.0228830
  C       -1.4414270     0.9434540     0.1762700
  C       -1.2729090    -1.4294320    -0.3272730
  C       -2.8381000     0.7953410     0.1919050
  C        1.5703020    -1.2114420     0.5410850
  C       -2.6593290    -1.5570310    -0.3269880
  C       -3.4429950    -0.4315550    -0.0645950
  C        2.9613910    -1.1706130     0.5101660
  C        3.5885550    -0.0650650    -0.0636080
  C        2.7882770     0.9583460    -0.5692770
  H       -0.6539860    -2.2940070    -0.5598860
  H       -3.4538380     1.6721500     0.3887520
  H        1.0497850    -2.0407580     1.0110860
  H       -3.1218920    -2.5149200    -0.5495680
  H       -4.5281350    -0.5063600    -0.0566640
  H        3.5458790    -1.9798730     0.9414670
  H        0.0235730     2.3183180     0.0298570
  H       -1.4980030     2.9543290     0.3690670
  H        4.6711930     0.0129590    -0.1060480
  H        3.2358135     1.8703903    -0.9641179
units angstrom
no_reorient  #important for SAPT in psi4, default
symmetry c1  #important for SAPT in psi4, default
}

set PROPERTIES_ORIGIN ["COM"]
properties('MP2/aug-cc-pvtz', properties = ['dipole'])
--------------------------------------------------------------------------

    Molecular point group: c1
  Charge       = 0
  Multiplicity = 1
  Basis Set: AUG-CC-PVTZ
    Blend: AUG-CC-PVTZ
  Basis Set: (AUG-CC-PVTZ AUX)
    Blend: AUG-CC-PVTZ-JKFIT

    Orbital Energies [Eh]
    ---------------------

    Doubly Occupied:

       1A    -15.568852     2A    -15.551049     3A    -11.290084
       4A    -11.281528     5A    -11.280907     6A    -11.263512
       7A    -11.242757     8A    -11.242018     9A    -11.239185
      10A    -11.238206    11A    -11.234569    12A    -11.223968
      13A    -11.221233    14A     -1.262539    15A     -1.213999
      16A     -1.127927    17A     -1.089024    18A     -1.061389
      19A     -0.997801    20A     -0.980664    21A     -0.871591
      22A     -0.864478    23A     -0.816976    24A     -0.800687
      25A     -0.718744    26A     -0.690674    27A     -0.684948
      28A     -0.663397    29A     -0.653361    30A     -0.627134
      31A     -0.595504    32A     -0.592429    33A     -0.586188
      34A     -0.574138    35A     -0.551289    36A     -0.536574
      37A     -0.519444    38A     -0.501794    39A     -0.493761
      40A     -0.445258    41A     -0.420936    42A     -0.389033
      43A     -0.368497    44A     -0.319167    45A     -0.286709

  @DF-RHF Final Energy:  -531.45332951600096

   => Energetics <=

    Nuclear Repulsion Energy =            714.6383801203340909
    One-Electron Energy =               -2137.8155692577465743
    Two-Electron Energy =                 891.7238596214114068
    Total Energy =                       -531.4533295160009629
  Basis Set: (AUG-CC-PVTZ AUX)
    Blend: AUG-CC-PVTZ-RI
    Molecular point group: c1

    Geometry (in Angstrom), charge = 0, multiplicity = 1:

       Center              X                  Y                   Z               Mass
    ------------   -----------------  -----------------  -----------------  -----------------
         N            1.440478155285     0.923827768132    -0.557598353555    14.003074004430
         N           -0.868893844715     2.169521768132     0.505792646445    14.003074004430
         C           -0.647592844715    -0.207437231868    -0.052836353555    12.000000000000
         C            0.830075155285    -0.159363231868    -0.020469353555    12.000000000000
         C           -1.445691844715     0.940175768132     0.178683646445    12.000000000000
         C           -1.277173844715    -1.432710231868    -0.324859353555    12.000000000000
         C           -2.842364844715     0.792062768132     0.194318646445    12.000000000000
         C            1.566037155285    -1.214720231868     0.543498646445    12.000000000000
         C           -2.663593844715    -1.560309231868    -0.324574353555    12.000000000000
         C           -3.447259844715    -0.434833231868    -0.062181353555    12.000000000000
         C            2.957126155285    -1.173891231868     0.512579646445    12.000000000000
         C            3.584290155285    -0.068343231868    -0.061194353555    12.000000000000
         C            2.784012155285     0.955067768132    -0.566863353555    12.000000000000
         H           -0.658250844715    -2.297285231868    -0.557472353555     1.007825032230
         H           -3.458102844715     1.668871768132     0.391165646445     1.007825032230
         H            1.045520155285    -2.044036231868     1.013499646445     1.007825032230
         H           -3.126156844715    -2.518198231868    -0.547154353555     1.007825032230
         H           -4.532399844715    -0.509638231868    -0.054250353555     1.007825032230
         H            3.541614155285    -1.983151231868     0.943880646445     1.007825032230
         H            0.019308155285     2.315039768132     0.032270646445     1.007825032230
         H           -1.502267844715     2.951050768132     0.371480646445     1.007825032230
         H            4.666928155285     0.009680768132    -0.103634353555     1.007825032230
         H            3.231548655285     1.867112068132    -0.961704253555     1.007825032230

  Basis Set: AUG-CC-PVTZ
    Blend: AUG-CC-PVTZ
  Basis Set: (AUG-CC-PVTZ AUX)
    Blend: AUG-CC-PVTZ-JKFIT
	 Reference Energy          =    -531.4533295160009629 [Eh]
	 Singles Energy            =      -0.0000000000000000 [Eh]
	 Same-Spin Energy          =      -0.5965239821757272 [Eh]
	 Opposite-Spin Energy      =      -1.8207981749634075 [Eh]
	 Correlation Energy        =      -2.4173221571391346 [Eh]
	 Total Energy              =    -533.8706516731400598 [Eh]

	 ================> DF-SCS-MP2 Energies <==================
	-----------------------------------------------------------
	 SCS Same-Spin Scale       =       0.3333333333333333 [-]
	 SCS Opposite-Spin Scale   =       1.2000000000000000 [-]
	 SCS Same-Spin Energy      =      -0.1988413273919091 [Eh]
	 SCS Opposite-Spin Energy  =      -2.1849578099560887 [Eh]
	 SCS Correlation Energy    =      -2.3837991373479976 [Eh]
	 SCS Total Energy          =    -533.8371286533489410 [Eh]
	-----------------------------------------------------------

  Dipole Moment: [D]
     X:     1.5256      Y:    -0.4108      Z:     0.0380     Total:     1.5804

*** Psi4 exiting successfully. Buy a developer a beer!
