                               Psi4 1.4a2.dev612

  ==> Input File <==

--------------------------------------------------------------------------
#psi4
#
memory 32 gb

molecule  {
0 1
  N        1.4447430     0.9271060    -0.5600120
  N       -0.8646290     2.1728000     0.5033790
  C       -0.6433280    -0.2041590    -0.0552500
  C        0.8343400    -0.1560850    -0.0228830
  C       -1.4414270     0.9434540     0.1762700
  C       -1.2729090    -1.4294320    -0.3272730
  C       -2.8381000     0.7953410     0.1919050
  C        1.5703020    -1.2114420     0.5410850
  C       -2.6593290    -1.5570310    -0.3269880
  C       -3.4429950    -0.4315550    -0.0645950
  C        2.9613910    -1.1706130     0.5101660
  C        3.5885550    -0.0650650    -0.0636080
  C        2.7882770     0.9583460    -0.5692770
  H       -0.6539860    -2.2940070    -0.5598860
  H       -3.4538380     1.6721500     0.3887520
  H        1.0482465    -2.1130378     0.8796582
  H       -3.1218920    -2.5149200    -0.5495680
  H       -4.5281350    -0.5063600    -0.0566640
  H        3.5458790    -1.9798730     0.9414670
  H        0.0235730     2.3183180     0.0298570
  H       -1.4980030     2.9543290     0.3690670
  H        4.6711930     0.0129590    -0.1060480
  H        3.2359550     1.8482630    -1.0089550
units angstrom
no_reorient  #important for SAPT in psi4, default
symmetry c1  #important for SAPT in psi4, default
}

set PROPERTIES_ORIGIN ["COM"]
properties('MP2/aug-cc-pvtz', properties = ['dipole'])
--------------------------------------------------------------------------

    Molecular point group: c1
  Charge       = 0
  Multiplicity = 1
  Basis Set: AUG-CC-PVTZ
    Blend: AUG-CC-PVTZ
  Basis Set: (AUG-CC-PVTZ AUX)
    Blend: AUG-CC-PVTZ-JKFIT

    Orbital Energies [Eh]
    ---------------------

    Doubly Occupied:

       1A    -15.568972     2A    -15.551017     3A    -11.290281
       4A    -11.281655     5A    -11.280866     6A    -11.263686
       7A    -11.242973     8A    -11.242822     9A    -11.239376
      10A    -11.238145    11A    -11.234739    12A    -11.224055
      13A    -11.221422    14A     -1.262680    15A     -1.213992
      16A     -1.128005    17A     -1.089046    18A     -1.061453
      19A     -0.997818    20A     -0.980704    21A     -0.871646
      22A     -0.864514    23A     -0.816850    24A     -0.800796
      25A     -0.718879    26A     -0.690207    27A     -0.685034
      28A     -0.663238    29A     -0.653572    30A     -0.626729
      31A     -0.594574    32A     -0.592894    33A     -0.586418
      34A     -0.574594    35A     -0.550481    36A     -0.536021
      37A     -0.521007    38A     -0.500691    39A     -0.494259
      40A     -0.445285    41A     -0.420830    42A     -0.389057
      43A     -0.369202    44A     -0.318757    45A     -0.286670

  @DF-RHF Final Energy:  -531.45211883137904

   => Energetics <=

    Nuclear Repulsion Energy =            714.6190159867780949
    One-Electron Energy =               -2137.7704453018372988
    Two-Electron Energy =                 891.6993104836801649
    Total Energy =                       -531.4521188313790390
  Basis Set: (AUG-CC-PVTZ AUX)
    Blend: AUG-CC-PVTZ-RI
    Molecular point group: c1

    Geometry (in Angstrom), charge = 0, multiplicity = 1:

       Center              X                  Y                   Z               Mass
    ------------   -----------------  -----------------  -----------------  -----------------
         N            1.440486433126     0.924387171814    -0.556553906326    14.003074004430
         N           -0.868885566874     2.170081171814     0.506837093674    14.003074004430
         C           -0.647584566874    -0.206877828186    -0.051791906326    12.000000000000
         C            0.830083433126    -0.158803828186    -0.019424906326    12.000000000000
         C           -1.445683566874     0.940735171814     0.179728093674    12.000000000000
         C           -1.277165566874    -1.432150828186    -0.323814906326    12.000000000000
         C           -2.842356566874     0.792622171814     0.195363093674    12.000000000000
         C            1.566045433126    -1.214160828186     0.544543093674    12.000000000000
         C           -2.663585566874    -1.559749828186    -0.323529906326    12.000000000000
         C           -3.447251566874    -0.434273828186    -0.061136906326    12.000000000000
         C            2.957134433126    -1.173331828186     0.513624093674    12.000000000000
         C            3.584298433126    -0.067783828186    -0.060149906326    12.000000000000
         C            2.784020433126     0.955627171814    -0.565818906326    12.000000000000
         H           -0.658242566874    -2.296725828186    -0.556427906326     1.007825032230
         H           -3.458094566874     1.669431171814     0.392210093674     1.007825032230
         H            1.043989933126    -2.115756628186     0.883116293674     1.007825032230
         H           -3.126148566874    -2.517638828186    -0.546109906326     1.007825032230
         H           -4.532391566874    -0.509078828186    -0.053205906326     1.007825032230
         H            3.541622433126    -1.982591828186     0.944925093674     1.007825032230
         H            0.019316433126     2.315599171814     0.033315093674     1.007825032230
         H           -1.502259566874     2.951610171814     0.372525093674     1.007825032230
         H            4.666936433126     0.010240171814    -0.102589906326     1.007825032230
         H            3.231698433126     1.845544171814    -1.005496906326     1.007825032230

  Basis Set: AUG-CC-PVTZ
    Blend: AUG-CC-PVTZ
  Basis Set: (AUG-CC-PVTZ AUX)
    Blend: AUG-CC-PVTZ-JKFIT
	 Reference Energy          =    -531.4521188313790390 [Eh]
	 Singles Energy            =      -0.0000000000000000 [Eh]
	 Same-Spin Energy          =      -0.5965886380576426 [Eh]
	 Opposite-Spin Energy      =      -1.8209475024655042 [Eh]
	 Correlation Energy        =      -2.4175361405231470 [Eh]
	 Total Energy              =    -533.8696549719021505 [Eh]

	 ================> DF-SCS-MP2 Energies <==================
	-----------------------------------------------------------
	 SCS Same-Spin Scale       =       0.3333333333333333 [-]
	 SCS Opposite-Spin Scale   =       1.2000000000000000 [-]
	 SCS Same-Spin Energy      =      -0.1988628793525475 [Eh]
	 SCS Opposite-Spin Energy  =      -2.1851370029586050 [Eh]
	 SCS Correlation Energy    =      -2.3839998823111523 [Eh]
	 SCS Total Energy          =    -533.8361187136902117 [Eh]
	-----------------------------------------------------------

  Dipole Moment: [D]
     X:     1.5359      Y:    -0.4463      Z:    -0.0634     Total:     1.6006

*** Psi4 exiting successfully. Buy a developer a beer!
