                               Psi4 1.4a2.dev612

  ==> Input File <==

--------------------------------------------------------------------------
#psi4
#
memory 32 gb

molecule  {
0 1
  N        1.4447430     0.9271060    -0.5600120
  N       -0.8646290     2.1728000     0.5033790
  C       -0.6433280    -0.2041590    -0.0552500
  C        0.8343400    -0.1560850    -0.0228830
  C       -1.4414270     0.9434540     0.1762700
  C       -1.2729090    -1.4294320    -0.3272730
  C       -2.8381000     0.7953410     0.1919050
  C        1.5703020    -1.2114420     0.5410850
  C       -2.6593290    -1.5570310    -0.3269880
  C       -3.4429950    -0.4315550    -0.0645950
  C        2.9613910    -1.1706130     0.5101660
  C        3.5885550    -0.0650650    -0.0636080
  C        2.7882770     0.9583460    -0.5692770
  H       -0.6539860    -2.2940070    -0.5598860
  H       -3.4538380     1.6721500     0.3887520
  H        1.0497850    -2.0407580     1.0110860
  H       -3.1218920    -2.5149200    -0.5495680
  H       -4.5281350    -0.5063600    -0.0566640
  H        3.5458790    -1.9798730     0.9414670
  H        0.0235730     2.3183180     0.0298570
  H       -1.4980030     2.9543290     0.3690670
  H        4.6711930     0.0129590    -0.1060480
  H        3.2352477     1.9588993    -0.7847696
units angstrom
no_reorient  #important for SAPT in psi4, default
symmetry c1  #important for SAPT in psi4, default
}

set PROPERTIES_ORIGIN ["COM"]
properties('MP2/aug-cc-pvtz', properties = ['dipole'])
--------------------------------------------------------------------------

    Molecular point group: c1
  Charge       = 0
  Multiplicity = 1
  Basis Set: AUG-CC-PVTZ
    Blend: AUG-CC-PVTZ
  Basis Set: (AUG-CC-PVTZ AUX)
    Blend: AUG-CC-PVTZ-JKFIT

    Orbital Energies [Eh]
    ---------------------

    Doubly Occupied:

       1A    -15.569193     2A    -15.551116     3A    -11.290373
       4A    -11.284128     5A    -11.281029     6A    -11.263773
       7A    -11.243333     8A    -11.242447     9A    -11.239320
      10A    -11.238326    11A    -11.234671    12A    -11.224068
      13A    -11.221321    14A     -1.262734    15A     -1.214090
      16A     -1.128025    17A     -1.089360    18A     -1.061211
      19A     -0.997722    20A     -0.980689    21A     -0.871668
      22A     -0.863341    23A     -0.816605    24A     -0.800611
      25A     -0.717444    26A     -0.690724    27A     -0.684839
      28A     -0.662800    29A     -0.653642    30A     -0.625457
      31A     -0.594426    32A     -0.592610    33A     -0.586168
      34A     -0.573625    35A     -0.553430    36A     -0.536033
      37A     -0.516391    38A     -0.502854    39A     -0.493196
      40A     -0.445410    41A     -0.421203    42A     -0.389322
      43A     -0.367277    44A     -0.319305    45A     -0.287023

  @DF-RHF Final Energy:  -531.44902703995547

   => Energetics <=

    Nuclear Repulsion Energy =            714.5516657947903241
    One-Electron Energy =               -2137.6367235317025006
    Two-Electron Energy =                 891.6360306969567091
    Total Energy =                       -531.4490270399554674
  Basis Set: (AUG-CC-PVTZ AUX)
    Blend: AUG-CC-PVTZ-RI
    Molecular point group: c1

    Geometry (in Angstrom), charge = 0, multiplicity = 1:

       Center              X                  Y                   Z               Mass
    ------------   -----------------  -----------------  -----------------  -----------------
         N            1.440481507899     0.923303313293    -0.558661071288    14.003074004430
         N           -0.868890492101     2.168997313293     0.504729928712    14.003074004430
         C           -0.647589492101    -0.207961686707    -0.053899071288    12.000000000000
         C            0.830078507899    -0.159887686707    -0.021532071288    12.000000000000
         C           -1.445688492101     0.939651313293     0.177620928712    12.000000000000
         C           -1.277170492101    -1.433234686707    -0.325922071288    12.000000000000
         C           -2.842361492101     0.791538313293     0.193255928712    12.000000000000
         C            1.566040507899    -1.215244686707     0.542435928712    12.000000000000
         C           -2.663590492101    -1.560833686707    -0.325637071288    12.000000000000
         C           -3.447256492101    -0.435357686707    -0.063244071288    12.000000000000
         C            2.957129507899    -1.174415686707     0.511516928712    12.000000000000
         C            3.584293507899    -0.068867686707    -0.062257071288    12.000000000000
         C            2.784015507899     0.954543313293    -0.567926071288    12.000000000000
         H           -0.658247492101    -2.297809686707    -0.558535071288     1.007825032230
         H           -3.458099492101     1.668347313293     0.390102928712     1.007825032230
         H            1.045523507899    -2.044560686707     1.012436928712     1.007825032230
         H           -3.126153492101    -2.518722686707    -0.548217071288     1.007825032230
         H           -4.532396492101    -0.510162686707    -0.055313071288     1.007825032230
         H            3.541617507899    -1.983675686707     0.942817928712     1.007825032230
         H            0.019311507899     2.314515313293     0.031207928712     1.007825032230
         H           -1.502264492101     2.950526313293     0.370417928712     1.007825032230
         H            4.666931507899     0.009156313293    -0.104697071288     1.007825032230
         H            3.230986207899     1.955096613293    -0.783418671288     1.007825032230

  Basis Set: AUG-CC-PVTZ
    Blend: AUG-CC-PVTZ
  Basis Set: (AUG-CC-PVTZ AUX)
    Blend: AUG-CC-PVTZ-JKFIT
	 Reference Energy          =    -531.4490270399554674 [Eh]
	 Singles Energy            =      -0.0000000000000000 [Eh]
	 Same-Spin Energy          =      -0.5967922780668427 [Eh]
	 Opposite-Spin Energy      =      -1.8213797266165082 [Eh]
	 Correlation Energy        =      -2.4181720046833508 [Eh]
	 Total Energy              =    -533.8671990446388236 [Eh]

	 ================> DF-SCS-MP2 Energies <==================
	-----------------------------------------------------------
	 SCS Same-Spin Scale       =       0.3333333333333333 [-]
	 SCS Opposite-Spin Scale   =       1.2000000000000000 [-]
	 SCS Same-Spin Energy      =      -0.1989307593556142 [Eh]
	 SCS Opposite-Spin Energy  =      -2.1856556719398097 [Eh]
	 SCS Correlation Energy    =      -2.3845864312954239 [Eh]
	 SCS Total Energy          =    -533.8336134712509420 [Eh]
	-----------------------------------------------------------

  Dipole Moment: [D]
     X:     1.4932      Y:    -0.4041      Z:     0.1475     Total:     1.5539

*** Psi4 exiting successfully. Buy a developer a beer!
