                               Psi4 1.4a2.dev612

  ==> Input File <==

--------------------------------------------------------------------------
#psi4
#
memory 32 gb

molecule  {
0 1
  N        1.4447430     0.9271060    -0.5600120
  N       -0.8646290     2.1728000     0.5033790
  C       -0.6433280    -0.2041590    -0.0552500
  C        0.8343400    -0.1560850    -0.0228830
  C       -1.4414270     0.9434540     0.1762700
  C       -1.2729090    -1.4294320    -0.3272730
  C       -2.8381000     0.7953410     0.1919050
  C        1.5703020    -1.2114420     0.5410850
  C       -2.6593290    -1.5570310    -0.3269880
  C       -3.4429950    -0.4315550    -0.0645950
  C        2.9613910    -1.1706130     0.5101660
  C        3.5885550    -0.0650650    -0.0636080
  C        2.7882770     0.9583460    -0.5692770
  H       -0.6486717    -2.3409608    -0.3655484
  H       -3.4538380     1.6721500     0.3887520
  H        1.0497850    -2.0407580     1.0110860
  H       -3.1218920    -2.5149200    -0.5495680
  H       -4.5281350    -0.5063600    -0.0566640
  H        3.5458790    -1.9798730     0.9414670
  H        0.0235730     2.3183180     0.0298570
  H       -1.4980030     2.9543290     0.3690670
  H        4.6711930     0.0129590    -0.1060480
  H        3.2359550     1.8482630    -1.0089550
units angstrom
no_reorient  #important for SAPT in psi4, default
symmetry c1  #important for SAPT in psi4, default
}

set PROPERTIES_ORIGIN ["COM"]
properties('MP2/aug-cc-pvtz', properties = ['dipole'])
--------------------------------------------------------------------------

    Molecular point group: c1
  Charge       = 0
  Multiplicity = 1
  Basis Set: AUG-CC-PVTZ
    Blend: AUG-CC-PVTZ
  Basis Set: (AUG-CC-PVTZ AUX)
    Blend: AUG-CC-PVTZ-JKFIT

    Orbital Energies [Eh]
    ---------------------

    Doubly Occupied:

       1A    -15.568906     2A    -15.551148     3A    -11.290457
       4A    -11.281461     5A    -11.281097     6A    -11.263624
       7A    -11.242658     8A    -11.242249     9A    -11.240940
      10A    -11.238366    11A    -11.235044    12A    -11.224240
      13A    -11.221540    14A     -1.262634    15A     -1.214144
      16A     -1.128020    17A     -1.089104    18A     -1.061605
      19A     -0.997496    20A     -0.980842    21A     -0.871668
      22A     -0.864810    23A     -0.816049    24A     -0.800823
      25A     -0.718974    26A     -0.690724    27A     -0.683787
      28A     -0.664075    29A     -0.653282    30A     -0.627370
      31A     -0.594675    32A     -0.591878    33A     -0.585935
      34A     -0.574119    35A     -0.551539    36A     -0.537051
      37A     -0.519114    38A     -0.502325    39A     -0.492987
      40A     -0.445129    41A     -0.420655    42A     -0.388986
      43A     -0.369282    44A     -0.318665    45A     -0.286875

  @DF-RHF Final Energy:  -531.45097723421986

   => Energetics <=

    Nuclear Repulsion Energy =            714.6022358516380564
    One-Electron Energy =               -2137.7337194633400941
    Two-Electron Energy =                 891.6805063774822884
    Total Energy =                       -531.4509772342198630
  Basis Set: (AUG-CC-PVTZ AUX)
    Blend: AUG-CC-PVTZ-RI
    Molecular point group: c1

    Geometry (in Angstrom), charge = 0, multiplicity = 1:

       Center              X                  Y                   Z               Mass
    ------------   -----------------  -----------------  -----------------  -----------------
         N            1.440445827265     0.924237104100    -0.558484209916    14.003074004430
         N           -0.868926172735     2.169931104100     0.504906790084    14.003074004430
         C           -0.647625172735    -0.207027895900    -0.053722209916    12.000000000000
         C            0.830042827265    -0.158953895900    -0.021355209916    12.000000000000
         C           -1.445724172735     0.940585104100     0.177797790084    12.000000000000
         C           -1.277206172735    -1.432300895900    -0.325745209916    12.000000000000
         C           -2.842397172735     0.792472104100     0.193432790084    12.000000000000
         C            1.566004827265    -1.214310895900     0.542612790084    12.000000000000
         C           -2.663626172735    -1.559899895900    -0.325460209916    12.000000000000
         C           -3.447292172735    -0.434423895900    -0.063067209916    12.000000000000
         C            2.957093827265    -1.173481895900     0.511693790084    12.000000000000
         C            3.584257827265    -0.067933895900    -0.062080209916    12.000000000000
         C            2.783979827265     0.955477104100    -0.567749209916    12.000000000000
         H           -0.652968872735    -2.343829695900    -0.364020609916     1.007825032230
         H           -3.458135172735     1.669281104100     0.390279790084     1.007825032230
         H            1.045487827265    -2.043626895900     1.012613790084     1.007825032230
         H           -3.126189172735    -2.517788895900    -0.548040209916     1.007825032230
         H           -4.532432172735    -0.509228895900    -0.055136209916     1.007825032230
         H            3.541581827265    -1.982741895900     0.942994790084     1.007825032230
         H            0.019275827265     2.315449104100     0.031384790084     1.007825032230
         H           -1.502300172735     2.951460104100     0.370594790084     1.007825032230
         H            4.666895827265     0.010090104100    -0.104520209916     1.007825032230
         H            3.231657827265     1.845394104100    -1.007427209916     1.007825032230

  Basis Set: AUG-CC-PVTZ
    Blend: AUG-CC-PVTZ
  Basis Set: (AUG-CC-PVTZ AUX)
    Blend: AUG-CC-PVTZ-JKFIT
	 Reference Energy          =    -531.4509772342198630 [Eh]
	 Singles Energy            =      -0.0000000000000000 [Eh]
	 Same-Spin Energy          =      -0.5966809037415350 [Eh]
	 Opposite-Spin Energy      =      -1.8211441750325541 [Eh]
	 Correlation Energy        =      -2.4178250787740891 [Eh]
	 Total Energy              =    -533.8688023129939211 [Eh]

	 ================> DF-SCS-MP2 Energies <==================
	-----------------------------------------------------------
	 SCS Same-Spin Scale       =       0.3333333333333333 [-]
	 SCS Opposite-Spin Scale   =       1.2000000000000000 [-]
	 SCS Same-Spin Energy      =      -0.1988936345805117 [Eh]
	 SCS Opposite-Spin Energy  =      -2.1853730100390649 [Eh]
	 SCS Correlation Energy    =      -2.3842666446195766 [Eh]
	 SCS Total Energy          =    -533.8352438788394920 [Eh]
	-----------------------------------------------------------

  Dipole Moment: [D]
     X:     1.5129      Y:    -0.4181      Z:     0.1286     Total:     1.5748

*** Psi4 exiting successfully. Buy a developer a beer!
