                               Psi4 1.4a2.dev612

  ==> Input File <==

--------------------------------------------------------------------------
#psi4
#
memory 32 gb

molecule  {
0 1
  N        1.4447430     0.9271060    -0.5600120
  N       -0.8646290     2.1728000     0.5033790
  C       -0.6433280    -0.2041590    -0.0552500
  C        0.8343400    -0.1560850    -0.0228830
  C       -1.4414270     0.9434540     0.1762700
  C       -1.2729090    -1.4294320    -0.3272730
  C       -2.8381000     0.7953410     0.1919050
  C        1.5703020    -1.2114420     0.5410850
  C       -2.6593290    -1.5570310    -0.3269880
  C       -3.4429950    -0.4315550    -0.0645950
  C        2.9613910    -1.1706130     0.5101660
  C        3.5885550    -0.0650650    -0.0636080
  C        2.7882770     0.9583460    -0.5692770
  H       -0.6539860    -2.2940070    -0.5598860
  H       -3.4538380     1.6721500     0.3887520
  H        1.0487594    -2.0889445     0.9234675
  H       -3.1218920    -2.5149200    -0.5495680
  H       -4.5281350    -0.5063600    -0.0566640
  H        3.5458790    -1.9798730     0.9414670
  H        0.0235730     2.3183180     0.0298570
  H       -1.4980030     2.9543290     0.3690670
  H        4.6711930     0.0129590    -0.1060480
  H        3.2359550     1.8482630    -1.0089550
units angstrom
no_reorient  #important for SAPT in psi4, default
symmetry c1  #important for SAPT in psi4, default
}

set PROPERTIES_ORIGIN ["COM"]
properties('MP2/aug-cc-pvtz', properties = ['dipole'])
--------------------------------------------------------------------------

    Molecular point group: c1
  Charge       = 0
  Multiplicity = 1
  Basis Set: AUG-CC-PVTZ
    Blend: AUG-CC-PVTZ
  Basis Set: (AUG-CC-PVTZ AUX)
    Blend: AUG-CC-PVTZ-JKFIT

    Orbital Energies [Eh]
    ---------------------

    Doubly Occupied:

       1A    -15.568915     2A    -15.551024     3A    -11.290173
       4A    -11.281527     5A    -11.280872     6A    -11.263590
       7A    -11.242776     8A    -11.242464     9A    -11.239312
      10A    -11.238161    11A    -11.234687    12A    -11.224028
      13A    -11.221366    14A     -1.262609    15A     -1.213988
      16A     -1.127981    17A     -1.089041    18A     -1.061450
      19A     -0.997822    20A     -0.980698    21A     -0.871658
      22A     -0.864572    23A     -0.816913    24A     -0.800756
      25A     -0.718898    26A     -0.690403    27A     -0.685012
      28A     -0.663424    29A     -0.653534    30A     -0.627010
      31A     -0.594995    32A     -0.592736    33A     -0.586354
      34A     -0.574474    35A     -0.550495    36A     -0.536397
      37A     -0.520736    38A     -0.500982    39A     -0.494108
      40A     -0.445273    41A     -0.420838    42A     -0.389053
      43A     -0.369064    44A     -0.318891    45A     -0.286660

  @DF-RHF Final Energy:  -531.45291433532861

   => Energetics <=

    Nuclear Repulsion Energy =            714.6348035874380002
    One-Electron Energy =               -2137.8039970701643142
    Two-Electron Energy =                 891.7162791473976995
    Total Energy =                       -531.4529143353286145
  Basis Set: (AUG-CC-PVTZ AUX)
    Blend: AUG-CC-PVTZ-RI
    Molecular point group: c1

    Geometry (in Angstrom), charge = 0, multiplicity = 1:

       Center              X                  Y                   Z               Mass
    ------------   -----------------  -----------------  -----------------  -----------------
         N            1.440483393967     0.924244408391    -0.556813495739    14.003074004430
         N           -0.868888606033     2.169938408391     0.506577504261    14.003074004430
         C           -0.647587606033    -0.207020591609    -0.052051495739    12.000000000000
         C            0.830080393967    -0.158946591609    -0.019684495739    12.000000000000
         C           -1.445686606033     0.940592408391     0.179468504261    12.000000000000
         C           -1.277168606033    -1.432293591609    -0.324074495739    12.000000000000
         C           -2.842359606033     0.792479408391     0.195103504261    12.000000000000
         C            1.566042393967    -1.214303591609     0.544283504261    12.000000000000
         C           -2.663588606033    -1.559892591609    -0.323789495739    12.000000000000
         C           -3.447254606033    -0.434416591609    -0.061396495739    12.000000000000
         C            2.957131393967    -1.173474591609     0.513364504261    12.000000000000
         C            3.584295393967    -0.067926591609    -0.060409495739    12.000000000000
         C            2.784017393967     0.955484408391    -0.566078495739    12.000000000000
         H           -0.658245606033    -2.296868591609    -0.556687495739     1.007825032230
         H           -3.458097606033     1.669288408391     0.391950504261     1.007825032230
         H            1.044499793967    -2.091806091609     0.926666004261     1.007825032230
         H           -3.126151606033    -2.517781591609    -0.546369495739     1.007825032230
         H           -4.532394606033    -0.509221591609    -0.053465495739     1.007825032230
         H            3.541619393967    -1.982734591609     0.944665504261     1.007825032230
         H            0.019313393967     2.315456408391     0.033055504261     1.007825032230
         H           -1.502262606033     2.951467408391     0.372265504261     1.007825032230
         H            4.666933393967     0.010097408391    -0.102849495739     1.007825032230
         H            3.231695393967     1.845401408391    -1.005756495739     1.007825032230

  Basis Set: AUG-CC-PVTZ
    Blend: AUG-CC-PVTZ
  Basis Set: (AUG-CC-PVTZ AUX)
    Blend: AUG-CC-PVTZ-JKFIT
	 Reference Energy          =    -531.4529143353286145 [Eh]
	 Singles Energy            =      -0.0000000000000000 [Eh]
	 Same-Spin Energy          =      -0.5965464508169542 [Eh]
	 Opposite-Spin Energy      =      -1.8208553505983671 [Eh]
	 Correlation Energy        =      -2.4174018014153216 [Eh]
	 Total Energy              =    -533.8703161367438952 [Eh]

	 ================> DF-SCS-MP2 Energies <==================
	-----------------------------------------------------------
	 SCS Same-Spin Scale       =       0.3333333333333333 [-]
	 SCS Opposite-Spin Scale   =       1.2000000000000000 [-]
	 SCS Same-Spin Energy      =      -0.1988488169389847 [Eh]
	 SCS Opposite-Spin Energy  =      -2.1850264207180405 [Eh]
	 SCS Correlation Energy    =      -2.3838752376570254 [Eh]
	 SCS Total Energy          =    -533.8367895729855945 [Eh]
	-----------------------------------------------------------

  Dipole Moment: [D]
     X:     1.5318      Y:    -0.4402      Z:    -0.0364     Total:     1.5942

*** Psi4 exiting successfully. Buy a developer a beer!
