                               Psi4 1.4a2.dev612

  ==> Input File <==

--------------------------------------------------------------------------
#psi4
#
memory 32 gb

molecule  {
0 1
  N        1.4447430     0.9271060    -0.5600120
  N       -0.8646290     2.1728000     0.5033790
  C       -0.6433280    -0.2041590    -0.0552500
  C        0.8343400    -0.1560850    -0.0228830
  C       -1.4414270     0.9434540     0.1762700
  C       -1.2759505    -1.4711508    -0.1316962
  C       -2.8381000     0.7953410     0.1919050
  C        1.5703020    -1.2114420     0.5410850
  C       -2.6593290    -1.5570310    -0.3269880
  C       -3.4429950    -0.4315550    -0.0645950
  C        2.9613910    -1.1706130     0.5101660
  C        3.5885550    -0.0650650    -0.0636080
  C        2.7882770     0.9583460    -0.5692770
  H       -0.6539860    -2.2940070    -0.5598860
  H       -3.4538380     1.6721500     0.3887520
  H        1.0497850    -2.0407580     1.0110860
  H       -3.1218920    -2.5149200    -0.5495680
  H       -4.5281350    -0.5063600    -0.0566640
  H        3.5458790    -1.9798730     0.9414670
  H        0.0235730     2.3183180     0.0298570
  H       -1.4980030     2.9543290     0.3690670
  H        4.6711930     0.0129590    -0.1060480
  H        3.2359550     1.8482630    -1.0089550
units angstrom
no_reorient  #important for SAPT in psi4, default
symmetry c1  #important for SAPT in psi4, default
}

set PROPERTIES_ORIGIN ["COM"]
properties('MP2/aug-cc-pvtz', properties = ['dipole'])
--------------------------------------------------------------------------

    Molecular point group: c1
  Charge       = 0
  Multiplicity = 1
  Basis Set: AUG-CC-PVTZ
    Blend: AUG-CC-PVTZ
  Basis Set: (AUG-CC-PVTZ AUX)
    Blend: AUG-CC-PVTZ-JKFIT

    Orbital Energies [Eh]
    ---------------------

    Doubly Occupied:

       1A    -15.568227     2A    -15.551608     3A    -11.289744
       4A    -11.281288     5A    -11.280863     6A    -11.262666
       7A    -11.242397     8A    -11.241778     9A    -11.240852
      10A    -11.238760    11A    -11.237796    12A    -11.226890
      13A    -11.224934    14A     -1.262058    15A     -1.214485
      16A     -1.127428    17A     -1.088208    18A     -1.061331
      19A     -0.996462    20A     -0.980974    21A     -0.871273
      22A     -0.864145    23A     -0.815707    24A     -0.799498
      25A     -0.717986    26A     -0.690086    27A     -0.682690
      28A     -0.663345    29A     -0.652168    30A     -0.627474
      31A     -0.594475    32A     -0.590936    33A     -0.582518
      34A     -0.574154    35A     -0.550801    36A     -0.534519
      37A     -0.521100    38A     -0.499230    39A     -0.491502
      40A     -0.443955    41A     -0.420921    42A     -0.389079
      43A     -0.370469    44A     -0.318896    45A     -0.285036

  @DF-RHF Final Energy:  -531.44077155905813

   => Energetics <=

    Nuclear Repulsion Energy =            714.3285781366872698
    One-Electron Energy =               -2137.1972771115720207
    Two-Electron Energy =                 891.4279274158267299
    Total Energy =                       -531.4407715590581347
  Basis Set: (AUG-CC-PVTZ AUX)
    Blend: AUG-CC-PVTZ-RI
    Molecular point group: c1

    Geometry (in Angstrom), charge = 0, multiplicity = 1:

       Center              X                  Y                   Z               Mass
    ------------   -----------------  -----------------  -----------------  -----------------
         N            1.440691904418     0.926902277328    -0.571131244701    14.003074004430
         N           -0.868680095582     2.172596277328     0.492259755299    14.003074004430
         C           -0.647379095582    -0.204362722672    -0.066369244701    12.000000000000
         C            0.830288904418    -0.156288722672    -0.034002244701    12.000000000000
         C           -1.445478095582     0.943250277328     0.165150755299    12.000000000000
         C           -1.280001595582    -1.471354522672    -0.142815444701    12.000000000000
         C           -2.842151095582     0.795137277328     0.180785755299    12.000000000000
         C            1.566250904418    -1.211645722672     0.529965755299    12.000000000000
         C           -2.663380095582    -1.557234722672    -0.338107244701    12.000000000000
         C           -3.447046095582    -0.431758722672    -0.075714244701    12.000000000000
         C            2.957339904418    -1.170816722672     0.499046755299    12.000000000000
         C            3.584503904418    -0.065268722672    -0.074727244701    12.000000000000
         C            2.784225904418     0.958142277328    -0.580396244701    12.000000000000
         H           -0.658037095582    -2.294210722672    -0.571005244701     1.007825032230
         H           -3.457889095582     1.671946277328     0.377632755299     1.007825032230
         H            1.045733904418    -2.040961722672     0.999966755299     1.007825032230
         H           -3.125943095582    -2.515123722672    -0.560687244701     1.007825032230
         H           -4.532186095582    -0.506563722672    -0.067783244701     1.007825032230
         H            3.541827904418    -1.980076722672     0.930347755299     1.007825032230
         H            0.019521904418     2.318114277328     0.018737755299     1.007825032230
         H           -1.502054095582     2.954125277328     0.357947755299     1.007825032230
         H            4.667141904418     0.012755277328    -0.117167244701     1.007825032230
         H            3.231903904418     1.848059277328    -1.020074244701     1.007825032230

  Basis Set: AUG-CC-PVTZ
    Blend: AUG-CC-PVTZ
  Basis Set: (AUG-CC-PVTZ AUX)
    Blend: AUG-CC-PVTZ-JKFIT
	 Reference Energy          =    -531.4407715590581347 [Eh]
	 Singles Energy            =      -0.0000000000000000 [Eh]
	 Same-Spin Energy          =      -0.5975110407176676 [Eh]
	 Opposite-Spin Energy      =      -1.8230260504271991 [Eh]
	 Correlation Energy        =      -2.4205370911448667 [Eh]
	 Total Energy              =    -533.8613086502030001 [Eh]

	 ================> DF-SCS-MP2 Energies <==================
	-----------------------------------------------------------
	 SCS Same-Spin Scale       =       0.3333333333333333 [-]
	 SCS Opposite-Spin Scale   =       1.2000000000000000 [-]
	 SCS Same-Spin Energy      =      -0.1991703469058892 [Eh]
	 SCS Opposite-Spin Energy  =      -2.1876312605126387 [Eh]
	 SCS Correlation Energy    =      -2.3868016074185281 [Eh]
	 SCS Total Energy          =    -533.8275731664766681 [Eh]
	-----------------------------------------------------------

  Dipole Moment: [D]
     X:     1.3693      Y:    -0.3091      Z:    -0.0918     Total:     1.4068

*** Psi4 exiting successfully. Buy a developer a beer!
