                               Psi4 1.4a2.dev612

  ==> Input File <==

--------------------------------------------------------------------------
#psi4
#
memory 32 gb

molecule  {
0 1
  N        1.4447430     0.9271060    -0.5600120
  N       -0.8646290     2.1728000     0.5033790
  C       -0.6433280    -0.2041590    -0.0552500
  C        0.8343400    -0.1560850    -0.0228830
  C       -1.4414270     0.9434540     0.1762700
  C       -1.2729090    -1.4294320    -0.3272730
  C       -2.8381000     0.7953410     0.1919050
  C        1.5703020    -1.2114420     0.5410850
  C       -2.6593290    -1.5570310    -0.3269880
  C       -3.4429950    -0.4315550    -0.0645950
  C        2.9613910    -1.1706130     0.5101660
  C        3.5885550    -0.0650650    -0.0636080
  C        2.7882770     0.9583460    -0.5692770
  H       -0.6473431    -2.3526993    -0.3169640
  H       -3.4538380     1.6721500     0.3887520
  H        1.0497850    -2.0407580     1.0110860
  H       -3.1218920    -2.5149200    -0.5495680
  H       -4.5281350    -0.5063600    -0.0566640
  H        3.5458790    -1.9798730     0.9414670
  H        0.0235730     2.3183180     0.0298570
  H       -1.4980030     2.9543290     0.3690670
  H        4.6711930     0.0129590    -0.1060480
  H        3.2359550     1.8482630    -1.0089550
units angstrom
no_reorient  #important for SAPT in psi4, default
symmetry c1  #important for SAPT in psi4, default
}

set PROPERTIES_ORIGIN ["COM"]
properties('MP2/aug-cc-pvtz', properties = ['dipole'])
--------------------------------------------------------------------------

    Molecular point group: c1
  Charge       = 0
  Multiplicity = 1
  Basis Set: AUG-CC-PVTZ
    Blend: AUG-CC-PVTZ
  Basis Set: (AUG-CC-PVTZ AUX)
    Blend: AUG-CC-PVTZ-JKFIT

    Orbital Energies [Eh]
    ---------------------

    Doubly Occupied:

       1A    -15.568927     2A    -15.551191     3A    -11.290537
       4A    -11.281457     5A    -11.281183     6A    -11.263631
       7A    -11.242644     8A    -11.242296     9A    -11.241855
      10A    -11.238448    11A    -11.235258    12A    -11.224424
      13A    -11.221729    14A     -1.262656    15A     -1.214212
      16A     -1.128046    17A     -1.089113    18A     -1.061662
      19A     -0.997325    20A     -0.980917    21A     -0.871640
      22A     -0.864860    23A     -0.815559    24A     -0.800878
      25A     -0.718965    26A     -0.690758    27A     -0.683137
      28A     -0.664210    29A     -0.653245    30A     -0.627426
      31A     -0.594595    32A     -0.591621    33A     -0.585368
      34A     -0.574020    35A     -0.551726    36A     -0.537117
      37A     -0.518951    38A     -0.502424    39A     -0.492563
      40A     -0.444931    41A     -0.420573    42A     -0.388965
      43A     -0.369410    44A     -0.318510    45A     -0.286960

  @DF-RHF Final Energy:  -531.44937497435296

   => Energetics <=

    Nuclear Repulsion Energy =            714.5704834505794452
    One-Electron Energy =               -2137.6678700851803114
    Two-Electron Energy =                 891.6480116602477892
    Total Energy =                       -531.4493749743529634
  Basis Set: (AUG-CC-PVTZ AUX)
    Blend: AUG-CC-PVTZ-RI
    Molecular point group: c1

    Geometry (in Angstrom), charge = 0, multiplicity = 1:

       Center              X                  Y                   Z               Mass
    ------------   -----------------  -----------------  -----------------  -----------------
         N            1.440437954724     0.924306659887    -0.558772093902    14.003074004430
         N           -0.868934045276     2.170000659887     0.504618906098    14.003074004430
         C           -0.647633045276    -0.206958340113    -0.054010093902    12.000000000000
         C            0.830034954724    -0.158884340113    -0.021643093902    12.000000000000
         C           -1.445732045276     0.940654659887     0.177509906098    12.000000000000
         C           -1.277214045276    -1.432231340113    -0.326033093902    12.000000000000
         C           -2.842405045276     0.792541659887     0.193144906098    12.000000000000
         C            1.565996954724    -1.214241340113     0.542324906098    12.000000000000
         C           -2.663634045276    -1.559830340113    -0.325748093902    12.000000000000
         C           -3.447300045276    -0.434354340113    -0.063355093902    12.000000000000
         C            2.957085954724    -1.173412340113     0.511405906098    12.000000000000
         C            3.584249954724    -0.067864340113    -0.062368093902    12.000000000000
         C            2.783971954724     0.955546659887    -0.568037093902    12.000000000000
         H           -0.651648145276    -2.355498640113    -0.315724093902     1.007825032230
         H           -3.458143045276     1.669350659887     0.389991906098     1.007825032230
         H            1.045479954724    -2.043557340113     1.012325906098     1.007825032230
         H           -3.126197045276    -2.517719340113    -0.548328093902     1.007825032230
         H           -4.532440045276    -0.509159340113    -0.055424093902     1.007825032230
         H            3.541573954724    -1.982672340113     0.942706906098     1.007825032230
         H            0.019267954724     2.315518659887     0.031096906098     1.007825032230
         H           -1.502308045276     2.951529659887     0.370306906098     1.007825032230
         H            4.666887954724     0.010159659887    -0.104808093902     1.007825032230
         H            3.231649954724     1.845463659887    -1.007715093902     1.007825032230

  Basis Set: AUG-CC-PVTZ
    Blend: AUG-CC-PVTZ
  Basis Set: (AUG-CC-PVTZ AUX)
    Blend: AUG-CC-PVTZ-JKFIT
	 Reference Energy          =    -531.4493749743529634 [Eh]
	 Singles Energy            =      -0.0000000000000000 [Eh]
	 Same-Spin Energy          =      -0.5967872227929540 [Eh]
	 Opposite-Spin Energy      =      -1.8213745185122712 [Eh]
	 Correlation Energy        =      -2.4181617413052252 [Eh]
	 Total Energy              =    -533.8675367156581615 [Eh]

	 ================> DF-SCS-MP2 Energies <==================
	-----------------------------------------------------------
	 SCS Same-Spin Scale       =       0.3333333333333333 [-]
	 SCS Opposite-Spin Scale   =       1.2000000000000000 [-]
	 SCS Same-Spin Energy      =      -0.1989290742643180 [Eh]
	 SCS Opposite-Spin Energy  =      -2.1856494222147251 [Eh]
	 SCS Correlation Energy    =      -2.3845784964790431 [Eh]
	 SCS Total Energy          =    -533.8339534708320571 [Eh]
	-----------------------------------------------------------

  Dipole Moment: [D]
     X:     1.5035      Y:    -0.4097      Z:     0.1580     Total:     1.5663

*** Psi4 exiting successfully. Buy a developer a beer!
