                               Psi4 1.4a2.dev612

  ==> Input File <==

--------------------------------------------------------------------------
#psi4
#
memory 32 gb

molecule  {
0 1
  N        1.4447430     0.9271060    -0.5600120
  N       -0.8646290     2.1728000     0.5033790
  C       -0.6433280    -0.2041590    -0.0552500
  C        0.8343400    -0.1560850    -0.0228830
  C       -1.4414270     0.9434540     0.1762700
  C       -1.2744297    -1.4502914    -0.2294846
  C       -2.8381000     0.7953410     0.1919050
  C        1.5703020    -1.2114420     0.5410850
  C       -2.6593290    -1.5570310    -0.3269880
  C       -3.4429950    -0.4315550    -0.0645950
  C        2.9613910    -1.1706130     0.5101660
  C        3.5885550    -0.0650650    -0.0636080
  C        2.7882770     0.9583460    -0.5692770
  H       -0.6539860    -2.2940070    -0.5598860
  H       -3.4538380     1.6721500     0.3887520
  H        1.0497850    -2.0407580     1.0110860
  H       -3.1218920    -2.5149200    -0.5495680
  H       -4.5281350    -0.5063600    -0.0566640
  H        3.5458790    -1.9798730     0.9414670
  H        0.0235730     2.3183180     0.0298570
  H       -1.4980030     2.9543290     0.3690670
  H        4.6711930     0.0129590    -0.1060480
  H        3.2359550     1.8482630    -1.0089550
units angstrom
no_reorient  #important for SAPT in psi4, default
symmetry c1  #important for SAPT in psi4, default
}

set PROPERTIES_ORIGIN ["COM"]
properties('MP2/aug-cc-pvtz', properties = ['dipole'])
--------------------------------------------------------------------------

    Molecular point group: c1
  Charge       = 0
  Multiplicity = 1
  Basis Set: AUG-CC-PVTZ
    Blend: AUG-CC-PVTZ
  Basis Set: (AUG-CC-PVTZ AUX)
    Blend: AUG-CC-PVTZ-JKFIT

    Orbital Energies [Eh]
    ---------------------

    Doubly Occupied:

       1A    -15.568483     2A    -15.551349     3A    -11.289937
       4A    -11.281162     5A    -11.281141     6A    -11.263102
       7A    -11.242199     8A    -11.241423     9A    -11.239997
      10A    -11.238552    11A    -11.235447    12A    -11.224941
      13A    -11.222203    14A     -1.262279    15A     -1.214241
      16A     -1.128099    17A     -1.088602    18A     -1.061397
      19A     -0.997505    20A     -0.980929    21A     -0.871483
      22A     -0.864383    23A     -0.816474    24A     -0.800463
      25A     -0.718533    26A     -0.690591    27A     -0.684220
      28A     -0.663367    29A     -0.652795    30A     -0.627330
      31A     -0.595188    32A     -0.592223    33A     -0.584893
      34A     -0.574312    35A     -0.550861    36A     -0.535748
      37A     -0.520743    38A     -0.500508    39A     -0.493484
      40A     -0.444926    41A     -0.420906    42A     -0.389071
      43A     -0.369721    44A     -0.318905    45A     -0.286083

  @DF-RHF Final Energy:  -531.45045777993744

   => Energetics <=

    Nuclear Repulsion Energy =            714.6002311997126526
    One-Electron Energy =               -2137.7409803964314960
    Two-Electron Energy =                 891.6902914167814060
    Total Energy =                       -531.4504577799374374
  Basis Set: (AUG-CC-PVTZ AUX)
    Blend: AUG-CC-PVTZ-RI
    Molecular point group: c1

    Geometry (in Angstrom), charge = 0, multiplicity = 1:

       Center              X                  Y                   Z               Mass
    ------------   -----------------  -----------------  -----------------  -----------------
         N            1.440584607099     0.925430579733    -0.564231959337    14.003074004430
         N           -0.868787392901     2.171124579733     0.499159040663    14.003074004430
         C           -0.647486392901    -0.205834420267    -0.059469959337    12.000000000000
         C            0.830181607099    -0.157760420267    -0.027102959337    12.000000000000
         C           -1.445585392901     0.941778579733     0.172050040663    12.000000000000
         C           -1.278588092901    -1.451966820267    -0.233704559337    12.000000000000
         C           -2.842258392901     0.793665579733     0.187685040663    12.000000000000
         C            1.566143607099    -1.213117420267     0.536865040663    12.000000000000
         C           -2.663487392901    -1.558706420267    -0.331207959337    12.000000000000
         C           -3.447153392901    -0.433230420267    -0.068814959337    12.000000000000
         C            2.957232607099    -1.172288420267     0.505946040663    12.000000000000
         C            3.584396607099    -0.066740420267    -0.067827959337    12.000000000000
         C            2.784118607099     0.956670579733    -0.573496959337    12.000000000000
         H           -0.658144392901    -2.295682420267    -0.564105959337     1.007825032230
         H           -3.457996392901     1.670474579733     0.384532040663     1.007825032230
         H            1.045626607099    -2.042433420267     1.006866040663     1.007825032230
         H           -3.126050392901    -2.516595420267    -0.553787959337     1.007825032230
         H           -4.532293392901    -0.508035420267    -0.060883959337     1.007825032230
         H            3.541720607099    -1.981548420267     0.937247040663     1.007825032230
         H            0.019414607099     2.316642579733     0.025637040663     1.007825032230
         H           -1.502161392901     2.952653579733     0.364847040663     1.007825032230
         H            4.667034607099     0.011283579733    -0.110267959337     1.007825032230
         H            3.231796607099     1.846587579733    -1.013174959337     1.007825032230

  Basis Set: AUG-CC-PVTZ
    Blend: AUG-CC-PVTZ
  Basis Set: (AUG-CC-PVTZ AUX)
    Blend: AUG-CC-PVTZ-JKFIT
	 Reference Energy          =    -531.4504577799374374 [Eh]
	 Singles Energy            =      -0.0000000000000000 [Eh]
	 Same-Spin Energy          =      -0.5968013038977230 [Eh]
	 Opposite-Spin Energy      =      -1.8213573119625497 [Eh]
	 Correlation Energy        =      -2.4181586158602726 [Eh]
	 Total Energy              =    -533.8686163957977442 [Eh]

	 ================> DF-SCS-MP2 Energies <==================
	-----------------------------------------------------------
	 SCS Same-Spin Scale       =       0.3333333333333333 [-]
	 SCS Opposite-Spin Scale   =       1.2000000000000000 [-]
	 SCS Same-Spin Energy      =      -0.1989337679659077 [Eh]
	 SCS Opposite-Spin Energy  =      -2.1856287743550595 [Eh]
	 SCS Correlation Energy    =      -2.3845625423209671 [Eh]
	 SCS Total Energy          =    -533.8350203222584014 [Eh]
	-----------------------------------------------------------

  Dipole Moment: [D]
     X:     1.4584      Y:    -0.3829      Z:    -0.0413     Total:     1.5084

*** Psi4 exiting successfully. Buy a developer a beer!
