                               Psi4 1.4a2.dev612

  ==> Input File <==

--------------------------------------------------------------------------
#psi4
#
memory 32 gb

molecule  {
0 1
  N        1.4447430     0.9271060    -0.5600120
  N       -0.8646290     2.1728000     0.5033790
  C       -0.6433280    -0.2041590    -0.0552500
  C        0.8343400    -0.1560850    -0.0228830
  C       -1.4414270     0.9434540     0.1762700
  C       -1.2729090    -1.4294320    -0.3272730
  C       -2.8381000     0.7953410     0.1919050
  C        1.5703020    -1.2114420     0.5410850
  C       -2.6593290    -1.5570310    -0.3269880
  C       -3.4429950    -0.4315550    -0.0645950
  C        2.9613910    -1.1706130     0.5101660
  C        3.5885550    -0.0650650    -0.0636080
  C        2.7882770     0.9583460    -0.5692770
  H       -0.6539860    -2.2940070    -0.5598860
  H       -3.4538380     1.6721500     0.3887520
  H        1.0472209    -2.1612243     0.7920397
  H       -3.1218920    -2.5149200    -0.5495680
  H       -4.5281350    -0.5063600    -0.0566640
  H        3.5458790    -1.9798730     0.9414670
  H        0.0235730     2.3183180     0.0298570
  H       -1.4980030     2.9543290     0.3690670
  H        4.6711930     0.0129590    -0.1060480
  H        3.2359550     1.8482630    -1.0089550
units angstrom
no_reorient  #important for SAPT in psi4, default
symmetry c1  #important for SAPT in psi4, default
}

set PROPERTIES_ORIGIN ["COM"]
properties('MP2/aug-cc-pvtz', properties = ['dipole'])
--------------------------------------------------------------------------

    Molecular point group: c1
  Charge       = 0
  Multiplicity = 1
  Basis Set: AUG-CC-PVTZ
    Blend: AUG-CC-PVTZ
  Basis Set: (AUG-CC-PVTZ AUX)
    Blend: AUG-CC-PVTZ-JKFIT

    Orbital Energies [Eh]
    ---------------------

    Doubly Occupied:

       1A    -15.569140     2A    -15.551023     3A    -11.290615
       4A    -11.282045     5A    -11.280873     6A    -11.263976
       7A    -11.244502     8A    -11.242967     9A    -11.239497
      10A    -11.238125    11A    -11.234833    12A    -11.224100
      13A    -11.221512    14A     -1.262894    15A     -1.214022
      16A     -1.128049    17A     -1.089040    18A     -1.061418
      19A     -0.997788    20A     -0.980697    21A     -0.871563
      22A     -0.864249    23A     -0.816677    24A     -0.800884
      25A     -0.718744    26A     -0.689736    27A     -0.685082
      28A     -0.662561    29A     -0.653496    30A     -0.625828
      31A     -0.593586    32A     -0.593075    33A     -0.586522
      34A     -0.574863    35A     -0.550633    36A     -0.534757
      37A     -0.521471    38A     -0.499971    39A     -0.494557
      40A     -0.445305    41A     -0.420866    42A     -0.389035
      43A     -0.369368    44A     -0.318477    45A     -0.286704

  @DF-RHF Final Energy:  -531.44936775068561

   => Energetics <=

    Nuclear Repulsion Energy =            714.5605739900777280
    One-Electron Energy =               -2137.6496317194737458
    Two-Electron Energy =                 891.6396899787104076
    Total Energy =                       -531.4493677506856102
  Basis Set: (AUG-CC-PVTZ AUX)
    Blend: AUG-CC-PVTZ-RI
    Molecular point group: c1

    Geometry (in Angstrom), charge = 0, multiplicity = 1:

       Center              X                  Y                   Z               Mass
    ------------   -----------------  -----------------  -----------------  -----------------
         N            1.440492510258     0.924672698066    -0.556034728092    14.003074004430
         N           -0.868879489742     2.170366698066     0.507356271908    14.003074004430
         C           -0.647578489742    -0.206592301934    -0.051272728092    12.000000000000
         C            0.830089510258    -0.158518301934    -0.018905728092    12.000000000000
         C           -1.445677489742     0.941020698066     0.180247271908    12.000000000000
         C           -1.277159489742    -1.431865301934    -0.323295728092    12.000000000000
         C           -2.842350489742     0.792907698066     0.195882271908    12.000000000000
         C            1.566051510258    -1.213875301934     0.545062271908    12.000000000000
         C           -2.663579489742    -1.559464301934    -0.323010728092    12.000000000000
         C           -3.447245489742    -0.433988301934    -0.060617728092    12.000000000000
         C            2.957140510258    -1.173046301934     0.514143271908    12.000000000000
         C            3.584304510258    -0.067498301934    -0.059630728092    12.000000000000
         C            2.784026510258     0.955912698066    -0.565299728092    12.000000000000
         H           -0.658236489742    -2.296440301934    -0.555908728092     1.007825032230
         H           -3.458088489742     1.669716698066     0.392729271908     1.007825032230
         H            1.042970410258    -2.163657601934     0.796016971908     1.007825032230
         H           -3.126142489742    -2.517353301934    -0.545590728092     1.007825032230
         H           -4.532385489742    -0.508793301934    -0.052686728092     1.007825032230
         H            3.541628510258    -1.982306301934     0.945444271908     1.007825032230
         H            0.019322510258     2.315884698066     0.033834271908     1.007825032230
         H           -1.502253489742     2.951895698066     0.373044271908     1.007825032230
         H            4.666942510258     0.010525698066    -0.102070728092     1.007825032230
         H            3.231704510258     1.845829698066    -1.004977728092     1.007825032230

  Basis Set: AUG-CC-PVTZ
    Blend: AUG-CC-PVTZ
  Basis Set: (AUG-CC-PVTZ AUX)
    Blend: AUG-CC-PVTZ-JKFIT
	 Reference Energy          =    -531.4493677506856102 [Eh]
	 Singles Energy            =      -0.0000000000000000 [Eh]
	 Same-Spin Energy          =      -0.5967218048023843 [Eh]
	 Opposite-Spin Energy      =      -1.8212513672386836 [Eh]
	 Correlation Energy        =      -2.4179731720410680 [Eh]
	 Total Energy              =    -533.8673409227267257 [Eh]

	 ================> DF-SCS-MP2 Energies <==================
	-----------------------------------------------------------
	 SCS Same-Spin Scale       =       0.3333333333333333 [-]
	 SCS Opposite-Spin Scale   =       1.2000000000000000 [-]
	 SCS Same-Spin Energy      =      -0.1989072682674614 [Eh]
	 SCS Opposite-Spin Energy  =      -2.1855016406864203 [Eh]
	 SCS Correlation Energy    =      -2.3844089089538816 [Eh]
	 SCS Total Energy          =    -533.8337766596395113 [Eh]
	-----------------------------------------------------------

  Dipole Moment: [D]
     X:     1.5468      Y:    -0.4509      Z:    -0.1204     Total:     1.6157

*** Psi4 exiting successfully. Buy a developer a beer!
