                               Psi4 1.4a2.dev612

  ==> Input File <==

--------------------------------------------------------------------------
#psi4
#
memory 32 gb

molecule  {
0 1
  N        1.4447430     0.9271060    -0.5600120
  N       -0.8646290     2.1728000     0.5033790
  C       -0.6433280    -0.2041590    -0.0552500
  C        0.8343400    -0.1560850    -0.0228830
  C       -1.4414270     0.9434540     0.1762700
  C       -1.2774712    -1.4920102    -0.0339078
  C       -2.8381000     0.7953410     0.1919050
  C        1.5703020    -1.2114420     0.5410850
  C       -2.6593290    -1.5570310    -0.3269880
  C       -3.4429950    -0.4315550    -0.0645950
  C        2.9613910    -1.1706130     0.5101660
  C        3.5885550    -0.0650650    -0.0636080
  C        2.7882770     0.9583460    -0.5692770
  H       -0.6539860    -2.2940070    -0.5598860
  H       -3.4538380     1.6721500     0.3887520
  H        1.0497850    -2.0407580     1.0110860
  H       -3.1218920    -2.5149200    -0.5495680
  H       -4.5281350    -0.5063600    -0.0566640
  H        3.5458790    -1.9798730     0.9414670
  H        0.0235730     2.3183180     0.0298570
  H       -1.4980030     2.9543290     0.3690670
  H        4.6711930     0.0129590    -0.1060480
  H        3.2359550     1.8482630    -1.0089550
units angstrom
no_reorient  #important for SAPT in psi4, default
symmetry c1  #important for SAPT in psi4, default
}

set PROPERTIES_ORIGIN ["COM"]
properties('MP2/aug-cc-pvtz', properties = ['dipole'])
--------------------------------------------------------------------------

    Molecular point group: c1
  Charge       = 0
  Multiplicity = 1
  Basis Set: AUG-CC-PVTZ
    Blend: AUG-CC-PVTZ
  Basis Set: (AUG-CC-PVTZ AUX)
    Blend: AUG-CC-PVTZ-JKFIT

    Orbital Energies [Eh]
    ---------------------

    Doubly Occupied:

       1A    -15.568094     2A    -15.551869     3A    -11.289484
       4A    -11.281338     5A    -11.280569     6A    -11.262175
       7A    -11.246136     8A    -11.241461     9A    -11.241460
      10A    -11.240278    11A    -11.238894    12A    -11.229865
      13A    -11.229312    14A     -1.261875    15A     -1.214766
      16A     -1.126008    17A     -1.087823    18A     -1.061205
      19A     -0.994634    20A     -0.980883    21A     -0.870951
      22A     -0.863807    23A     -0.814770    24A     -0.797962
      25A     -0.717361    26A     -0.689206    27A     -0.680788
      28A     -0.663372    29A     -0.651521    30A     -0.627624
      31A     -0.594152    32A     -0.588115    33A     -0.579578
      34A     -0.573606    35A     -0.550570    36A     -0.532946
      37A     -0.521196    38A     -0.497918    39A     -0.487013
      40A     -0.442331    41A     -0.420960    42A     -0.389020
      43A     -0.370972    44A     -0.319171    45A     -0.283614

  @DF-RHF Final Energy:  -531.42426389641309

   => Energetics <=

    Nuclear Repulsion Energy =            713.8347045033681297
    One-Electron Energy =               -2136.2046275342918307
    Two-Electron Energy =                 890.9456591345106062
    Total Energy =                       -531.4242638964130947
  Basis Set: (AUG-CC-PVTZ AUX)
    Blend: AUG-CC-PVTZ-RI
    Molecular point group: c1

    Geometry (in Angstrom), charge = 0, multiplicity = 1:

       Center              X                  Y                   Z               Mass
    ------------   -----------------  -----------------  -----------------  -----------------
         N            1.440799194682     0.928373974924    -0.578030530064    14.003074004430
         N           -0.868572805318     2.174067974924     0.485360469936    14.003074004430
         C           -0.647271805318    -0.202891025076    -0.073268530064    12.000000000000
         C            0.830396194682    -0.154817025076    -0.040901530064    12.000000000000
         C           -1.445370805318     0.944721974924     0.158251469936    12.000000000000
         C           -1.281415005318    -1.490742225076    -0.051926330064    12.000000000000
         C           -2.842043805318     0.796608974924     0.173886469936    12.000000000000
         C            1.566358194682    -1.210174025076     0.523066469936    12.000000000000
         C           -2.663272805318    -1.555763025076    -0.345006530064    12.000000000000
         C           -3.446938805318    -0.430287025076    -0.082613530064    12.000000000000
         C            2.957447194682    -1.169345025076     0.492147469936    12.000000000000
         C            3.584611194682    -0.063797025076    -0.081626530064    12.000000000000
         C            2.784333194682     0.959613974924    -0.587295530064    12.000000000000
         H           -0.657929805318    -2.292739025076    -0.577904530064     1.007825032230
         H           -3.457781805318     1.673417974924     0.370733469936     1.007825032230
         H            1.045841194682    -2.039490025076     0.993067469936     1.007825032230
         H           -3.125835805318    -2.513652025076    -0.567586530064     1.007825032230
         H           -4.532078805318    -0.505092025076    -0.074682530064     1.007825032230
         H            3.541935194682    -1.978605025076     0.923448469936     1.007825032230
         H            0.019629194682     2.319585974924     0.011838469936     1.007825032230
         H           -1.501946805318     2.955596974924     0.351048469936     1.007825032230
         H            4.667249194682     0.014226974924    -0.124066530064     1.007825032230
         H            3.232011194682     1.849530974924    -1.026973530064     1.007825032230

  Basis Set: AUG-CC-PVTZ
    Blend: AUG-CC-PVTZ
  Basis Set: (AUG-CC-PVTZ AUX)
    Blend: AUG-CC-PVTZ-JKFIT
	 Reference Energy          =    -531.4242638964130947 [Eh]
	 Singles Energy            =      -0.0000000000000000 [Eh]
	 Same-Spin Energy          =      -0.5985993074055910 [Eh]
	 Opposite-Spin Energy      =      -1.8257713462150702 [Eh]
	 Correlation Energy        =      -2.4243706536206613 [Eh]
	 Total Energy              =    -533.8486345500338075 [Eh]

	 ================> DF-SCS-MP2 Energies <==================
	-----------------------------------------------------------
	 SCS Same-Spin Scale       =       0.3333333333333333 [-]
	 SCS Opposite-Spin Scale   =       1.2000000000000000 [-]
	 SCS Same-Spin Energy      =      -0.1995331024685303 [Eh]
	 SCS Opposite-Spin Energy  =      -2.1909256154580841 [Eh]
	 SCS Correlation Energy    =      -2.3904587179266144 [Eh]
	 SCS Total Energy          =    -533.8147226143397575 [Eh]
	-----------------------------------------------------------

  Dipole Moment: [D]
     X:     1.2606      Y:    -0.1998      Z:    -0.1399     Total:     1.2840

*** Psi4 exiting successfully. Buy a developer a beer!
