                               Psi4 1.4a2.dev612

  ==> Input File <==

--------------------------------------------------------------------------
#psi4
#
memory 32 gb

molecule  {
0 1
  N        1.4447430     0.9271060    -0.5600120
  N       -0.8646290     2.1728000     0.5033790
  C       -0.6433280    -0.2041590    -0.0552500
  C        0.8343400    -0.1560850    -0.0228830
  C       -1.4414270     0.9434540     0.1762700
  C       -1.2729090    -1.4294320    -0.3272730
  C       -2.8381000     0.7953410     0.1919050
  C        1.5703020    -1.2114420     0.5410850
  C       -2.6593290    -1.5570310    -0.3269880
  C       -3.4429950    -0.4315550    -0.0645950
  C        2.9613910    -1.1706130     0.5101660
  C        3.5885550    -0.0650650    -0.0636080
  C        2.7882770     0.9583460    -0.5692770
  H       -0.6513289    -2.3174839    -0.4627172
  H       -3.4538380     1.6721500     0.3887520
  H        1.0497850    -2.0407580     1.0110860
  H       -3.1218920    -2.5149200    -0.5495680
  H       -4.5281350    -0.5063600    -0.0566640
  H        3.5458790    -1.9798730     0.9414670
  H        0.0235730     2.3183180     0.0298570
  H       -1.4980030     2.9543290     0.3690670
  H        4.6711930     0.0129590    -0.1060480
  H        3.2359550     1.8482630    -1.0089550
units angstrom
no_reorient  #important for SAPT in psi4, default
symmetry c1  #important for SAPT in psi4, default
}

set PROPERTIES_ORIGIN ["COM"]
properties('MP2/aug-cc-pvtz', properties = ['dipole'])
--------------------------------------------------------------------------

    Molecular point group: c1
  Charge       = 0
  Multiplicity = 1
  Basis Set: AUG-CC-PVTZ
    Blend: AUG-CC-PVTZ
  Basis Set: (AUG-CC-PVTZ AUX)
    Blend: AUG-CC-PVTZ-JKFIT

    Orbital Energies [Eh]
    ---------------------

    Doubly Occupied:

       1A    -15.568872     2A    -15.551086     3A    -11.290278
       4A    -11.281448     5A    -11.280971     6A    -11.263579
       7A    -11.242686     8A    -11.242137     9A    -11.239670
      10A    -11.238251    11A    -11.234731    12A    -11.224009
      13A    -11.221297    14A     -1.262587    15A     -1.214048
      16A     -1.127972    17A     -1.089067    18A     -1.061498
      19A     -0.997735    20A     -0.980730    21A     -0.871672
      22A     -0.864685    23A     -0.816744    24A     -0.800739
      25A     -0.718938    26A     -0.690683    27A     -0.684684
      28A     -0.663774    29A     -0.653321    30A     -0.627280
      31A     -0.595074    32A     -0.592280    33A     -0.586395
      34A     -0.574230    35A     -0.551142    36A     -0.536880
      37A     -0.519552    38A     -0.501975    39A     -0.493557
      40A     -0.445325    41A     -0.420796    42A     -0.389010
      43A     -0.368997    44A     -0.318936    45A     -0.286741

  @DF-RHF Final Energy:  -531.45295172121189

   => Energetics <=

    Nuclear Repulsion Energy =            714.6390003100267450
    One-Electron Energy =               -2137.8117839758688206
    Two-Electron Energy =                 891.7198319446300729
    Total Energy =                       -531.4529517212118890
  Basis Set: (AUG-CC-PVTZ AUX)
    Blend: AUG-CC-PVTZ-RI
    Molecular point group: c1

    Geometry (in Angstrom), charge = 0, multiplicity = 1:

       Center              X                  Y                   Z               Mass
    ------------   -----------------  -----------------  -----------------  -----------------
         N            1.440461572346     0.924097993119    -0.557908441945    14.003074004430
         N           -0.868910427654     2.169791993119     0.505482558055    14.003074004430
         C           -0.647609427654    -0.207167006881    -0.053146441945    12.000000000000
         C            0.830058572346    -0.159093006881    -0.020779441945    12.000000000000
         C           -1.445708427654     0.940445993119     0.178373558055    12.000000000000
         C           -1.277190427654    -1.432440006881    -0.325169441945    12.000000000000
         C           -2.842381427654     0.792332993119     0.194008558055    12.000000000000
         C            1.566020572346    -1.214450006881     0.543188558055    12.000000000000
         C           -2.663610427654    -1.560039006881    -0.324884441945    12.000000000000
         C           -3.447276427654    -0.434563006881    -0.062491441945    12.000000000000
         C            2.957109572346    -1.173621006881     0.512269558055    12.000000000000
         C            3.584273572346    -0.068073006881    -0.061504441945    12.000000000000
         C            2.783995572346     0.955337993119    -0.567173441945    12.000000000000
         H           -0.655610327654    -2.320491906881    -0.460613641945     1.007825032230
         H           -3.458119427654     1.669141993119     0.390855558055     1.007825032230
         H            1.045503572346    -2.043766006881     1.013189558055     1.007825032230
         H           -3.126173427654    -2.517928006881    -0.547464441945     1.007825032230
         H           -4.532416427654    -0.509368006881    -0.054560441945     1.007825032230
         H            3.541597572346    -1.982881006881     0.943570558055     1.007825032230
         H            0.019291572346     2.315309993119     0.031960558055     1.007825032230
         H           -1.502284427654     2.951320993119     0.371170558055     1.007825032230
         H            4.666911572346     0.009950993119    -0.103944441945     1.007825032230
         H            3.231673572346     1.845254993119    -1.006851441945     1.007825032230

  Basis Set: AUG-CC-PVTZ
    Blend: AUG-CC-PVTZ
  Basis Set: (AUG-CC-PVTZ AUX)
    Blend: AUG-CC-PVTZ-JKFIT
	 Reference Energy          =    -531.4529517212118890 [Eh]
	 Singles Energy            =      -0.0000000000000000 [Eh]
	 Same-Spin Energy          =      -0.5965441374790942 [Eh]
	 Opposite-Spin Energy      =      -1.8208540072267132 [Eh]
	 Correlation Energy        =      -2.4173981447058073 [Eh]
	 Total Energy              =    -533.8703498659176603 [Eh]

	 ================> DF-SCS-MP2 Energies <==================
	-----------------------------------------------------------
	 SCS Same-Spin Scale       =       0.3333333333333333 [-]
	 SCS Opposite-Spin Scale   =       1.2000000000000000 [-]
	 SCS Same-Spin Energy      =      -0.1988480458263647 [Eh]
	 SCS Opposite-Spin Energy  =      -2.1850248086720558 [Eh]
	 SCS Correlation Energy    =      -2.3838728544984207 [Eh]
	 SCS Total Energy          =    -533.8368245757103523 [Eh]
	-----------------------------------------------------------

  Dipole Moment: [D]
     X:     1.5246      Y:    -0.4256      Z:     0.0703     Total:     1.5844

*** Psi4 exiting successfully. Buy a developer a beer!
