                               Psi4 1.4a2.dev612

  ==> Input File <==

--------------------------------------------------------------------------
#psi4
#
memory 32 gb

molecule  {
0 1
  N        1.4447430     0.9271060    -0.5600120
  N       -0.8646290     2.1728000     0.5033790
  C       -0.6433280    -0.2041590    -0.0552500
  C        0.8343400    -0.1560850    -0.0228830
  C       -1.4414270     0.9434540     0.1762700
  C       -1.2729090    -1.4294320    -0.3272730
  C       -2.8381000     0.7953410     0.1919050
  C        1.5703020    -1.2114420     0.5410850
  C       -2.6593290    -1.5570310    -0.3269880
  C       -3.4429950    -0.4315550    -0.0645950
  C        2.9613910    -1.1706130     0.5101660
  C        3.5885550    -0.0650650    -0.0636080
  C        2.7882770     0.9583460    -0.5692770
  H       -0.6539860    -2.2940070    -0.5598860
  H       -3.4538380     1.6721500     0.3887520
  H        1.0492722    -2.0648513     0.9672767
  H       -3.1218920    -2.5149200    -0.5495680
  H       -4.5281350    -0.5063600    -0.0566640
  H        3.5458790    -1.9798730     0.9414670
  H        0.0235730     2.3183180     0.0298570
  H       -1.4980030     2.9543290     0.3690670
  H        4.6711930     0.0129590    -0.1060480
  H        3.2359550     1.8482630    -1.0089550
units angstrom
no_reorient  #important for SAPT in psi4, default
symmetry c1  #important for SAPT in psi4, default
}

set PROPERTIES_ORIGIN ["COM"]
properties('MP2/aug-cc-pvtz', properties = ['dipole'])
--------------------------------------------------------------------------

    Molecular point group: c1
  Charge       = 0
  Multiplicity = 1
  Basis Set: AUG-CC-PVTZ
    Blend: AUG-CC-PVTZ
  Basis Set: (AUG-CC-PVTZ AUX)
    Blend: AUG-CC-PVTZ-JKFIT

    Orbital Energies [Eh]
    ---------------------

    Doubly Occupied:

       1A    -15.568874     2A    -15.551037     3A    -11.290104
       4A    -11.281445     5A    -11.280885     6A    -11.263526
       7A    -11.242737     8A    -11.242143     9A    -11.239247
      10A    -11.238179    11A    -11.234632    12A    -11.223999
      13A    -11.221304    14A     -1.262561    15A     -1.213991
      16A     -1.127954    17A     -1.089029    18A     -1.061432
      19A     -0.997818    20A     -0.980686    21A     -0.871640
      22A     -0.864577    23A     -0.816959    24A     -0.800721
      25A     -0.718875    26A     -0.690555    27A     -0.684991
      28A     -0.663491    29A     -0.653448    30A     -0.627173
      31A     -0.595340    32A     -0.592566    33A     -0.586284
      34A     -0.574364    35A     -0.550573    36A     -0.536607
      37A     -0.520436    38A     -0.501234    39A     -0.493956
      40A     -0.445259    41A     -0.420865    42A     -0.389038
      43A     -0.368887    44A     -0.319021    45A     -0.286654

  @DF-RHF Final Energy:  -531.45336815376982

   => Energetics <=

    Nuclear Repulsion Energy =            714.6412399649937015
    One-Electron Energy =               -2137.8190291222545056
    Two-Electron Energy =                 891.7244210034909884
    Total Energy =                       -531.4533681537698158
  Basis Set: (AUG-CC-PVTZ AUX)
    Blend: AUG-CC-PVTZ-RI
    Molecular point group: c1

    Geometry (in Angstrom), charge = 0, multiplicity = 1:

       Center              X                  Y                   Z               Mass
    ------------   -----------------  -----------------  -----------------  -----------------
         N            1.440480355401     0.924101645561    -0.557073084560    14.003074004430
         N           -0.868891644599     2.169795645561     0.506317915440    14.003074004430
         C           -0.647590644599    -0.207163354439    -0.052311084560    12.000000000000
         C            0.830077355401    -0.159089354439    -0.019944084560    12.000000000000
         C           -1.445689644599     0.940449645561     0.179208915440    12.000000000000
         C           -1.277171644599    -1.432436354439    -0.324334084560    12.000000000000
         C           -2.842362644599     0.792336645561     0.194843915440    12.000000000000
         C            1.566039355401    -1.214446354439     0.544023915440    12.000000000000
         C           -2.663591644599    -1.560035354439    -0.324049084560    12.000000000000
         C           -3.447257644599    -0.434559354439    -0.061656084560    12.000000000000
         C            2.957128355401    -1.173617354439     0.513104915440    12.000000000000
         C            3.584292355401    -0.068069354439    -0.060669084560    12.000000000000
         C            2.784014355401     0.955341645561    -0.566338084560    12.000000000000
         H           -0.658248644599    -2.297011354439    -0.556947084560     1.007825032230
         H           -3.458100644599     1.669145645561     0.391690915440     1.007825032230
         H            1.045009555401    -2.067855654439     0.970215615440     1.007825032230
         H           -3.126154644599    -2.517924354439    -0.546629084560     1.007825032230
         H           -4.532397644599    -0.509364354439    -0.053725084560     1.007825032230
         H            3.541616355401    -1.982877354439     0.944405915440     1.007825032230
         H            0.019310355401     2.315313645561     0.032795915440     1.007825032230
         H           -1.502265644599     2.951324645561     0.372005915440     1.007825032230
         H            4.666930355401     0.009954645561    -0.103109084560     1.007825032230
         H            3.231692355401     1.845258645561    -1.006016084560     1.007825032230

  Basis Set: AUG-CC-PVTZ
    Blend: AUG-CC-PVTZ
  Basis Set: (AUG-CC-PVTZ AUX)
    Blend: AUG-CC-PVTZ-JKFIT
	 Reference Energy          =    -531.4533681537698158 [Eh]
	 Singles Energy            =      -0.0000000000000000 [Eh]
	 Same-Spin Energy          =      -0.5965204553234567 [Eh]
	 Opposite-Spin Energy      =      -1.8207985150430845 [Eh]
	 Correlation Energy        =      -2.4173189703665412 [Eh]
	 Total Energy              =    -533.8706871241363388 [Eh]

	 ================> DF-SCS-MP2 Energies <==================
	-----------------------------------------------------------
	 SCS Same-Spin Scale       =       0.3333333333333333 [-]
	 SCS Opposite-Spin Scale   =       1.2000000000000000 [-]
	 SCS Same-Spin Energy      =      -0.1988401517744856 [Eh]
	 SCS Opposite-Spin Energy  =      -2.1849582180517015 [Eh]
	 SCS Correlation Energy    =      -2.3837983698261871 [Eh]
	 SCS Total Energy          =    -533.8371665235960108 [Eh]
	-----------------------------------------------------------

  Dipole Moment: [D]
     X:     1.5287      Y:    -0.4316      Z:    -0.0106     Total:     1.5885

*** Psi4 exiting successfully. Buy a developer a beer!
