                               Psi4 1.4a2.dev612

  ==> Input File <==

--------------------------------------------------------------------------
#psi4
#
memory 32 gb

molecule  {
0 1
  N        1.4447430     0.9271060    -0.5600120
  N       -0.8646290     2.1728000     0.5033790
  C       -0.6433280    -0.2041590    -0.0552500
  C        0.8343400    -0.1560850    -0.0228830
  C       -1.4414270     0.9434540     0.1762700
  C       -1.2729090    -1.4294320    -0.3272730
  C       -2.8381000     0.7953410     0.1919050
  C        1.5703020    -1.2114420     0.5410850
  C       -2.6593290    -1.5570310    -0.3269880
  C       -3.4429950    -0.4315550    -0.0645950
  C        2.9613910    -1.1706130     0.5101660
  C        3.5885550    -0.0650650    -0.0636080
  C        2.7882770     0.9583460    -0.5692770
  H       -0.6539860    -2.2940070    -0.5598860
  H       -3.4538380     1.6721500     0.3887520
  H        1.0497850    -2.0407580     1.0110860
  H       -3.1218920    -2.5149200    -0.5495680
  H       -4.5281350    -0.5063600    -0.0566640
  H        3.5456156    -2.0728207     0.7643776
  H        0.0235730     2.3183180     0.0298570
  H       -1.4980030     2.9543290     0.3690670
  H        4.6711930     0.0129590    -0.1060480
  H        3.2359550     1.8482630    -1.0089550
units angstrom
no_reorient  #important for SAPT in psi4, default
symmetry c1  #important for SAPT in psi4, default
}

set PROPERTIES_ORIGIN ["COM"]
properties('MP2/aug-cc-pvtz', properties = ['dipole'])
--------------------------------------------------------------------------

    Molecular point group: c1
  Charge       = 0
  Multiplicity = 1
  Basis Set: AUG-CC-PVTZ
    Blend: AUG-CC-PVTZ
  Basis Set: (AUG-CC-PVTZ AUX)
    Blend: AUG-CC-PVTZ-JKFIT

    Orbital Energies [Eh]
    ---------------------

    Doubly Occupied:

       1A    -15.569104     2A    -15.551124     3A    -11.290162
       4A    -11.281548     5A    -11.280966     6A    -11.265169
       7A    -11.242914     8A    -11.242325     9A    -11.239231
      10A    -11.238224    11A    -11.234677    12A    -11.224031
      13A    -11.221291    14A     -1.262716    15A     -1.214074
      16A     -1.127991    17A     -1.088730    18A     -1.061525
      19A     -0.997895    20A     -0.980745    21A     -0.871654
      22A     -0.863632    23A     -0.817050    24A     -0.800205
      25A     -0.717714    26A     -0.690758    27A     -0.684766
      28A     -0.663554    29A     -0.653454    30A     -0.626987
      31A     -0.595454    32A     -0.592571    33A     -0.585872
      34A     -0.571874    35A     -0.551419    36A     -0.536797
      37A     -0.519536    38A     -0.501589    39A     -0.493890
      40A     -0.445360    41A     -0.421639    42A     -0.387551
      43A     -0.368844    44A     -0.319265    45A     -0.286757

  @DF-RHF Final Energy:  -531.45087142119087

   => Energetics <=

    Nuclear Repulsion Energy =            714.5712415025302562
    One-Electron Energy =               -2137.6789599934131729
    Two-Electron Energy =                 891.6568470696920485
    Total Energy =                       -531.4508714211908682
  Basis Set: (AUG-CC-PVTZ AUX)
    Blend: AUG-CC-PVTZ-RI
    Molecular point group: c1

    Geometry (in Angstrom), charge = 0, multiplicity = 1:

       Center              X                  Y                   Z               Mass
    ------------   -----------------  -----------------  -----------------  -----------------
         N            1.440478877596     0.924509638231    -0.556283341218    14.003074004430
         N           -0.868893122404     2.170203638231     0.507107658782    14.003074004430
         C           -0.647592122404    -0.206755361769    -0.051521341218    12.000000000000
         C            0.830075877596    -0.158681361769    -0.019154341218    12.000000000000
         C           -1.445691122404     0.940857638231     0.179998658782    12.000000000000
         C           -1.277173122404    -1.432028361769    -0.323544341218    12.000000000000
         C           -2.842364122404     0.792744638231     0.195633658782    12.000000000000
         C            1.566037877596    -1.214038361769     0.544813658782    12.000000000000
         C           -2.663593122404    -1.559627361769    -0.323259341218    12.000000000000
         C           -3.447259122404    -0.434151361769    -0.060866341218    12.000000000000
         C            2.957126877596    -1.173209361769     0.513894658782    12.000000000000
         C            3.584290877596    -0.067661361769    -0.059879341218    12.000000000000
         C            2.784012877596     0.955749638231    -0.565548341218    12.000000000000
         H           -0.658250122404    -2.296603361769    -0.556157341218     1.007825032230
         H           -3.458102122404     1.669553638231     0.392480658782     1.007825032230
         H            1.045520877596    -2.043354361769     1.014814658782     1.007825032230
         H           -3.126156122404    -2.517516361769    -0.545839341218     1.007825032230
         H           -4.532399122404    -0.508956361769    -0.052935341218     1.007825032230
         H            3.541351477596    -2.075417061769     0.768106258782     1.007825032230
         H            0.019308877596     2.315721638231     0.033585658782     1.007825032230
         H           -1.502267122404     2.951732638231     0.372795658782     1.007825032230
         H            4.666928877596     0.010362638231    -0.102319341218     1.007825032230
         H            3.231690877596     1.845666638231    -1.005226341218     1.007825032230

  Basis Set: AUG-CC-PVTZ
    Blend: AUG-CC-PVTZ
  Basis Set: (AUG-CC-PVTZ AUX)
    Blend: AUG-CC-PVTZ-JKFIT
	 Reference Energy          =    -531.4508714211908682 [Eh]
	 Singles Energy            =      -0.0000000000000000 [Eh]
	 Same-Spin Energy          =      -0.5966513656083443 [Eh]
	 Opposite-Spin Energy      =      -1.8210989167540532 [Eh]
	 Correlation Energy        =      -2.4177502823623973 [Eh]
	 Total Energy              =    -533.8686217035532309 [Eh]

	 ================> DF-SCS-MP2 Energies <==================
	-----------------------------------------------------------
	 SCS Same-Spin Scale       =       0.3333333333333333 [-]
	 SCS Opposite-Spin Scale   =       1.2000000000000000 [-]
	 SCS Same-Spin Energy      =      -0.1988837885361148 [Eh]
	 SCS Opposite-Spin Energy  =      -2.1853187001048640 [Eh]
	 SCS Correlation Energy    =      -2.3842024886409785 [Eh]
	 SCS Total Energy          =    -533.8350739098318627 [Eh]
	-----------------------------------------------------------

  Dipole Moment: [D]
     X:     1.5079      Y:    -0.4577      Z:    -0.1000     Total:     1.5790

*** Psi4 exiting successfully. Buy a developer a beer!
