                               Psi4 1.4a2.dev612

  ==> Input File <==

--------------------------------------------------------------------------
#psi4
#
memory 32 gb

molecule  {
0 1
  N        1.4447430     0.9271060    -0.5600120
  N       -0.8646290     2.1728000     0.5033790
  C       -0.6433280    -0.2041590    -0.0552500
  C        0.8343400    -0.1560850    -0.0228830
  C       -1.4414270     0.9434540     0.1762700
  C       -1.2729090    -1.4294320    -0.3272730
  C       -2.8381000     0.7953410     0.1919050
  C        1.5703020    -1.2114420     0.5410850
  C       -2.6593290    -1.5570310    -0.3269880
  C       -3.4429950    -0.4315550    -0.0645950
  C        2.9613910    -1.1706130     0.5101660
  C        3.5885550    -0.0650650    -0.0636080
  C        2.7882770     0.9583460    -0.5692770
  H       -0.6539860    -2.2940070    -0.5598860
  H       -3.4538380     1.6721500     0.3887520
  H        1.0497850    -2.0407580     1.0110860
  H       -3.1218920    -2.5149200    -0.5495680
  H       -4.5281350    -0.5063600    -0.0566640
  H        3.5458790    -1.9798730     0.9414670
  H        0.0235730     2.3183180     0.0298570
  H       -1.4980030     2.9543290     0.3690670
  H        4.6711930     0.0129590    -0.1060480
  H        3.2355306     1.9146448    -0.8744438
units angstrom
no_reorient  #important for SAPT in psi4, default
symmetry c1  #important for SAPT in psi4, default
}

set PROPERTIES_ORIGIN ["COM"]
properties('MP2/aug-cc-pvtz', properties = ['dipole'])
--------------------------------------------------------------------------

    Molecular point group: c1
  Charge       = 0
  Multiplicity = 1
  Basis Set: AUG-CC-PVTZ
    Blend: AUG-CC-PVTZ
  Basis Set: (AUG-CC-PVTZ AUX)
    Blend: AUG-CC-PVTZ-JKFIT

    Orbital Energies [Eh]
    ---------------------

    Doubly Occupied:

       1A    -15.568955     2A    -15.551062     3A    -11.290176
       4A    -11.282413     5A    -11.280946     6A    -11.263605
       7A    -11.242966     8A    -11.242157     9A    -11.239228
      10A    -11.238247    11A    -11.234595    12A    -11.223999
      13A    -11.221257    14A     -1.262599    15A     -1.214024
      16A     -1.127956    17A     -1.089138    18A     -1.061325
      19A     -0.997771    20A     -0.980669    21A     -0.871608
      22A     -0.864081    23A     -0.816853    24A     -0.800661
      25A     -0.718280    26A     -0.690703    27A     -0.684893
      28A     -0.663179    29A     -0.653485    30A     -0.626554
      31A     -0.595098    32A     -0.592522    33A     -0.586168
      34A     -0.573888    35A     -0.552400    36A     -0.536332
      37A     -0.517991    38A     -0.502397    39A     -0.493565
      40A     -0.445314    41A     -0.421040    42A     -0.389138
      43A     -0.367986    44A     -0.319226    45A     -0.286847

  @DF-RHF Final Energy:  -531.45195487587796

   => Energetics <=

    Nuclear Repulsion Energy =            714.6120078808471590
    One-Electron Energy =               -2137.7613284100279998
    Two-Electron Energy =                 891.6973656533028816
    Total Energy =                       -531.4519548758779592
  Basis Set: (AUG-CC-PVTZ AUX)
    Blend: AUG-CC-PVTZ-RI
    Molecular point group: c1

    Geometry (in Angstrom), charge = 0, multiplicity = 1:

       Center              X                  Y                   Z               Mass
    ------------   -----------------  -----------------  -----------------  -----------------
         N            1.440479831592     0.923565540712    -0.558129712125    14.003074004430
         N           -0.868892168408     2.169259540712     0.505261287875    14.003074004430
         C           -0.647591168408    -0.207699459288    -0.053367712125    12.000000000000
         C            0.830076831592    -0.159625459288    -0.021000712125    12.000000000000
         C           -1.445690168408     0.939913540712     0.178152287875    12.000000000000
         C           -1.277172168408    -1.432972459288    -0.325390712125    12.000000000000
         C           -2.842363168408     0.791800540712     0.193787287875    12.000000000000
         C            1.566038831592    -1.214982459288     0.542967287875    12.000000000000
         C           -2.663592168408    -1.560571459288    -0.325105712125    12.000000000000
         C           -3.447258168408    -0.435095459288    -0.062712712125    12.000000000000
         C            2.957127831592    -1.174153459288     0.512048287875    12.000000000000
         C            3.584291831592    -0.068605459288    -0.061725712125    12.000000000000
         C            2.784013831592     0.954805540712    -0.567394712125    12.000000000000
         H           -0.658249168408    -2.297547459288    -0.558003712125     1.007825032230
         H           -3.458101168408     1.668609540712     0.390634287875     1.007825032230
         H            1.045521831592    -2.044298459288     1.012968287875     1.007825032230
         H           -3.126155168408    -2.518460459288    -0.547685712125     1.007825032230
         H           -4.532398168408    -0.509900459288    -0.054781712125     1.007825032230
         H            3.541615831592    -1.983413459288     0.943349287875     1.007825032230
         H            0.019309831592     2.314777540712     0.031739287875     1.007825032230
         H           -1.502266168408     2.950788540712     0.370949287875     1.007825032230
         H            4.666929831592     0.009418540712    -0.104165712125     1.007825032230
         H            3.231267431592     1.911104340712    -0.872561512125     1.007825032230

  Basis Set: AUG-CC-PVTZ
    Blend: AUG-CC-PVTZ
  Basis Set: (AUG-CC-PVTZ AUX)
    Blend: AUG-CC-PVTZ-JKFIT
	 Reference Energy          =    -531.4519548758779592 [Eh]
	 Singles Energy            =      -0.0000000000000000 [Eh]
	 Same-Spin Energy          =      -0.5966156622477665 [Eh]
	 Opposite-Spin Energy      =      -1.8209840521415979 [Eh]
	 Correlation Energy        =      -2.4175997143893646 [Eh]
	 Total Energy              =    -533.8695545902672848 [Eh]

	 ================> DF-SCS-MP2 Energies <==================
	-----------------------------------------------------------
	 SCS Same-Spin Scale       =       0.3333333333333333 [-]
	 SCS Opposite-Spin Scale   =       1.2000000000000000 [-]
	 SCS Same-Spin Energy      =      -0.1988718874159222 [Eh]
	 SCS Opposite-Spin Energy  =      -2.1851808625699172 [Eh]
	 SCS Correlation Energy    =      -2.3840527499858393 [Eh]
	 SCS Total Energy          =    -533.8360076258637719 [Eh]
	-----------------------------------------------------------

  Dipole Moment: [D]
     X:     1.5150      Y:    -0.4010      Z:     0.0903     Total:     1.5697

*** Psi4 exiting successfully. Buy a developer a beer!
