                               Psi4 1.4a2.dev612

  ==> Input File <==

--------------------------------------------------------------------------
#psi4
#
memory 32 gb

molecule  {
0 1
  N        1.4447430     0.9271060    -0.5600120
  N       -0.8646290     2.1728000     0.5033790
  C       -0.6433280    -0.2041590    -0.0552500
  C        0.8343400    -0.1560850    -0.0228830
  C       -1.4414270     0.9434540     0.1762700
  C       -1.2736694    -1.4398617    -0.2783788
  C       -2.8381000     0.7953410     0.1919050
  C        1.5703020    -1.2114420     0.5410850
  C       -2.6593290    -1.5570310    -0.3269880
  C       -3.4429950    -0.4315550    -0.0645950
  C        2.9613910    -1.1706130     0.5101660
  C        3.5885550    -0.0650650    -0.0636080
  C        2.7882770     0.9583460    -0.5692770
  H       -0.6539860    -2.2940070    -0.5598860
  H       -3.4538380     1.6721500     0.3887520
  H        1.0497850    -2.0407580     1.0110860
  H       -3.1218920    -2.5149200    -0.5495680
  H       -4.5281350    -0.5063600    -0.0566640
  H        3.5458790    -1.9798730     0.9414670
  H        0.0235730     2.3183180     0.0298570
  H       -1.4980030     2.9543290     0.3690670
  H        4.6711930     0.0129590    -0.1060480
  H        3.2359550     1.8482630    -1.0089550
units angstrom
no_reorient  #important for SAPT in psi4, default
symmetry c1  #important for SAPT in psi4, default
}

set PROPERTIES_ORIGIN ["COM"]
properties('MP2/aug-cc-pvtz', properties = ['dipole'])
--------------------------------------------------------------------------

    Molecular point group: c1
  Charge       = 0
  Multiplicity = 1
  Basis Set: AUG-CC-PVTZ
    Blend: AUG-CC-PVTZ
  Basis Set: (AUG-CC-PVTZ AUX)
    Blend: AUG-CC-PVTZ-JKFIT

    Orbital Energies [Eh]
    ---------------------

    Doubly Occupied:

       1A    -15.568653     2A    -15.551209     3A    -11.290013
       4A    -11.281276     5A    -11.281053     6A    -11.263302
       7A    -11.242444     8A    -11.241712     9A    -11.239382
      10A    -11.238398    11A    -11.234820    12A    -11.224334
      13A    -11.221496    14A     -1.262404    15A     -1.214123
      16A     -1.128122    17A     -1.088803    18A     -1.061405
      19A     -0.997747    20A     -0.980829    21A     -0.871550
      22A     -0.864466    23A     -0.816767    24A     -0.800675
      25A     -0.718714    26A     -0.690680    27A     -0.684712
      28A     -0.663396    29A     -0.653072    30A     -0.627267
      31A     -0.595485    32A     -0.592402    33A     -0.585702
      34A     -0.574311    35A     -0.550815    36A     -0.536242
      37A     -0.520460    38A     -0.501050    39A     -0.493800
      40A     -0.445167    41A     -0.420907    42A     -0.389047
      43A     -0.369237    44A     -0.318997    45A     -0.286432

  @DF-RHF Final Energy:  -531.45279904458027

   => Energetics <=

    Nuclear Repulsion Energy =            714.6488212193601157
    One-Electron Energy =               -2137.8374877951855524
    Two-Electron Energy =                 891.7358675312451624
    Total Energy =                       -531.4527990445802743
  Basis Set: (AUG-CC-PVTZ AUX)
    Blend: AUG-CC-PVTZ-RI
    Molecular point group: c1

    Geometry (in Angstrom), charge = 0, multiplicity = 1:

       Center              X                  Y                   Z               Mass
    ------------   -----------------  -----------------  -----------------  -----------------
         N            1.440530965495     0.924694730936    -0.560782316655    14.003074004430
         N           -0.868841034505     2.170388730936     0.502608683345    14.003074004430
         C           -0.647540034505    -0.206570269064    -0.056020316655    12.000000000000
         C            0.830127965495    -0.158496269064    -0.023653316655    12.000000000000
         C           -1.445639034505     0.941042730936     0.175499683345    12.000000000000
         C           -1.277881434505    -1.442272969064    -0.279149116655    12.000000000000
         C           -2.842312034505     0.792929730936     0.191134683345    12.000000000000
         C            1.566089965495    -1.213853269064     0.540314683345    12.000000000000
         C           -2.663541034505    -1.559442269064    -0.327758316655    12.000000000000
         C           -3.447207034505    -0.433966269064    -0.065365316655    12.000000000000
         C            2.957178965495    -1.173024269064     0.509395683345    12.000000000000
         C            3.584342965495    -0.067476269064    -0.064378316655    12.000000000000
         C            2.784064965495     0.955934730936    -0.570047316655    12.000000000000
         H           -0.658198034505    -2.296418269064    -0.560656316655     1.007825032230
         H           -3.458050034505     1.669738730936     0.387981683345     1.007825032230
         H            1.045572965495    -2.043169269064     1.010315683345     1.007825032230
         H           -3.126104034505    -2.517331269064    -0.550338316655     1.007825032230
         H           -4.532347034505    -0.508771269064    -0.057434316655     1.007825032230
         H            3.541666965495    -1.982284269064     0.940696683345     1.007825032230
         H            0.019360965495     2.315906730936     0.029086683345     1.007825032230
         H           -1.502215034505     2.951917730936     0.368296683345     1.007825032230
         H            4.666980965495     0.010547730936    -0.106818316655     1.007825032230
         H            3.231742965495     1.845851730936    -1.009725316655     1.007825032230

  Basis Set: AUG-CC-PVTZ
    Blend: AUG-CC-PVTZ
  Basis Set: (AUG-CC-PVTZ AUX)
    Blend: AUG-CC-PVTZ-JKFIT
	 Reference Energy          =    -531.4527990445802743 [Eh]
	 Singles Energy            =      -0.0000000000000000 [Eh]
	 Same-Spin Energy          =      -0.5966011609763959 [Eh]
	 Opposite-Spin Energy      =      -1.8209416882521641 [Eh]
	 Correlation Energy        =      -2.4175428492285600 [Eh]
	 Total Energy              =    -533.8703418938088134 [Eh]

	 ================> DF-SCS-MP2 Energies <==================
	-----------------------------------------------------------
	 SCS Same-Spin Scale       =       0.3333333333333333 [-]
	 SCS Opposite-Spin Scale   =       1.2000000000000000 [-]
	 SCS Same-Spin Energy      =      -0.1988670536587986 [Eh]
	 SCS Opposite-Spin Energy  =      -2.1851300259025970 [Eh]
	 SCS Correlation Energy    =      -2.3839970795613956 [Eh]
	 SCS Total Energy          =    -533.8367961241416424 [Eh]
	-----------------------------------------------------------

  Dipole Moment: [D]
     X:     1.4952      Y:    -0.4062      Z:    -0.0145     Total:     1.5494

*** Psi4 exiting successfully. Buy a developer a beer!
