                               Psi4 1.4a2.dev612

  ==> Input File <==

--------------------------------------------------------------------------
#psi4
#
memory 32 gb

molecule  {
0 1
  N        1.4447430     0.9271060    -0.5600120
  N       -0.8646290     2.1728000     0.5033790
  C       -0.6433280    -0.2041590    -0.0552500
  C        0.8343400    -0.1560850    -0.0228830
  C       -1.4414270     0.9434540     0.1762700
  C       -1.2767109    -1.4815805    -0.0828020
  C       -2.8381000     0.7953410     0.1919050
  C        1.5703020    -1.2114420     0.5410850
  C       -2.6593290    -1.5570310    -0.3269880
  C       -3.4429950    -0.4315550    -0.0645950
  C        2.9613910    -1.1706130     0.5101660
  C        3.5885550    -0.0650650    -0.0636080
  C        2.7882770     0.9583460    -0.5692770
  H       -0.6539860    -2.2940070    -0.5598860
  H       -3.4538380     1.6721500     0.3887520
  H        1.0497850    -2.0407580     1.0110860
  H       -3.1218920    -2.5149200    -0.5495680
  H       -4.5281350    -0.5063600    -0.0566640
  H        3.5458790    -1.9798730     0.9414670
  H        0.0235730     2.3183180     0.0298570
  H       -1.4980030     2.9543290     0.3690670
  H        4.6711930     0.0129590    -0.1060480
  H        3.2359550     1.8482630    -1.0089550
units angstrom
no_reorient  #important for SAPT in psi4, default
symmetry c1  #important for SAPT in psi4, default
}

set PROPERTIES_ORIGIN ["COM"]
properties('MP2/aug-cc-pvtz', properties = ['dipole'])
--------------------------------------------------------------------------

    Molecular point group: c1
  Charge       = 0
  Multiplicity = 1
  Basis Set: AUG-CC-PVTZ
    Blend: AUG-CC-PVTZ
  Basis Set: (AUG-CC-PVTZ AUX)
    Blend: AUG-CC-PVTZ-JKFIT

    Orbital Energies [Eh]
    ---------------------

    Doubly Occupied:

       1A    -15.568144     2A    -15.551736     3A    -11.289623
       4A    -11.281318     5A    -11.280718     6A    -11.262428
       7A    -11.244120     8A    -11.241606     9A    -11.240567
      10A    -11.239478    11A    -11.238830    12A    -11.228244
      13A    -11.226929    14A     -1.261961    15A     -1.214618
      16A     -1.126802    17A     -1.088015    18A     -1.061274
      19A     -0.995649    20A     -0.980939    21A     -0.871128
      22A     -0.863988    23A     -0.815255    24A     -0.798787
      25A     -0.717671    26A     -0.689688    27A     -0.681755
      28A     -0.663352    29A     -0.651840    30A     -0.627550
      31A     -0.594261    32A     -0.589693    33A     -0.581068
      34A     -0.573954    35A     -0.550703    36A     -0.533777
      37A     -0.521179    38A     -0.498583    39A     -0.489609
      40A     -0.443226    41A     -0.420937    42A     -0.389058
      43A     -0.370747    44A     -0.318993    45A     -0.284364

  @DF-RHF Final Energy:  -531.43337924279001

   => Energetics <=

    Nuclear Repulsion Energy =            714.1084124075852060
    One-Electron Energy =               -2136.7552503836081996
    Two-Electron Energy =                 891.2134587332330966
    Total Energy =                       -531.4333792427900107
  Basis Set: (AUG-CC-PVTZ AUX)
    Blend: AUG-CC-PVTZ-RI
    Molecular point group: c1

    Geometry (in Angstrom), charge = 0, multiplicity = 1:

       Center              X                  Y                   Z               Mass
    ------------   -----------------  -----------------  -----------------  -----------------
         N            1.440745553078     0.927638126126    -0.574580887382    14.003074004430
         N           -0.868626446922     2.173332126126     0.488810112618    14.003074004430
         C           -0.647325446922    -0.203626873874    -0.069818887382    12.000000000000
         C            0.830342553078    -0.155552873874    -0.037451887382    12.000000000000
         C           -1.445424446922     0.943986126126     0.161701112618    12.000000000000
         C           -1.280708346922    -1.481048373874    -0.097370887382    12.000000000000
         C           -2.842097446922     0.795873126126     0.177336112618    12.000000000000
         C            1.566304553078    -1.210909873874     0.526516112618    12.000000000000
         C           -2.663326446922    -1.556498873874    -0.341556887382    12.000000000000
         C           -3.446992446922    -0.431022873874    -0.079163887382    12.000000000000
         C            2.957393553078    -1.170080873874     0.495597112618    12.000000000000
         C            3.584557553078    -0.064532873874    -0.078176887382    12.000000000000
         C            2.784279553078     0.958878126126    -0.583845887382    12.000000000000
         H           -0.657983446922    -2.293474873874    -0.574454887382     1.007825032230
         H           -3.457835446922     1.672682126126     0.374183112618     1.007825032230
         H            1.045787553078    -2.040225873874     0.996517112618     1.007825032230
         H           -3.125889446922    -2.514387873874    -0.564136887382     1.007825032230
         H           -4.532132446922    -0.505827873874    -0.071232887382     1.007825032230
         H            3.541881553078    -1.979340873874     0.926898112618     1.007825032230
         H            0.019575553078     2.318850126126     0.015288112618     1.007825032230
         H           -1.502000446922     2.954861126126     0.354498112618     1.007825032230
         H            4.667195553078     0.013491126126    -0.120616887382     1.007825032230
         H            3.231957553078     1.848795126126    -1.023523887382     1.007825032230

  Basis Set: AUG-CC-PVTZ
    Blend: AUG-CC-PVTZ
  Basis Set: (AUG-CC-PVTZ AUX)
    Blend: AUG-CC-PVTZ-JKFIT
	 Reference Energy          =    -531.4333792427900107 [Eh]
	 Singles Energy            =      -0.0000000000000000 [Eh]
	 Same-Spin Energy          =      -0.5980108997998484 [Eh]
	 Opposite-Spin Energy      =      -1.8242704920494734 [Eh]
	 Correlation Energy        =      -2.4222813918493218 [Eh]
	 Total Energy              =    -533.8556606346393210 [Eh]

	 ================> DF-SCS-MP2 Energies <==================
	-----------------------------------------------------------
	 SCS Same-Spin Scale       =       0.3333333333333333 [-]
	 SCS Opposite-Spin Scale   =       1.2000000000000000 [-]
	 SCS Same-Spin Energy      =      -0.1993369665999495 [Eh]
	 SCS Opposite-Spin Energy  =      -2.1891245904593681 [Eh]
	 SCS Correlation Energy    =      -2.3884615570593177 [Eh]
	 SCS Total Energy          =    -533.8218407998493831 [Eh]
	-----------------------------------------------------------

  Dipole Moment: [D]
     X:     1.3173      Y:    -0.2588      Z:    -0.1162     Total:     1.3475

*** Psi4 exiting successfully. Buy a developer a beer!
