                               Psi4 1.4a2.dev612

  ==> Input File <==

--------------------------------------------------------------------------
#psi4
#
memory 32 gb

molecule  {
0 1
  N        1.4447430     0.9271060    -0.5600120
  N       -0.8646290     2.1728000     0.5033790
  C       -0.6433280    -0.2041590    -0.0552500
  C        0.8343400    -0.1560850    -0.0228830
  C       -1.4414270     0.9434540     0.1762700
  C       -1.2729090    -1.4294320    -0.3272730
  C       -2.8389515     0.8295831     0.0458682
  C        1.5703020    -1.2114420     0.5410850
  C       -2.6593290    -1.5570310    -0.3269880
  C       -3.4429950    -0.4315550    -0.0645950
  C        2.9613910    -1.1706130     0.5101660
  C        3.5885550    -0.0650650    -0.0636080
  C        2.7882770     0.9583460    -0.5692770
  H       -0.6539860    -2.2940070    -0.5598860
  H       -3.4538380     1.6721500     0.3887520
  H        1.0497850    -2.0407580     1.0110860
  H       -3.1218920    -2.5149200    -0.5495680
  H       -4.5281350    -0.5063600    -0.0566640
  H        3.5458790    -1.9798730     0.9414670
  H        0.0235730     2.3183180     0.0298570
  H       -1.4980030     2.9543290     0.3690670
  H        4.6711930     0.0129590    -0.1060480
  H        3.2359550     1.8482630    -1.0089550
units angstrom
no_reorient  #important for SAPT in psi4, default
symmetry c1  #important for SAPT in psi4, default
}

set PROPERTIES_ORIGIN ["COM"]
properties('MP2/aug-cc-pvtz', properties = ['dipole'])
--------------------------------------------------------------------------

    Molecular point group: c1
  Charge       = 0
  Multiplicity = 1
  Basis Set: AUG-CC-PVTZ
    Blend: AUG-CC-PVTZ
  Basis Set: (AUG-CC-PVTZ AUX)
    Blend: AUG-CC-PVTZ-JKFIT

    Orbital Energies [Eh]
    ---------------------

    Doubly Occupied:

       1A    -15.569138     2A    -15.550779     3A    -11.290185
       4A    -11.282089     5A    -11.281605     6A    -11.263661
       7A    -11.243017     8A    -11.242235     9A    -11.240493
      10A    -11.240271    11A    -11.234674    12A    -11.225216
      13A    -11.221467    14A     -1.262717    15A     -1.213791
      16A     -1.127585    17A     -1.089228    18A     -1.061064
      19A     -0.997032    20A     -0.980611    21A     -0.871515
      22A     -0.864629    23A     -0.816907    24A     -0.799734
      25A     -0.718453    26A     -0.690579    27A     -0.684787
      28A     -0.663372    29A     -0.653316    30A     -0.626904
      31A     -0.596912    32A     -0.592999    33A     -0.584569
      34A     -0.574058    35A     -0.549990    36A     -0.536126
      37A     -0.518934    38A     -0.501872    39A     -0.492521
      40A     -0.442435    41A     -0.421455    42A     -0.389195
      43A     -0.368716    44A     -0.319137    45A     -0.287679

  @DF-RHF Final Energy:  -531.44808430784042

   => Energetics <=

    Nuclear Repulsion Energy =            714.4059185236529856
    One-Electron Energy =               -2137.3407023114496042
    Two-Electron Energy =                 891.4866994799563145
    Total Energy =                       -531.4480843078404178
  Basis Set: (AUG-CC-PVTZ AUX)
    Blend: AUG-CC-PVTZ-RI
    Molecular point group: c1

    Geometry (in Angstrom), charge = 0, multiplicity = 1:

       Center              X                  Y                   Z               Mass
    ------------   -----------------  -----------------  -----------------  -----------------
         N            1.440537392892     0.921542992121    -0.547029309190    14.003074004430
         N           -0.868834607108     2.167236992121     0.516361690810    14.003074004430
         C           -0.647533607108    -0.209722007879    -0.042267309190    12.000000000000
         C            0.830134392892    -0.161648007879    -0.009900309190    12.000000000000
         C           -1.445632607108     0.937890992121     0.189252690810    12.000000000000
         C           -1.277114607108    -1.434995007879    -0.314290309190    12.000000000000
         C           -2.843157107108     0.824020092121     0.058850890810    12.000000000000
         C            1.566096392892    -1.217005007879     0.554067690810    12.000000000000
         C           -2.663534607108    -1.562594007879    -0.314005309190    12.000000000000
         C           -3.447200607108    -0.437118007879    -0.051612309190    12.000000000000
         C            2.957185392892    -1.176176007879     0.523148690810    12.000000000000
         C            3.584349392892    -0.070628007879    -0.050625309190    12.000000000000
         C            2.784071392892     0.952782992121    -0.556294309190    12.000000000000
         H           -0.658191607108    -2.299570007879    -0.546903309190     1.007825032230
         H           -3.458043607108     1.666586992121     0.401734690810     1.007825032230
         H            1.045579392892    -2.046321007879     1.024068690810     1.007825032230
         H           -3.126097607108    -2.520483007879    -0.536585309190     1.007825032230
         H           -4.532340607108    -0.511923007879    -0.043681309190     1.007825032230
         H            3.541673392892    -1.985436007879     0.954449690810     1.007825032230
         H            0.019367392892     2.312754992121     0.042839690810     1.007825032230
         H           -1.502208607108     2.948765992121     0.382049690810     1.007825032230
         H            4.666987392892     0.007395992121    -0.093065309190     1.007825032230
         H            3.231749392892     1.842699992121    -0.995972309190     1.007825032230

  Basis Set: AUG-CC-PVTZ
    Blend: AUG-CC-PVTZ
  Basis Set: (AUG-CC-PVTZ AUX)
    Blend: AUG-CC-PVTZ-JKFIT
	 Reference Energy          =    -531.4480843078404178 [Eh]
	 Singles Energy            =      -0.0000000000000000 [Eh]
	 Same-Spin Energy          =      -0.5966988946576397 [Eh]
	 Opposite-Spin Energy      =      -1.8214339127372576 [Eh]
	 Correlation Energy        =      -2.4181328073948976 [Eh]
	 Total Energy              =    -533.8662171152352585 [Eh]

	 ================> DF-SCS-MP2 Energies <==================
	-----------------------------------------------------------
	 SCS Same-Spin Scale       =       0.3333333333333333 [-]
	 SCS Opposite-Spin Scale   =       1.2000000000000000 [-]
	 SCS Same-Spin Energy      =      -0.1988996315525466 [Eh]
	 SCS Opposite-Spin Energy  =      -2.1857206952847092 [Eh]
	 SCS Correlation Energy    =      -2.3846203268372559 [Eh]
	 SCS Total Energy          =    -533.8327046346777252 [Eh]
	-----------------------------------------------------------

  Dipole Moment: [D]
     X:     1.5882      Y:    -0.4949      Z:     0.1014     Total:     1.6666

*** Psi4 exiting successfully. Buy a developer a beer!
