                               Psi4 1.4a2.dev612

  ==> Input File <==

--------------------------------------------------------------------------
#psi4
#
memory 32 gb

molecule  {
0 1
  N        1.4447430     0.9271060    -0.5600120
  N       -0.8646290     2.1728000     0.5033790
  C       -0.6433280    -0.2041590    -0.0552500
  C        0.8343400    -0.1560850    -0.0228830
  C       -1.4414270     0.9434540     0.1762700
  C       -1.2729090    -1.4294320    -0.3272730
  C       -2.8381000     0.7953410     0.1919050
  C        1.5703020    -1.2114420     0.5410850
  C       -2.6593290    -1.5570310    -0.3269880
  C       -3.4429950    -0.4315550    -0.0645950
  C        2.9613910    -1.1706130     0.5101660
  C        3.5885550    -0.0650650    -0.0636080
  C        2.7882770     0.9583460    -0.5692770
  H       -0.6539860    -2.2940070    -0.5598860
  H       -3.4538380     1.6721500     0.3887520
  H        1.0497850    -2.0407580     1.0110860
  H       -3.1218920    -2.5149200    -0.5495680
  H       -4.5281350    -0.5063600    -0.0566640
  H        3.5456814    -2.0495837     0.8086499
  H        0.0235730     2.3183180     0.0298570
  H       -1.4980030     2.9543290     0.3690670
  H        4.6711930     0.0129590    -0.1060480
  H        3.2359550     1.8482630    -1.0089550
units angstrom
no_reorient  #important for SAPT in psi4, default
symmetry c1  #important for SAPT in psi4, default
}

set PROPERTIES_ORIGIN ["COM"]
properties('MP2/aug-cc-pvtz', properties = ['dipole'])
--------------------------------------------------------------------------

    Molecular point group: c1
  Charge       = 0
  Multiplicity = 1
  Basis Set: AUG-CC-PVTZ
    Blend: AUG-CC-PVTZ
  Basis Set: (AUG-CC-PVTZ AUX)
    Blend: AUG-CC-PVTZ-JKFIT

    Orbital Energies [Eh]
    ---------------------

    Doubly Occupied:

       1A    -15.568987     2A    -15.551091     3A    -11.290115
       4A    -11.281489     5A    -11.280936     6A    -11.264440
       7A    -11.242807     8A    -11.242186     9A    -11.239204
      10A    -11.238206    11A    -11.234634    12A    -11.224002
      13A    -11.221265    14A     -1.262634    15A     -1.214038
      16A     -1.127960    17A     -1.088853    18A     -1.061466
      19A     -0.997853    20A     -0.980708    21A     -0.871624
      22A     -0.864026    23A     -0.817017    24A     -0.800424
      25A     -0.718202    26A     -0.690708    27A     -0.684863
      28A     -0.663503    29A     -0.653396    30A     -0.627103
      31A     -0.595480    32A     -0.592511    33A     -0.585978
      34A     -0.572798    35A     -0.551398    36A     -0.536737
      37A     -0.519700    38A     -0.501548    39A     -0.493852
      40A     -0.445316    41A     -0.421393    42A     -0.388048
      43A     -0.368783    44A     -0.319219    45A     -0.286716

  @DF-RHF Final Energy:  -531.45207121402495

   => Energetics <=

    Nuclear Repulsion Energy =            714.6006603386059624
    One-Electron Energy =               -2137.7390312174638893
    Two-Electron Energy =                 891.6862996648330864
    Total Energy =                       -531.4520712140249543
  Basis Set: (AUG-CC-PVTZ AUX)
    Blend: AUG-CC-PVTZ-RI
    Molecular point group: c1

    Geometry (in Angstrom), charge = 0, multiplicity = 1:

       Center              X                  Y                   Z               Mass
    ------------   -----------------  -----------------  -----------------  -----------------
         N            1.440478487702     0.924371948764    -0.556545674111    14.003074004430
         N           -0.868893512298     2.170065948764     0.506845325889    14.003074004430
         C           -0.647592512298    -0.206893051236    -0.051783674111    12.000000000000
         C            0.830075487702    -0.158819051236    -0.019416674111    12.000000000000
         C           -1.445691512298     0.940719948764     0.179736325889    12.000000000000
         C           -1.277173512298    -1.432166051236    -0.323806674111    12.000000000000
         C           -2.842364512298     0.792606948764     0.195371325889    12.000000000000
         C            1.566037487702    -1.214176051236     0.544551325889    12.000000000000
         C           -2.663593512298    -1.559765051236    -0.323521674111    12.000000000000
         C           -3.447259512298    -0.434289051236    -0.061128674111    12.000000000000
         C            2.957126487702    -1.173347051236     0.513632325889    12.000000000000
         C            3.584290487702    -0.067799051236    -0.060141674111    12.000000000000
         C            2.784012487702     0.955611948764    -0.565810674111    12.000000000000
         H           -0.658250512298    -2.296741051236    -0.556419674111     1.007825032230
         H           -3.458102512298     1.669415948764     0.392218325889     1.007825032230
         H            1.045520487702    -2.043492051236     1.014552325889     1.007825032230
         H           -3.126156512298    -2.517654051236    -0.546101674111     1.007825032230
         H           -4.532399512298    -0.509094051236    -0.053197674111     1.007825032230
         H            3.541416887702    -2.052317751236     0.812116225889     1.007825032230
         H            0.019308487702     2.315583948764     0.033323325889     1.007825032230
         H           -1.502267512298     2.951594948764     0.372533325889     1.007825032230
         H            4.666928487702     0.010224948764    -0.102581674111     1.007825032230
         H            3.231690487702     1.845528948764    -1.005488674111     1.007825032230

  Basis Set: AUG-CC-PVTZ
    Blend: AUG-CC-PVTZ
  Basis Set: (AUG-CC-PVTZ AUX)
    Blend: AUG-CC-PVTZ-JKFIT
	 Reference Energy          =    -531.4520712140249543 [Eh]
	 Singles Energy            =      -0.0000000000000000 [Eh]
	 Same-Spin Energy          =      -0.5965859625890368 [Eh]
	 Opposite-Spin Energy      =      -1.8209494020560810 [Eh]
	 Correlation Energy        =      -2.4175353646451176 [Eh]
	 Total Energy              =    -533.8696065786700728 [Eh]

	 ================> DF-SCS-MP2 Energies <==================
	-----------------------------------------------------------
	 SCS Same-Spin Scale       =       0.3333333333333333 [-]
	 SCS Opposite-Spin Scale   =       1.2000000000000000 [-]
	 SCS Same-Spin Energy      =      -0.1988619875296789 [Eh]
	 SCS Opposite-Spin Energy  =      -2.1851392824672971 [Eh]
	 SCS Correlation Energy    =      -2.3840012699969759 [Eh]
	 SCS Total Energy          =    -533.8360724840218836 [Eh]
	-----------------------------------------------------------

  Dipole Moment: [D]
     X:     1.5166      Y:    -0.4527      Z:    -0.0697     Total:     1.5842

*** Psi4 exiting successfully. Buy a developer a beer!
