                               Psi4 1.4a2.dev612

  ==> Input File <==

--------------------------------------------------------------------------
#psi4
#
memory 32 gb

molecule  {
0 1
  N        1.4447430     0.9271060    -0.5600120
  N       -0.8646290     2.1728000     0.5033790
  C       -0.6433280    -0.2041590    -0.0552500
  C        0.8343400    -0.1560850    -0.0228830
  C       -1.4414270     0.9434540     0.1762700
  C       -1.2729090    -1.4294320    -0.3272730
  C       -2.8383838     0.8067550     0.1432261
  C        1.5703020    -1.2114420     0.5410850
  C       -2.6593290    -1.5570310    -0.3269880
  C       -3.4429950    -0.4315550    -0.0645950
  C        2.9613910    -1.1706130     0.5101660
  C        3.5885550    -0.0650650    -0.0636080
  C        2.7882770     0.9583460    -0.5692770
  H       -0.6539860    -2.2940070    -0.5598860
  H       -3.4538380     1.6721500     0.3887520
  H        1.0497850    -2.0407580     1.0110860
  H       -3.1218920    -2.5149200    -0.5495680
  H       -4.5281350    -0.5063600    -0.0566640
  H        3.5458790    -1.9798730     0.9414670
  H        0.0235730     2.3183180     0.0298570
  H       -1.4980030     2.9543290     0.3690670
  H        4.6711930     0.0129590    -0.1060480
  H        3.2359550     1.8482630    -1.0089550
units angstrom
no_reorient  #important for SAPT in psi4, default
symmetry c1  #important for SAPT in psi4, default
}

set PROPERTIES_ORIGIN ["COM"]
properties('MP2/aug-cc-pvtz', properties = ['dipole'])
--------------------------------------------------------------------------

    Molecular point group: c1
  Charge       = 0
  Multiplicity = 1
  Basis Set: AUG-CC-PVTZ
    Blend: AUG-CC-PVTZ
  Basis Set: (AUG-CC-PVTZ AUX)
    Blend: AUG-CC-PVTZ-JKFIT

    Orbital Energies [Eh]
    ---------------------

    Doubly Occupied:

       1A    -15.568926     2A    -15.550826     3A    -11.290079
       4A    -11.281448     5A    -11.280869     6A    -11.263522
       7A    -11.242797     8A    -11.242058     9A    -11.239357
      10A    -11.238498    11A    -11.234603    12A    -11.224022
      13A    -11.221327    14A     -1.262568    15A     -1.213913
      16A     -1.127837    17A     -1.089056    18A     -1.061350
      19A     -0.997713    20A     -0.980691    21A     -0.871626
      22A     -0.864550    23A     -0.817014    24A     -0.800554
      25A     -0.718780    26A     -0.690621    27A     -0.684965
      28A     -0.663445    29A     -0.653311    30A     -0.627192
      31A     -0.596190    32A     -0.592673    33A     -0.586017
      34A     -0.574249    35A     -0.550492    36A     -0.536504
      37A     -0.519743    38A     -0.501678    39A     -0.493796
      40A     -0.444417    41A     -0.421087    42A     -0.389056
      43A     -0.368690    44A     -0.319092    45A     -0.286987

  @DF-RHF Final Energy:  -531.45313843412168

   => Energetics <=

    Nuclear Repulsion Energy =            714.6184416403012847
    One-Electron Energy =               -2137.7747876982198250
    Two-Electron Energy =                 891.7032076237969704
    Total Energy =                       -531.4531384341216835
  Basis Set: (AUG-CC-PVTZ AUX)
    Blend: AUG-CC-PVTZ-RI
    Molecular point group: c1

    Geometry (in Angstrom), charge = 0, multiplicity = 1:

       Center              X                  Y                   Z               Mass
    ------------   -----------------  -----------------  -----------------  -----------------
         N            1.440497339836     0.923153587817    -0.553898221397    14.003074004430
         N           -0.868874660164     2.168847587817     0.509492778603    14.003074004430
         C           -0.647573660164    -0.208111412183    -0.049136221397    12.000000000000
         C            0.830094339836    -0.160037412183    -0.016769221397    12.000000000000
         C           -1.445672660164     0.939501587817     0.182383778603    12.000000000000
         C           -1.277154660164    -1.433384412183    -0.321159221397    12.000000000000
         C           -2.842629460164     0.802802587817     0.149339878603    12.000000000000
         C            1.566056339836    -1.215394412183     0.547198778603    12.000000000000
         C           -2.663574660164    -1.560983412183    -0.320874221397    12.000000000000
         C           -3.447240660164    -0.435507412183    -0.058481221397    12.000000000000
         C            2.957145339836    -1.174565412183     0.516279778603    12.000000000000
         C            3.584309339836    -0.069017412183    -0.057494221397    12.000000000000
         C            2.784031339836     0.954393587817    -0.563163221397    12.000000000000
         H           -0.658231660164    -2.297959412183    -0.553772221397     1.007825032230
         H           -3.458083660164     1.668197587817     0.394865778603     1.007825032230
         H            1.045539339836    -2.044710412183     1.017199778603     1.007825032230
         H           -3.126137660164    -2.518872412183    -0.543454221397     1.007825032230
         H           -4.532380660164    -0.510312412183    -0.050550221397     1.007825032230
         H            3.541633339836    -1.983825412183     0.947580778603     1.007825032230
         H            0.019327339836     2.314365587817     0.035970778603     1.007825032230
         H           -1.502248660164     2.950376587817     0.375180778603     1.007825032230
         H            4.666947339836     0.009006587817    -0.099934221397     1.007825032230
         H            3.231709339836     1.844310587817    -1.002841221397     1.007825032230

  Basis Set: AUG-CC-PVTZ
    Blend: AUG-CC-PVTZ
  Basis Set: (AUG-CC-PVTZ AUX)
    Blend: AUG-CC-PVTZ-JKFIT
	 Reference Energy          =    -531.4531384341216835 [Eh]
	 Singles Energy            =      -0.0000000000000000 [Eh]
	 Same-Spin Energy          =      -0.5965170811025264 [Eh]
	 Opposite-Spin Energy      =      -1.8208034257507670 [Eh]
	 Correlation Energy        =      -2.4173205068532937 [Eh]
	 Total Energy              =    -533.8704589409750270 [Eh]

	 ================> DF-SCS-MP2 Energies <==================
	-----------------------------------------------------------
	 SCS Same-Spin Scale       =       0.3333333333333333 [-]
	 SCS Opposite-Spin Scale   =       1.2000000000000000 [-]
	 SCS Same-Spin Energy      =      -0.1988390270341755 [Eh]
	 SCS Opposite-Spin Energy  =      -2.1849641109009204 [Eh]
	 SCS Correlation Energy    =      -2.3838031379350957 [Eh]
	 SCS Total Energy          =    -533.8369415720567304 [Eh]
	-----------------------------------------------------------

  Dipole Moment: [D]
     X:     1.5360      Y:    -0.4390      Z:     0.0436     Total:     1.5981

*** Psi4 exiting successfully. Buy a developer a beer!
