                               Psi4 1.4a2.dev612

  ==> Input File <==

--------------------------------------------------------------------------
#psi4
#
memory 32 gb

molecule  {
0 1
  N        1.4447430     0.9271060    -0.5600120
  N       -0.8646290     2.1728000     0.5033790
  C       -0.6433280    -0.2041590    -0.0552500
  C        0.8343400    -0.1560850    -0.0228830
  C       -1.4414270     0.9434540     0.1762700
  C       -1.2729090    -1.4294320    -0.3272730
  C       -2.8381000     0.7953410     0.1919050
  C        1.5703020    -1.2114420     0.5410850
  C       -2.6593290    -1.5570310    -0.3269880
  C       -3.4429950    -0.4315550    -0.0645950
  C        2.9613910    -1.1706130     0.5101660
  C        3.5885550    -0.0650650    -0.0636080
  C        2.7882770     0.9583460    -0.5692770
  H       -0.6539860    -2.2940070    -0.5598860
  H       -3.4538380     1.6721500     0.3887520
  H        1.0497850    -2.0407580     1.0110860
  H       -3.1218920    -2.5149200    -0.5495680
  H       -4.5281350    -0.5063600    -0.0566640
  H        3.5454838    -2.1192945     0.6758329
  H        0.0235730     2.3183180     0.0298570
  H       -1.4980030     2.9543290     0.3690670
  H        4.6711930     0.0129590    -0.1060480
  H        3.2359550     1.8482630    -1.0089550
units angstrom
no_reorient  #important for SAPT in psi4, default
symmetry c1  #important for SAPT in psi4, default
}

set PROPERTIES_ORIGIN ["COM"]
properties('MP2/aug-cc-pvtz', properties = ['dipole'])
--------------------------------------------------------------------------

    Molecular point group: c1
  Charge       = 0
  Multiplicity = 1
  Basis Set: AUG-CC-PVTZ
    Blend: AUG-CC-PVTZ
  Basis Set: (AUG-CC-PVTZ AUX)
    Blend: AUG-CC-PVTZ-JKFIT

    Orbital Energies [Eh]
    ---------------------

    Doubly Occupied:

       1A    -15.569444     2A    -15.551224     3A    -11.290309
       4A    -11.281719     5A    -11.281055     6A    -11.267206
       7A    -11.243244     8A    -11.242722     9A    -11.239313
      10A    -11.238285    11A    -11.234795    12A    -11.224115
      13A    -11.221369    14A     -1.262954    15A     -1.214181
      16A     -1.128084    17A     -1.088406    18A     -1.061696
      19A     -0.998016    20A     -0.980853    21A     -0.871759
      22A     -0.862587    23A     -0.817149    24A     -0.799609
      25A     -0.716404    26A     -0.690904    27A     -0.684487
      28A     -0.663696    29A     -0.653616    30A     -0.626669
      31A     -0.595446    32A     -0.592716    33A     -0.585677
      34A     -0.569371    35A     -0.551085    36A     -0.536971
      37A     -0.519145    38A     -0.501687    39A     -0.493999
      40A     -0.445477    41A     -0.422231    42A     -0.386342
      43A     -0.369003    44A     -0.319392    45A     -0.286870

  @DF-RHF Final Energy:  -531.44718005310926

   => Energetics <=

    Nuclear Repulsion Energy =            714.4891869417818953
    One-Electron Energy =               -2137.5101690391475131
    Two-Electron Energy =                 891.5738020442562402
    Total Energy =                       -531.4471800531092640
  Basis Set: (AUG-CC-PVTZ AUX)
    Blend: AUG-CC-PVTZ-RI
    Molecular point group: c1

    Geometry (in Angstrom), charge = 0, multiplicity = 1:

       Center              X                  Y                   Z               Mass
    ------------   -----------------  -----------------  -----------------  -----------------
         N            1.440479658569     0.924785015982    -0.555758674841    14.003074004430
         N           -0.868892341431     2.170479015982     0.507632325159    14.003074004430
         C           -0.647591341431    -0.206479984018    -0.050996674841    12.000000000000
         C            0.830076658569    -0.158405984018    -0.018629674841    12.000000000000
         C           -1.445690341431     0.941133015982     0.180523325159    12.000000000000
         C           -1.277172341431    -1.431752984018    -0.323019674841    12.000000000000
         C           -2.842363341431     0.793020015982     0.196158325159    12.000000000000
         C            1.566038658569    -1.213762984018     0.545338325159    12.000000000000
         C           -2.663592341431    -1.559351984018    -0.322734674841    12.000000000000
         C           -3.447258341431    -0.433875984018    -0.060341674841    12.000000000000
         C            2.957127658569    -1.172933984018     0.514419325159    12.000000000000
         C            3.584291658569    -0.067385984018    -0.059354674841    12.000000000000
         C            2.784013658569     0.956025015982    -0.565023674841    12.000000000000
         H           -0.658249341431    -2.296327984018    -0.555632674841     1.007825032230
         H           -3.458101341431     1.669829015982     0.393005325159     1.007825032230
         H            1.045521658569    -2.043078984018     1.015339325159     1.007825032230
         H           -3.126155341431    -2.517240984018    -0.545314674841     1.007825032230
         H           -4.532398341431    -0.508680984018    -0.052410674841     1.007825032230
         H            3.541220458569    -2.121615484018     0.680086225159     1.007825032230
         H            0.019309658569     2.315997015982     0.034110325159     1.007825032230
         H           -1.502266341431     2.952008015982     0.373320325159     1.007825032230
         H            4.666929658569     0.010638015982    -0.101794674841     1.007825032230
         H            3.231691658569     1.845942015982    -1.004701674841     1.007825032230

  Basis Set: AUG-CC-PVTZ
    Blend: AUG-CC-PVTZ
  Basis Set: (AUG-CC-PVTZ AUX)
    Blend: AUG-CC-PVTZ-JKFIT
	 Reference Energy          =    -531.4471800531092640 [Eh]
	 Singles Energy            =      -0.0000000000000000 [Eh]
	 Same-Spin Energy          =      -0.5968401434825663 [Eh]
	 Opposite-Spin Energy      =      -1.8215528269955972 [Eh]
	 Correlation Energy        =      -2.4183929704781635 [Eh]
	 Total Energy              =    -533.8655730235874444 [Eh]

	 ================> DF-SCS-MP2 Energies <==================
	-----------------------------------------------------------
	 SCS Same-Spin Scale       =       0.3333333333333333 [-]
	 SCS Opposite-Spin Scale   =       1.2000000000000000 [-]
	 SCS Same-Spin Energy      =      -0.1989467144941888 [Eh]
	 SCS Opposite-Spin Energy  =      -2.1858633923947166 [Eh]
	 SCS Correlation Energy    =      -2.3848101068889056 [Eh]
	 SCS Total Energy          =    -533.8319901599982131 [Eh]
	-----------------------------------------------------------

  Dipole Moment: [D]
     X:     1.4828      Y:    -0.4590      Z:    -0.1636     Total:     1.5608

*** Psi4 exiting successfully. Buy a developer a beer!
