                               Psi4 1.4a2.dev612

  ==> Input File <==

--------------------------------------------------------------------------
#psi4
#
memory 32 gb

molecule  {
0 1
  N        1.4447430     0.9271060    -0.5600120
  N       -0.8646290     2.1728000     0.5033790
  C       -0.6433280    -0.2041590    -0.0552500
  C        0.8343400    -0.1560850    -0.0228830
  C       -1.4414270     0.9434540     0.1762700
  C       -1.2729090    -1.4294320    -0.3272730
  C       -2.8381000     0.7953410     0.1919050
  C        1.5686982    -1.1886399     0.5855540
  C       -2.6593290    -1.5570310    -0.3269880
  C       -3.4429950    -0.4315550    -0.0645950
  C        2.9613910    -1.1706130     0.5101660
  C        3.5885550    -0.0650650    -0.0636080
  C        2.7882770     0.9583460    -0.5692770
  H       -0.6539860    -2.2940070    -0.5598860
  H       -3.4538380     1.6721500     0.3887520
  H        1.0497850    -2.0407580     1.0110860
  H       -3.1218920    -2.5149200    -0.5495680
  H       -4.5281350    -0.5063600    -0.0566640
  H        3.5458790    -1.9798730     0.9414670
  H        0.0235730     2.3183180     0.0298570
  H       -1.4980030     2.9543290     0.3690670
  H        4.6711930     0.0129590    -0.1060480
  H        3.2359550     1.8482630    -1.0089550
units angstrom
no_reorient  #important for SAPT in psi4, default
symmetry c1  #important for SAPT in psi4, default
}

set PROPERTIES_ORIGIN ["COM"]
properties('MP2/aug-cc-pvtz', properties = ['dipole'])
--------------------------------------------------------------------------

    Molecular point group: c1
  Charge       = 0
  Multiplicity = 1
  Basis Set: AUG-CC-PVTZ
    Blend: AUG-CC-PVTZ
  Basis Set: (AUG-CC-PVTZ AUX)
    Blend: AUG-CC-PVTZ-JKFIT

    Orbital Energies [Eh]
    ---------------------

    Doubly Occupied:

       1A    -15.568884     2A    -15.551069     3A    -11.290148
       4A    -11.281546     5A    -11.280896     6A    -11.263891
       7A    -11.242784     8A    -11.242305     9A    -11.239255
      10A    -11.238178    11A    -11.234558    12A    -11.223984
      13A    -11.221256    14A     -1.262509    15A     -1.213990
      16A     -1.127908    17A     -1.088652    18A     -1.061340
      19A     -0.997852    20A     -0.980638    21A     -0.871494
      22A     -0.864404    23A     -0.816995    24A     -0.800722
      25A     -0.718749    26A     -0.690655    27A     -0.684963
      28A     -0.663294    29A     -0.653527    30A     -0.627350
      31A     -0.595453    32A     -0.592673    33A     -0.586101
      34A     -0.574243    35A     -0.550113    36A     -0.536707
      37A     -0.520587    38A     -0.501186    39A     -0.493760
      40A     -0.445294    41A     -0.421073    42A     -0.388417
      43A     -0.368075    44A     -0.319456    45A     -0.286903

  @DF-RHF Final Energy:  -531.45270737077078

   => Energetics <=

    Nuclear Repulsion Energy =            714.5895813750934167
    One-Electron Energy =               -2137.7169006261037794
    Two-Electron Energy =                 891.6746118802394676
    Total Energy =                       -531.4527073707707814
  Basis Set: (AUG-CC-PVTZ AUX)
    Blend: AUG-CC-PVTZ-RI
    Molecular point group: c1

    Geometry (in Angstrom), charge = 0, multiplicity = 1:

       Center              X                  Y                   Z               Mass
    ------------   -----------------  -----------------  -----------------  -----------------
         N            1.440590470071     0.922350120825    -0.560470104597    14.003074004430
         N           -0.868781529929     2.168044120825     0.502920895403    14.003074004430
         C           -0.647480529929    -0.208914879175    -0.055708104597    12.000000000000
         C            0.830187470071    -0.160840879175    -0.023341104597    12.000000000000
         C           -1.445579529929     0.938698120825     0.175811895403    12.000000000000
         C           -1.277061529929    -1.434187879175    -0.327731104597    12.000000000000
         C           -2.842252529929     0.790585120825     0.191446895403    12.000000000000
         C            1.564545670071    -1.193395779175     0.585095895403    12.000000000000
         C           -2.663481529929    -1.561786879175    -0.327446104597    12.000000000000
         C           -3.447147529929    -0.436310879175    -0.065053104597    12.000000000000
         C            2.957238470071    -1.175368879175     0.509707895403    12.000000000000
         C            3.584402470071    -0.069820879175    -0.064066104597    12.000000000000
         C            2.784124470071     0.953590120825    -0.569735104597    12.000000000000
         H           -0.658138529929    -2.298762879175    -0.560344104597     1.007825032230
         H           -3.457990529929     1.667394120825     0.388293895403     1.007825032230
         H            1.045632470071    -2.045513879175     1.010627895403     1.007825032230
         H           -3.126044529929    -2.519675879175    -0.550026104597     1.007825032230
         H           -4.532287529929    -0.511115879175    -0.057122104597     1.007825032230
         H            3.541726470071    -1.984628879175     0.941008895403     1.007825032230
         H            0.019420470071     2.313562120825     0.029398895403     1.007825032230
         H           -1.502155529929     2.949573120825     0.368608895403     1.007825032230
         H            4.667040470071     0.008203120825    -0.106506104597     1.007825032230
         H            3.231802470071     1.843507120825    -1.009413104597     1.007825032230

  Basis Set: AUG-CC-PVTZ
    Blend: AUG-CC-PVTZ
  Basis Set: (AUG-CC-PVTZ AUX)
    Blend: AUG-CC-PVTZ-JKFIT
	 Reference Energy          =    -531.4527073707707814 [Eh]
	 Singles Energy            =      -0.0000000000000000 [Eh]
	 Same-Spin Energy          =      -0.5965165055113149 [Eh]
	 Opposite-Spin Energy      =      -1.8208182841029581 [Eh]
	 Correlation Energy        =      -2.4173347896142729 [Eh]
	 Total Energy              =    -533.8700421603850828 [Eh]

	 ================> DF-SCS-MP2 Energies <==================
	-----------------------------------------------------------
	 SCS Same-Spin Scale       =       0.3333333333333333 [-]
	 SCS Opposite-Spin Scale   =       1.2000000000000000 [-]
	 SCS Same-Spin Energy      =      -0.1988388351704383 [Eh]
	 SCS Opposite-Spin Energy  =      -2.1849819409235498 [Eh]
	 SCS Correlation Energy    =      -2.3838207760939882 [Eh]
	 SCS Total Energy          =    -533.8365281468647936 [Eh]
	-----------------------------------------------------------

  Dipole Moment: [D]
     X:     1.5262      Y:    -0.4247      Z:     0.0018     Total:     1.5842

*** Psi4 exiting successfully. Buy a developer a beer!
