                               Psi4 1.4a2.dev612

  ==> Input File <==

--------------------------------------------------------------------------
#psi4
#
memory 32 gb

molecule  {
0 1
  N        1.4447430     0.9271060    -0.5600120
  N       -0.8646290     2.1728000     0.5033790
  C       -0.6433280    -0.2041590    -0.0552500
  C        0.8343400    -0.1560850    -0.0228830
  C       -1.4414270     0.9434540     0.1762700
  C       -1.2729090    -1.4294320    -0.3272730
  C       -2.8392353     0.8409971    -0.0028108
  C        1.5703020    -1.2114420     0.5410850
  C       -2.6593290    -1.5570310    -0.3269880
  C       -3.4429950    -0.4315550    -0.0645950
  C        2.9613910    -1.1706130     0.5101660
  C        3.5885550    -0.0650650    -0.0636080
  C        2.7882770     0.9583460    -0.5692770
  H       -0.6539860    -2.2940070    -0.5598860
  H       -3.4538380     1.6721500     0.3887520
  H        1.0497850    -2.0407580     1.0110860
  H       -3.1218920    -2.5149200    -0.5495680
  H       -4.5281350    -0.5063600    -0.0566640
  H        3.5458790    -1.9798730     0.9414670
  H        0.0235730     2.3183180     0.0298570
  H       -1.4980030     2.9543290     0.3690670
  H        4.6711930     0.0129590    -0.1060480
  H        3.2359550     1.8482630    -1.0089550
units angstrom
no_reorient  #important for SAPT in psi4, default
symmetry c1  #important for SAPT in psi4, default
}

set PROPERTIES_ORIGIN ["COM"]
properties('MP2/aug-cc-pvtz', properties = ['dipole'])
--------------------------------------------------------------------------

    Molecular point group: c1
  Charge       = 0
  Multiplicity = 1
  Basis Set: AUG-CC-PVTZ
    Blend: AUG-CC-PVTZ
  Basis Set: (AUG-CC-PVTZ AUX)
    Blend: AUG-CC-PVTZ-JKFIT

    Orbital Energies [Eh]
    ---------------------

    Doubly Occupied:

       1A    -15.569277     2A    -15.550972     3A    -11.290292
       4A    -11.283326     5A    -11.281727     6A    -11.263776
       7A    -11.243155     8A    -11.242364     9A    -11.241711
      10A    -11.241457    11A    -11.234722    12A    -11.226331
      13A    -11.221528    14A     -1.262838    15A     -1.213765
      16A     -1.127438    17A     -1.089355    18A     -1.060835
      19A     -0.996440    20A     -0.980503    21A     -0.871389
      22A     -0.864690    23A     -0.816783    24A     -0.799079
      25A     -0.718196    26A     -0.690586    27A     -0.684639
      28A     -0.663310    29A     -0.653330    30A     -0.626700
      31A     -0.596936    32A     -0.593141    33A     -0.583382
      34A     -0.573830    35A     -0.549716    36A     -0.535922
      37A     -0.518525    38A     -0.501809    39A     -0.491169
      40A     -0.441291    41A     -0.421650    42A     -0.389294
      43A     -0.368732    44A     -0.319257    45A     -0.288040

  @DF-RHF Final Energy:  -531.44335386536727

   => Energetics <=

    Nuclear Repulsion Energy =            714.2151906184587915
    One-Electron Energy =               -2136.9506816643379352
    Two-Electron Energy =                 891.2921371805118724
    Total Energy =                       -531.4433538653672713
  Basis Set: (AUG-CC-PVTZ AUX)
    Blend: AUG-CC-PVTZ-RI
    Molecular point group: c1

    Geometry (in Angstrom), charge = 0, multiplicity = 1:

       Center              X                  Y                   Z               Mass
    ------------   -----------------  -----------------  -----------------  -----------------
         N            1.440557415893     0.920737697800    -0.543594849558    14.003074004430
         N           -0.868814584107     2.166431697800     0.519796150442    14.003074004430
         C           -0.647513584107    -0.210527302200    -0.038832849558    12.000000000000
         C            0.830154415893    -0.162453302200    -0.006465849558    12.000000000000
         C           -1.445612584107     0.937085697800     0.192687150442    12.000000000000
         C           -1.277094584107    -1.435800302200    -0.310855849558    12.000000000000
         C           -2.843420884107     0.834628797800     0.013606350442    12.000000000000
         C            1.566116415893    -1.217810302200     0.557502150442    12.000000000000
         C           -2.663514584107    -1.563399302200    -0.310570849558    12.000000000000
         C           -3.447180584107    -0.437923302200    -0.048177849558    12.000000000000
         C            2.957205415893    -1.176981302200     0.526583150442    12.000000000000
         C            3.584369415893    -0.071433302200    -0.047190849558    12.000000000000
         C            2.784091415893     0.951977697800    -0.552859849558    12.000000000000
         H           -0.658171584107    -2.300375302200    -0.543468849558     1.007825032230
         H           -3.458023584107     1.665781697800     0.405169150442     1.007825032230
         H            1.045599415893    -2.047126302200     1.027503150442     1.007825032230
         H           -3.126077584107    -2.521288302200    -0.533150849558     1.007825032230
         H           -4.532320584107    -0.512728302200    -0.040246849558     1.007825032230
         H            3.541693415893    -1.986241302200     0.957884150442     1.007825032230
         H            0.019387415893     2.311949697800     0.046274150442     1.007825032230
         H           -1.502188584107     2.947960697800     0.385484150442     1.007825032230
         H            4.667007415893     0.006590697800    -0.089630849558     1.007825032230
         H            3.231769415893     1.841894697800    -0.992537849558     1.007825032230

  Basis Set: AUG-CC-PVTZ
    Blend: AUG-CC-PVTZ
  Basis Set: (AUG-CC-PVTZ AUX)
    Blend: AUG-CC-PVTZ-JKFIT
	 Reference Energy          =    -531.4433538653672713 [Eh]
	 Singles Energy            =      -0.0000000000000000 [Eh]
	 Same-Spin Energy          =      -0.5968675511915716 [Eh]
	 Opposite-Spin Energy      =      -1.8220652735771232 [Eh]
	 Correlation Energy        =      -2.4189328247686950 [Eh]
	 Total Energy              =    -533.8622866901359885 [Eh]

	 ================> DF-SCS-MP2 Energies <==================
	-----------------------------------------------------------
	 SCS Same-Spin Scale       =       0.3333333333333333 [-]
	 SCS Opposite-Spin Scale   =       1.2000000000000000 [-]
	 SCS Same-Spin Energy      =      -0.1989558503971905 [Eh]
	 SCS Opposite-Spin Energy  =      -2.1864783282925480 [Eh]
	 SCS Correlation Energy    =      -2.3854341786897386 [Eh]
	 SCS Total Energy          =    -533.8287880440569779 [Eh]
	-----------------------------------------------------------

  Dipole Moment: [D]
     X:     1.6309      Y:    -0.5318      Z:     0.1304     Total:     1.7204

*** Psi4 exiting successfully. Buy a developer a beer!
