                               Psi4 1.4a2.dev612

  ==> Input File <==

--------------------------------------------------------------------------
#psi4
#
memory 32 gb

molecule  {
0 1
  N        1.4447430     0.9271060    -0.5600120
  N       -0.8646290     2.1728000     0.5033790
  C       -0.6433280    -0.2041590    -0.0552500
  C        0.8343400    -0.1560850    -0.0228830
  C       -1.4414270     0.9434540     0.1762700
  C       -1.2729090    -1.4294320    -0.3272730
  C       -2.8381000     0.7953410     0.1919050
  C        1.5670943    -1.1658379     0.6300230
  C       -2.6593290    -1.5570310    -0.3269880
  C       -3.4429950    -0.4315550    -0.0645950
  C        2.9613910    -1.1706130     0.5101660
  C        3.5885550    -0.0650650    -0.0636080
  C        2.7882770     0.9583460    -0.5692770
  H       -0.6539860    -2.2940070    -0.5598860
  H       -3.4538380     1.6721500     0.3887520
  H        1.0497850    -2.0407580     1.0110860
  H       -3.1218920    -2.5149200    -0.5495680
  H       -4.5281350    -0.5063600    -0.0566640
  H        3.5458790    -1.9798730     0.9414670
  H        0.0235730     2.3183180     0.0298570
  H       -1.4980030     2.9543290     0.3690670
  H        4.6711930     0.0129590    -0.1060480
  H        3.2359550     1.8482630    -1.0089550
units angstrom
no_reorient  #important for SAPT in psi4, default
symmetry c1  #important for SAPT in psi4, default
}

set PROPERTIES_ORIGIN ["COM"]
properties('MP2/aug-cc-pvtz', properties = ['dipole'])
--------------------------------------------------------------------------

    Molecular point group: c1
  Charge       = 0
  Multiplicity = 1
  Basis Set: AUG-CC-PVTZ
    Blend: AUG-CC-PVTZ
  Basis Set: (AUG-CC-PVTZ AUX)
    Blend: AUG-CC-PVTZ-JKFIT

    Orbital Energies [Eh]
    ---------------------

    Doubly Occupied:

       1A    -15.568857     2A    -15.551117     3A    -11.290643
       4A    -11.281918     5A    -11.280947     6A    -11.264661
       7A    -11.242968     8A    -11.242777     9A    -11.239365
      10A    -11.238204    11A    -11.234567    12A    -11.224024
      13A    -11.221292    14A     -1.262467    15A     -1.214015
      16A     -1.127914    17A     -1.088070    18A     -1.061191
      19A     -0.997859    20A     -0.980600    21A     -0.871313
      22A     -0.864094    23A     -0.816994    24A     -0.800691
      25A     -0.718578    26A     -0.690579    27A     -0.684943
      28A     -0.662803    29A     -0.653491    30A     -0.627265
      31A     -0.595173    32A     -0.592949    33A     -0.585959
      34A     -0.574168    35A     -0.549396    36A     -0.536469
      37A     -0.520991    38A     -0.500876    39A     -0.493729
      40A     -0.445360    41A     -0.421208    42A     -0.387645
      43A     -0.367373    44A     -0.319791    45A     -0.287196

  @DF-RHF Final Energy:  -531.45041939760233

   => Energetics <=

    Nuclear Repulsion Energy =            714.4823540806555684
    One-Electron Energy =               -2137.5005671720032296
    Two-Electron Energy =                 891.5677936937453296
    Total Energy =                       -531.4504193976023316
  Basis Set: (AUG-CC-PVTZ AUX)
    Blend: AUG-CC-PVTZ-RI
    Molecular point group: c1

    Geometry (in Angstrom), charge = 0, multiplicity = 1:

       Center              X                  Y                   Z               Mass
    ------------   -----------------  -----------------  -----------------  -----------------
         N            1.440703630362     0.920741366567    -0.563607535221    14.003074004430
         N           -0.868668369638     2.166435366567     0.499783464779    14.003074004430
         C           -0.647367369638    -0.210523633433    -0.058845535221    12.000000000000
         C            0.830300630362    -0.162449633433    -0.026478535221    12.000000000000
         C           -1.445466369638     0.937089366567     0.172674464779    12.000000000000
         C           -1.276948369638    -1.435796633433    -0.330868535221    12.000000000000
         C           -2.842139369638     0.788976366567     0.188309464779    12.000000000000
         C            1.563054930362    -1.172202533433     0.626427464779    12.000000000000
         C           -2.663368369638    -1.563395633433    -0.330583535221    12.000000000000
         C           -3.447034369638    -0.437919633433    -0.068190535221    12.000000000000
         C            2.957351630362    -1.176977633433     0.506570464779    12.000000000000
         C            3.584515630362    -0.071429633433    -0.067203535221    12.000000000000
         C            2.784237630362     0.951981366567    -0.572872535221    12.000000000000
         H           -0.658025369638    -2.300371633433    -0.563481535221     1.007825032230
         H           -3.457877369638     1.665785366567     0.385156464779     1.007825032230
         H            1.045745630362    -2.047122633433     1.007490464779     1.007825032230
         H           -3.125931369638    -2.521284633433    -0.553163535221     1.007825032230
         H           -4.532174369638    -0.512724633433    -0.060259535221     1.007825032230
         H            3.541839630362    -1.986237633433     0.937871464779     1.007825032230
         H            0.019533630362     2.311953366567     0.026261464779     1.007825032230
         H           -1.502042369638     2.947964366567     0.365471464779     1.007825032230
         H            4.667153630362     0.006594366567    -0.109643535221     1.007825032230
         H            3.231915630362     1.841898366567    -1.012550535221     1.007825032230

  Basis Set: AUG-CC-PVTZ
    Blend: AUG-CC-PVTZ
  Basis Set: (AUG-CC-PVTZ AUX)
    Blend: AUG-CC-PVTZ-JKFIT
	 Reference Energy          =    -531.4504193976023316 [Eh]
	 Singles Energy            =      -0.0000000000000000 [Eh]
	 Same-Spin Energy          =      -0.5965733727738597 [Eh]
	 Opposite-Spin Energy      =      -1.8210313036332222 [Eh]
	 Correlation Energy        =      -2.4176046764070818 [Eh]
	 Total Energy              =    -533.8680240740094405 [Eh]

	 ================> DF-SCS-MP2 Energies <==================
	-----------------------------------------------------------
	 SCS Same-Spin Scale       =       0.3333333333333333 [-]
	 SCS Opposite-Spin Scale   =       1.2000000000000000 [-]
	 SCS Same-Spin Energy      =      -0.1988577909246199 [Eh]
	 SCS Opposite-Spin Energy  =      -2.1852375643598667 [Eh]
	 SCS Correlation Energy    =      -2.3840953552844866 [Eh]
	 SCS Total Energy          =    -533.8345147528867756 [Eh]
	-----------------------------------------------------------

  Dipole Moment: [D]
     X:     1.5252      Y:    -0.4218      Z:    -0.0145     Total:     1.5825

*** Psi4 exiting successfully. Buy a developer a beer!
