                               Psi4 1.3.2 release

  ==> Input File <==

--------------------------------------------------------------------------
#psi4
#
memory 32 gb

molecule  {
0 1
  S        1.4017960     0.0318670    -0.2267910
  C        0.3439980    -1.2907520     0.4304430
  C       -1.0366050    -1.1980160    -0.1526860
  C       -1.6877140    -0.0149620    -0.1717330
  C       -1.0273490     1.2315180     0.1753310
  C        0.3208110     1.3651600     0.1119950
  H        0.3192380    -1.2040060     1.5241050
  H        0.8310050    -2.2339400     0.1718380
  H       -1.5959918    -2.1429635    -0.3150304
  H       -2.7141090     0.0333350    -0.5285000
  H       -1.6282610     2.1139460     0.3806850
  H        0.8050420     2.3317560     0.2174670
units angstrom
no_reorient  #important for SAPT in psi4, default
symmetry c1  #important for SAPT in psi4, default
}

set PROPERTIES_ORIGIN ["COM"]
properties('MP2/aug-cc-pvtz', properties = ['dipole'])
--------------------------------------------------------------------------

    Molecular point group: c1
  Charge       = 0
  Multiplicity = 1
  Basis Set: AUG-CC-PVTZ
    Blend: AUG-CC-PVTZ
  Basis Set: (AUG-CC-PVTZ AUX)
    Blend: AUG-CC-PVTZ-JKFIT

    Orbital Energies [Eh]
    ---------------------

    Doubly Occupied:

       1A    -91.961690     2A    -11.268921     3A    -11.268025
       4A    -11.245729     5A    -11.241461     6A    -11.240503
       7A     -8.962218     8A     -6.643469     9A     -6.642517
      10A     -6.641651    11A     -1.141846    12A     -1.026238
      13A     -1.019230    14A     -0.859794    15A     -0.815978
      16A     -0.694684    17A     -0.675107    18A     -0.608532
      19A     -0.600323    20A     -0.585632    21A     -0.535832
      22A     -0.481897    23A     -0.463278    24A     -0.446926
      25A     -0.367343    26A     -0.296856

  @DF-RHF Final Energy:  -590.40314478788412

   => Energetics <=

    Nuclear Repulsion Energy =            272.0752868234420703
    One-Electron Energy =               -1349.4855023400898517
    Two-Electron Energy =                 487.0070707287637788
    Total Energy =                       -590.4031447878841163
  Basis Set: (AUG-CC-PVTZ AUX)
    Blend: AUG-CC-PVTZ-RI
    Molecular point group: c1

    Geometry (in Angstrom), charge = 0, multiplicity = 1:

       Center              X                  Y                   Z               Mass
    ------------   -----------------  -----------------  -----------------  -----------------
         S            1.363418051239     0.021422748568    -0.215886354513    31.972071174400
         C            0.305620051239    -1.301196251432     0.441347645487    12.000000000000
         C           -1.074982948761    -1.208460251432    -0.141781354513    12.000000000000
         C           -1.726091948761    -0.025406251432    -0.160828354513    12.000000000000
         C           -1.065726948761     1.221073748568     0.186235645487    12.000000000000
         C            0.282433051239     1.354715748568     0.122899645487    12.000000000000
         H            0.280860051239    -1.214450251432     1.535009645487     1.007825032230
         H            0.792627051239    -2.244384251432     0.182742645487     1.007825032230
         H           -1.634369748761    -2.153407751432    -0.304125754513     1.007825032230
         H           -2.752486948761     0.022890748568    -0.517595354513     1.007825032230
         H           -1.666638948761     2.103501748568     0.391589645487     1.007825032230
         H            0.766664051239     2.321311748568     0.228371645487     1.007825032230

  Basis Set: AUG-CC-PVTZ
    Blend: AUG-CC-PVTZ
  Basis Set: (AUG-CC-PVTZ AUX)
    Blend: AUG-CC-PVTZ-JKFIT
	 Reference Energy          =    -590.4031447878841163 [Eh]
	 Singles Energy            =      -0.0000000000000000 [Eh]
	 Same-Spin Energy          =      -0.2678097826481769 [Eh]
	 Opposite-Spin Energy      =      -0.8628955404510990 [Eh]
	 Correlation Energy        =      -1.1307053230992758 [Eh]
	 Total Energy              =    -591.5338501109833942 [Eh]

	 ================> DF-SCS-MP2 Energies <==================
	-----------------------------------------------------------
	 SCS Same-Spin Scale       =       0.3333333333333333 [-]
	 SCS Opposite-Spin Scale   =       1.2000000000000000 [-]
	 SCS Same-Spin Energy      =      -0.0892699275493923 [Eh]
	 SCS Opposite-Spin Energy  =      -1.0354746485413187 [Eh]
	 SCS Correlation Energy    =      -1.1247445760907109 [Eh]
	 SCS Total Energy          =    -591.5278893639748503 [Eh]
	-----------------------------------------------------------

  Dipole Moment: [D]
     X:    -0.9196      Y:    -0.3402      Z:     0.6253     Total:     1.1629

*** Psi4 exiting successfully. Buy a developer a beer!
