                               Psi4 1.3.2 release

  ==> Input File <==

--------------------------------------------------------------------------
#psi4
#
memory 32 gb

molecule  {
0 1
  S        1.4017960     0.0318670    -0.2267910
  C        0.3439980    -1.2907520     0.4304430
  C       -1.0366050    -1.1980160    -0.1526860
  C       -1.6877140    -0.0149620    -0.1717330
  C       -1.0273490     1.2315180     0.1753310
  C        0.3208110     1.3651600     0.1119950
  H        0.3192380    -1.2040060     1.5241050
  H        0.8310050    -2.2339400     0.1718380
  H       -1.5205060    -2.1086570    -0.4970330
  H       -2.7597462     0.0143875    -0.3868729
  H       -1.6282610     2.1139460     0.3806850
  H        0.8050420     2.3317560     0.2174670
units angstrom
no_reorient  #important for SAPT in psi4, default
symmetry c1  #important for SAPT in psi4, default
}

set PROPERTIES_ORIGIN ["COM"]
properties('MP2/aug-cc-pvtz', properties = ['dipole'])
--------------------------------------------------------------------------

    Molecular point group: c1
  Charge       = 0
  Multiplicity = 1
  Basis Set: AUG-CC-PVTZ
    Blend: AUG-CC-PVTZ
  Basis Set: (AUG-CC-PVTZ AUX)
    Blend: AUG-CC-PVTZ-JKFIT

    Orbital Energies [Eh]
    ---------------------

    Doubly Occupied:

       1A    -91.962178     2A    -11.268405     3A    -11.268091
       4A    -11.244039     5A    -11.240894     6A    -11.239961
       7A     -8.962659     8A     -6.643897     9A     -6.642957
      10A     -6.642094    11A     -1.141691    12A     -1.026467
      13A     -1.018854    14A     -0.859510    15A     -0.817008
      16A     -0.693878    17A     -0.680384    18A     -0.607647
      19A     -0.599916    20A     -0.584399    21A     -0.533205
      22A     -0.483858    23A     -0.462874    24A     -0.454174
      25A     -0.362620    26A     -0.296862

  @DF-RHF Final Energy:  -590.40427133085075

   => Energetics <=

    Nuclear Repulsion Energy =            272.1574495381767633
    One-Electron Energy =               -1349.6463939494819897
    Two-Electron Energy =                 487.0846730804544791
    Total Energy =                       -590.4042713308508610
  Basis Set: (AUG-CC-PVTZ AUX)
    Blend: AUG-CC-PVTZ-RI
    Molecular point group: c1

    Geometry (in Angstrom), charge = 0, multiplicity = 1:

       Center              X                  Y                   Z               Mass
    ------------   -----------------  -----------------  -----------------  -----------------
         S            1.363111149927     0.021264828356    -0.215471216319    31.972071174400
         C            0.305313149927    -1.301354171644     0.441762783681    12.000000000000
         C           -1.075289850073    -1.208618171644    -0.141366216319    12.000000000000
         C           -1.726398850073    -0.025564171644    -0.160413216319    12.000000000000
         C           -1.066033850073     1.220915828356     0.186650783681    12.000000000000
         C            0.282126149927     1.354557828356     0.123314783681    12.000000000000
         H            0.280553149927    -1.214608171644     1.535424783681     1.007825032230
         H            0.792320149927    -2.244542171644     0.183157783681     1.007825032230
         H           -1.559190850073    -2.119259171644    -0.485713216319     1.007825032230
         H           -2.798431050073     0.003785328356    -0.375553116319     1.007825032230
         H           -1.666945850073     2.103343828356     0.392004783681     1.007825032230
         H            0.766357149927     2.321153828356     0.228786783681     1.007825032230

  Basis Set: AUG-CC-PVTZ
    Blend: AUG-CC-PVTZ
  Basis Set: (AUG-CC-PVTZ AUX)
    Blend: AUG-CC-PVTZ-JKFIT
	 Reference Energy          =    -590.4042713308507473 [Eh]
	 Singles Energy            =      -0.0000000000000000 [Eh]
	 Same-Spin Energy          =      -0.2679109487203021 [Eh]
	 Opposite-Spin Energy      =      -0.8627705960731797 [Eh]
	 Correlation Energy        =      -1.1306815447934819 [Eh]
	 Total Energy              =    -591.5349528756441941 [Eh]

	 ================> DF-SCS-MP2 Energies <==================
	-----------------------------------------------------------
	 SCS Same-Spin Scale       =       0.3333333333333333 [-]
	 SCS Opposite-Spin Scale   =       1.2000000000000000 [-]
	 SCS Same-Spin Energy      =      -0.0893036495734340 [Eh]
	 SCS Opposite-Spin Energy  =      -1.0353247152878156 [Eh]
	 SCS Correlation Energy    =      -1.1246283648612496 [Eh]
	 SCS Total Energy          =    -591.5288996957119707 [Eh]
	-----------------------------------------------------------

  Dipole Moment: [D]
     X:    -0.8818      Y:    -0.3840      Z:     0.5884     Total:     1.1275

*** Psi4 exiting successfully. Buy a developer a beer!
