                               Psi4 1.3.2 release

  ==> Input File <==

--------------------------------------------------------------------------
#psi4
#
memory 32 gb

molecule  {
0 1
  S        1.4017960     0.0318670    -0.2267910
  C        0.3439980    -1.2907520     0.4304430
  C       -1.0366050    -1.1980160    -0.1526860
  C       -1.6877140    -0.0149620    -0.1717330
  C       -1.0273490     1.2315180     0.1753310
  C        0.3208110     1.3651600     0.1119950
  H        0.3192380    -1.2040060     1.5241050
  H        0.8310050    -2.2339400     0.1718380
  H       -1.5582489    -2.1258102    -0.4060317
  H       -2.7141090     0.0333350    -0.5285000
  H       -1.6282610     2.1139460     0.3806850
  H        0.8050420     2.3317560     0.2174670
units angstrom
no_reorient  #important for SAPT in psi4, default
symmetry c1  #important for SAPT in psi4, default
}

set PROPERTIES_ORIGIN ["COM"]
properties('MP2/aug-cc-pvtz', properties = ['dipole'])
--------------------------------------------------------------------------

    Molecular point group: c1
  Charge       = 0
  Multiplicity = 1
  Basis Set: AUG-CC-PVTZ
    Blend: AUG-CC-PVTZ
  Basis Set: (AUG-CC-PVTZ AUX)
    Blend: AUG-CC-PVTZ-JKFIT

    Orbital Energies [Eh]
    ---------------------

    Doubly Occupied:

       1A    -91.961821     2A    -11.268690     3A    -11.267930
       4A    -11.244235     5A    -11.241148     6A    -11.239816
       7A     -8.962336     8A     -6.643581     9A     -6.642633
      10A     -6.641770    11A     -1.141734    12A     -1.026382
      13A     -1.019062    14A     -0.859691    15A     -0.816795
      16A     -0.694405    17A     -0.678186    18A     -0.608669
      19A     -0.600026    20A     -0.585384    21A     -0.535376
      22A     -0.482838    23A     -0.463257    24A     -0.448933
      25A     -0.365648    26A     -0.297247

  @DF-RHF Final Energy:  -590.40493663542236

   => Energetics <=

    Nuclear Repulsion Energy =            272.1562439069066386
    One-Electron Energy =               -1349.6471771079777682
    Two-Electron Energy =                 487.0859965656487702
    Total Energy =                       -590.4049366354223594
  Basis Set: (AUG-CC-PVTZ AUX)
    Blend: AUG-CC-PVTZ-RI
    Molecular point group: c1

    Geometry (in Angstrom), charge = 0, multiplicity = 1:

       Center              X                  Y                   Z               Mass
    ------------   -----------------  -----------------  -----------------  -----------------
         S            1.363029981262     0.021246379483    -0.214950685224    31.972071174400
         C            0.305231981262    -1.301372620517     0.442283314776    12.000000000000
         C           -1.075371018738    -1.208636620517    -0.140845685224    12.000000000000
         C           -1.726480018738    -0.025582620517    -0.159892685224    12.000000000000
         C           -1.066115018738     1.220897379483     0.187171314776    12.000000000000
         C            0.282044981262     1.354539379483     0.123835314776    12.000000000000
         H            0.280471981262    -1.214626620517     1.535945314776     1.007825032230
         H            0.792238981262    -2.244560620517     0.183678314776     1.007825032230
         H           -1.597014918738    -2.136430820517    -0.394191385224     1.007825032230
         H           -2.752875018738     0.022714379483    -0.516659685224     1.007825032230
         H           -1.667027018738     2.103325379483     0.392525314776     1.007825032230
         H            0.766275981262     2.321135379483     0.229307314776     1.007825032230

  Basis Set: AUG-CC-PVTZ
    Blend: AUG-CC-PVTZ
  Basis Set: (AUG-CC-PVTZ AUX)
    Blend: AUG-CC-PVTZ-JKFIT
	 Reference Energy          =    -590.4049366354223594 [Eh]
	 Singles Energy            =      -0.0000000000000000 [Eh]
	 Same-Spin Energy          =      -0.2677706026423857 [Eh]
	 Opposite-Spin Energy      =      -0.8626612159203850 [Eh]
	 Correlation Energy        =      -1.1304318185627706 [Eh]
	 Total Energy              =    -591.5353684539851429 [Eh]

	 ================> DF-SCS-MP2 Energies <==================
	-----------------------------------------------------------
	 SCS Same-Spin Scale       =       0.3333333333333333 [-]
	 SCS Opposite-Spin Scale   =       1.2000000000000000 [-]
	 SCS Same-Spin Energy      =      -0.0892568675474619 [Eh]
	 SCS Opposite-Spin Energy  =      -1.0351934591044620 [Eh]
	 SCS Correlation Energy    =      -1.1244503266519239 [Eh]
	 SCS Total Energy          =    -591.5293869620742271 [Eh]
	-----------------------------------------------------------

  Dipole Moment: [D]
     X:    -0.8929      Y:    -0.3567      Z:     0.5597     Total:     1.1125

*** Psi4 exiting successfully. Buy a developer a beer!
