                               Psi4 1.3.2 release

  ==> Input File <==

--------------------------------------------------------------------------
#psi4
#
memory 32 gb

molecule  {
0 1
  S        1.4017960     0.0318670    -0.2267910
  C        0.3439980    -1.2907520     0.4304430
  C       -1.0366050    -1.1980160    -0.1526860
  C       -1.6877140    -0.0149620    -0.1717330
  C       -1.0273490     1.2315180     0.1753310
  C        0.3208110     1.3651600     0.1119950
  H        0.3192380    -1.2040060     1.5241050
  H        0.8310050    -2.2339400     0.1718380
  H       -1.5205060    -2.1086570    -0.4970330
  H       -2.7141090     0.0333350    -0.5285000
  H       -1.6173055     2.0383598     0.6708000
  H        0.8050420     2.3317560     0.2174670
units angstrom
no_reorient  #important for SAPT in psi4, default
symmetry c1  #important for SAPT in psi4, default
}

set PROPERTIES_ORIGIN ["COM"]
properties('MP2/aug-cc-pvtz', properties = ['dipole'])
--------------------------------------------------------------------------

    Molecular point group: c1
  Charge       = 0
  Multiplicity = 1
  Basis Set: AUG-CC-PVTZ
    Blend: AUG-CC-PVTZ
  Basis Set: (AUG-CC-PVTZ AUX)
    Blend: AUG-CC-PVTZ-JKFIT

    Orbital Energies [Eh]
    ---------------------

    Doubly Occupied:

       1A    -91.962206     2A    -11.269088     3A    -11.267997
       4A    -11.244160     5A    -11.243813     6A    -11.239522
       7A     -8.962710     8A     -6.643929     9A     -6.643011
      10A     -6.642152    11A     -1.141813    12A     -1.026019
      13A     -1.018794    14A     -0.858790    15A     -0.816818
      16A     -0.693687    17A     -0.675966    18A     -0.609935
      19A     -0.600847    20A     -0.583822    21A     -0.534703
      22A     -0.483457    23A     -0.467918    24A     -0.440966
      25A     -0.363706    26A     -0.298784

  @DF-RHF Final Energy:  -590.40041400498114

   => Energetics <=

    Nuclear Repulsion Energy =            272.1128783446963553
    One-Electron Energy =               -1349.5573589343357526
    Two-Electron Energy =                 487.0440665846582533
    Total Energy =                       -590.4004140049811440
  Basis Set: (AUG-CC-PVTZ AUX)
    Blend: AUG-CC-PVTZ-RI
    Molecular point group: c1

    Geometry (in Angstrom), charge = 0, multiplicity = 1:

       Center              X                  Y                   Z               Mass
    ------------   -----------------  -----------------  -----------------  -----------------
         S            1.362529267565     0.021847183687    -0.216997958991    31.972071174400
         C            0.304731267565    -1.300771816313     0.440236041009    12.000000000000
         C           -1.075871732435    -1.208035816313    -0.142892958991    12.000000000000
         C           -1.726980732435    -0.024981816313    -0.161939958991    12.000000000000
         C           -1.066615732435     1.221498183687     0.185124041009    12.000000000000
         C            0.281544267565     1.355140183687     0.121788041009    12.000000000000
         H            0.279971267565    -1.214025816313     1.533898041009     1.007825032230
         H            0.791738267565    -2.243959816313     0.181631041009     1.007825032230
         H           -1.559772732435    -2.118676816313    -0.487239958991     1.007825032230
         H           -2.753375732435     0.023315183687    -0.518706958991     1.007825032230
         H           -1.656572232435     2.028339983687     0.680593041009     1.007825032230
         H            0.765775267565     2.321736183687     0.227260041009     1.007825032230

  Basis Set: AUG-CC-PVTZ
    Blend: AUG-CC-PVTZ
  Basis Set: (AUG-CC-PVTZ AUX)
    Blend: AUG-CC-PVTZ-JKFIT
	 Reference Energy          =    -590.4004140049811440 [Eh]
	 Singles Energy            =      -0.0000000000000000 [Eh]
	 Same-Spin Energy          =      -0.2679066388558915 [Eh]
	 Opposite-Spin Energy      =      -0.8632269798181618 [Eh]
	 Correlation Energy        =      -1.1311336186740533 [Eh]
	 Total Energy              =    -591.5315476236552286 [Eh]

	 ================> DF-SCS-MP2 Energies <==================
	-----------------------------------------------------------
	 SCS Same-Spin Scale       =       0.3333333333333333 [-]
	 SCS Opposite-Spin Scale   =       1.2000000000000000 [-]
	 SCS Same-Spin Energy      =      -0.0893022129519638 [Eh]
	 SCS Opposite-Spin Energy  =      -1.0358723757817940 [Eh]
	 SCS Correlation Energy    =      -1.1251745887337579 [Eh]
	 SCS Total Energy          =    -591.5255885937149287 [Eh]
	-----------------------------------------------------------

  Dipole Moment: [D]
     X:    -0.8474      Y:    -0.4543      Z:     0.7006     Total:     1.1897

*** Psi4 exiting successfully. Buy a developer a beer!
