                               Psi4 1.3.2 release

  ==> Input File <==

--------------------------------------------------------------------------
#psi4
#
memory 32 gb

molecule  {
0 1
  S        1.4017960     0.0318670    -0.2267910
  C        0.3439980    -1.2907520     0.4304430
  C       -1.0366050    -1.1980160    -0.1526860
  C       -1.6877140    -0.0149620    -0.1717330
  C       -1.0273490     1.2315180     0.1753310
  C        0.3208110     1.3651600     0.1119950
  H        0.3192380    -1.2040060     1.5241050
  H        0.8310050    -2.2339400     0.1718380
  H       -1.5205060    -2.1086570    -0.4970330
  H       -2.7141090     0.0333350    -0.5285000
  H       -1.6282610     2.1139460     0.3806850
  H        0.7852825     2.3740702    -0.0281324
units angstrom
no_reorient  #important for SAPT in psi4, default
symmetry c1  #important for SAPT in psi4, default
}

set PROPERTIES_ORIGIN ["COM"]
properties('MP2/aug-cc-pvtz', properties = ['dipole'])
--------------------------------------------------------------------------

    Molecular point group: c1
  Charge       = 0
  Multiplicity = 1
  Basis Set: AUG-CC-PVTZ
    Blend: AUG-CC-PVTZ
  Basis Set: (AUG-CC-PVTZ AUX)
    Blend: AUG-CC-PVTZ-JKFIT

    Orbital Energies [Eh]
    ---------------------

    Doubly Occupied:

       1A    -91.963557     2A    -11.272985     3A    -11.267898
       4A    -11.242590     5A    -11.241433     6A    -11.239933
       7A     -8.964000     8A     -6.645215     9A     -6.644252
      10A     -6.643413    11A     -1.141844    12A     -1.025887
      13A     -1.019289    14A     -0.860005    15A     -0.814803
      16A     -0.690797    17A     -0.678779    18A     -0.607666
      19A     -0.600725    20A     -0.582642    21A     -0.535004
      22A     -0.479849    23A     -0.464539    24A     -0.452242
      25A     -0.365668    26A     -0.295548

  @DF-RHF Final Energy:  -590.40107931315379

   => Energetics <=

    Nuclear Repulsion Energy =            272.0673954753104340
    One-Electron Energy =               -1349.4558214616220084
    Two-Electron Energy =                 486.9873466731577878
    Total Energy =                       -590.4010793131537866
  Basis Set: (AUG-CC-PVTZ AUX)
    Blend: AUG-CC-PVTZ-RI
    Molecular point group: c1

    Geometry (in Angstrom), charge = 0, multiplicity = 1:

       Center              X                  Y                   Z               Mass
    ------------   -----------------  -----------------  -----------------  -----------------
         S            1.362845077144     0.020634939647    -0.211489779304    31.972071174400
         C            0.305047077144    -1.301984060353     0.445744220696    12.000000000000
         C           -1.075555922856    -1.209248060353    -0.137384779304    12.000000000000
         C           -1.726664922856    -0.026194060353    -0.156431779304    12.000000000000
         C           -1.066299922856     1.220285939647     0.190632220696    12.000000000000
         C            0.281860077144     1.353927939647     0.127296220696    12.000000000000
         H            0.280287077144    -1.215238060353     1.539406220696     1.007825032230
         H            0.792054077144    -2.245172060353     0.187139220696     1.007825032230
         H           -1.559456922856    -2.119889060353    -0.481731779304     1.007825032230
         H           -2.753059922856     0.022102939647    -0.513198779304     1.007825032230
         H           -1.667211922856     2.102713939647     0.395986220696     1.007825032230
         H            0.746331577144     2.362838139647    -0.012831179304     1.007825032230

  Basis Set: AUG-CC-PVTZ
    Blend: AUG-CC-PVTZ
  Basis Set: (AUG-CC-PVTZ AUX)
    Blend: AUG-CC-PVTZ-JKFIT
	 Reference Energy          =    -590.4010793131537866 [Eh]
	 Singles Energy            =      -0.0000000000000000 [Eh]
	 Same-Spin Energy          =      -0.2684447065608621 [Eh]
	 Opposite-Spin Energy      =      -0.8634451777632071 [Eh]
	 Correlation Energy        =      -1.1318898843240692 [Eh]
	 Total Energy              =    -591.5329691974778825 [Eh]

	 ================> DF-SCS-MP2 Energies <==================
	-----------------------------------------------------------
	 SCS Same-Spin Scale       =       0.3333333333333333 [-]
	 SCS Opposite-Spin Scale   =       1.2000000000000000 [-]
	 SCS Same-Spin Energy      =      -0.0894815688536207 [Eh]
	 SCS Opposite-Spin Energy  =      -1.0361342133158484 [Eh]
	 SCS Correlation Energy    =      -1.1256157821694690 [Eh]
	 SCS Total Energy          =    -591.5266950953232481 [Eh]
	-----------------------------------------------------------

  Dipole Moment: [D]
     X:    -0.8392      Y:    -0.3510      Z:     0.3254     Total:     0.9661

*** Psi4 exiting successfully. Buy a developer a beer!
