                               Psi4 1.3.2 release

  ==> Input File <==

--------------------------------------------------------------------------
#psi4
#
memory 32 gb

molecule  {
0 1
  S        1.4017960     0.0318670    -0.2267910
  C        0.3439980    -1.2907520     0.4304430
  C       -1.0366050    -1.1980160    -0.1526860
  C       -1.6877140    -0.0149620    -0.1717330
  C       -1.0273490     1.2315180     0.1753310
  C        0.3208110     1.3651600     0.1119950
  H        0.3192380    -1.2040060     1.5241050
  H        0.8310050    -2.2339400     0.1718380
  H       -1.5205060    -2.1086570    -0.4970330
  H       -2.7141090     0.0333350    -0.5285000
  H       -1.6209573     2.0635552     0.5740950
  H        0.8050420     2.3317560     0.2174670
units angstrom
no_reorient  #important for SAPT in psi4, default
symmetry c1  #important for SAPT in psi4, default
}

set PROPERTIES_ORIGIN ["COM"]
properties('MP2/aug-cc-pvtz', properties = ['dipole'])
--------------------------------------------------------------------------

    Molecular point group: c1
  Charge       = 0
  Multiplicity = 1
  Basis Set: AUG-CC-PVTZ
    Blend: AUG-CC-PVTZ
  Basis Set: (AUG-CC-PVTZ AUX)
    Blend: AUG-CC-PVTZ-JKFIT

    Orbital Energies [Eh]
    ---------------------

    Doubly Occupied:

       1A    -91.961955     2A    -11.268601     3A    -11.267845
       4A    -11.243941     5A    -11.242141     6A    -11.239466
       7A     -8.962458     8A     -6.643685     9A     -6.642759
      10A     -6.641898    11A     -1.141727    12A     -1.026181
      13A     -1.018873    14A     -0.859333    15A     -0.816950
      16A     -0.693752    17A     -0.678493    18A     -0.610456
      19A     -0.600659    20A     -0.583944    21A     -0.534717
      22A     -0.483302    23A     -0.466662    24A     -0.444593
      25A     -0.363712    26A     -0.298351

  @DF-RHF Final Energy:  -590.40340372283958

   => Energetics <=

    Nuclear Repulsion Energy =            272.1764610744143056
    One-Electron Energy =               -1349.6868183226497422
    Two-Electron Energy =                 487.1069535253957952
    Total Energy =                       -590.4034037228395846
  Basis Set: (AUG-CC-PVTZ AUX)
    Blend: AUG-CC-PVTZ-RI
    Molecular point group: c1

    Geometry (in Angstrom), charge = 0, multiplicity = 1:

       Center              X                  Y                   Z               Mass
    ------------   -----------------  -----------------  -----------------  -----------------
         S            1.362566815128     0.021588126266    -0.216003644638    31.972071174400
         C            0.304768815128    -1.301030873734     0.441230355362    12.000000000000
         C           -1.075834184872    -1.208294873734    -0.141898644638    12.000000000000
         C           -1.726943184872    -0.025240873734    -0.160945644638    12.000000000000
         C           -1.066578184872     1.221239126266     0.186118355362    12.000000000000
         C            0.281581815128     1.354881126266     0.122782355362    12.000000000000
         H            0.280008815128    -1.214284873734     1.534892355362     1.007825032230
         H            0.791775815128    -2.244218873734     0.182625355362     1.007825032230
         H           -1.559735184872    -2.118935873734    -0.486245644638     1.007825032230
         H           -2.753338184872     0.023056126266    -0.517712644638     1.007825032230
         H           -1.660186484872     2.053276326266     0.584882355362     1.007825032230
         H            0.765812815128     2.321477126266     0.228254355362     1.007825032230

  Basis Set: AUG-CC-PVTZ
    Blend: AUG-CC-PVTZ
  Basis Set: (AUG-CC-PVTZ AUX)
    Blend: AUG-CC-PVTZ-JKFIT
	 Reference Energy          =    -590.4034037228395846 [Eh]
	 Singles Energy            =      -0.0000000000000000 [Eh]
	 Same-Spin Energy          =      -0.2678117510726011 [Eh]
	 Opposite-Spin Energy      =      -0.8628471901002182 [Eh]
	 Correlation Energy        =      -1.1306589411728192 [Eh]
	 Total Energy              =    -591.5340626640123673 [Eh]

	 ================> DF-SCS-MP2 Energies <==================
	-----------------------------------------------------------
	 SCS Same-Spin Scale       =       0.3333333333333333 [-]
	 SCS Opposite-Spin Scale   =       1.2000000000000000 [-]
	 SCS Same-Spin Energy      =      -0.0892705836908670 [Eh]
	 SCS Opposite-Spin Energy  =      -1.0354166281202617 [Eh]
	 SCS Correlation Energy    =      -1.1246872118111289 [Eh]
	 SCS Total Energy          =    -591.5280909346506633 [Eh]
	-----------------------------------------------------------

  Dipole Moment: [D]
     X:    -0.8638      Y:    -0.4098      Z:     0.6365     Total:     1.1486

*** Psi4 exiting successfully. Buy a developer a beer!
