                               Psi4 1.3.2 release

  ==> Input File <==

--------------------------------------------------------------------------
#psi4
#
memory 32 gb

molecule  {
0 1
  S        1.4017960     0.0318670    -0.2267910
  C        0.3439980    -1.2907520     0.4304430
  C       -1.0366050    -1.1980160    -0.1526860
  C       -1.6877140    -0.0149620    -0.1717330
  C       -1.0273490     1.2315180     0.1753310
  C        0.3208110     1.3651600     0.1119950
  H        0.3192380    -1.2040060     1.5241050
  H        0.8310050    -2.2339400     0.1718380
  H       -1.5205060    -2.1086570    -0.4970330
  H       -2.7141090     0.0333350    -0.5285000
  H       -1.6227832     2.0761529     0.5257425
  H        0.8050420     2.3317560     0.2174670
units angstrom
no_reorient  #important for SAPT in psi4, default
symmetry c1  #important for SAPT in psi4, default
}

set PROPERTIES_ORIGIN ["COM"]
properties('MP2/aug-cc-pvtz', properties = ['dipole'])
--------------------------------------------------------------------------

    Molecular point group: c1
  Charge       = 0
  Multiplicity = 1
  Basis Set: AUG-CC-PVTZ
    Blend: AUG-CC-PVTZ
  Basis Set: (AUG-CC-PVTZ AUX)
    Blend: AUG-CC-PVTZ-JKFIT

    Orbital Energies [Eh]
    ---------------------

    Doubly Occupied:

       1A    -91.961904     2A    -11.268489     3A    -11.267807
       4A    -11.243834     5A    -11.241580     6A    -11.239441
       7A     -8.962407     8A     -6.643638     9A     -6.642707
      10A     -6.641845    11A     -1.141704    12A     -1.026260
      13A     -1.018906    14A     -0.859522    15A     -0.817002
      16A     -0.693842    17A     -0.679363    18A     -0.610374
      19A     -0.600519    20A     -0.583989    21A     -0.534744
      22A     -0.483313    23A     -0.465938    24A     -0.446272
      25A     -0.363737    26A     -0.298162

  @DF-RHF Final Energy:  -590.40436804498029

   => Energetics <=

    Nuclear Repulsion Energy =            272.1963205106352461
    One-Electron Energy =               -1349.7267795666496113
    Two-Electron Energy =                 487.1260910110341911
    Total Energy =                       -590.4043680449802878
  Basis Set: (AUG-CC-PVTZ AUX)
    Blend: AUG-CC-PVTZ-RI
    Molecular point group: c1

    Geometry (in Angstrom), charge = 0, multiplicity = 1:

       Center              X                  Y                   Z               Mass
    ------------   -----------------  -----------------  -----------------  -----------------
         S            1.362585588910     0.021458597556    -0.215506487462    31.972071174400
         C            0.304787588910    -1.301160402444     0.441727512538    12.000000000000
         C           -1.075815411090    -1.208424402444    -0.141401487462    12.000000000000
         C           -1.726924411090    -0.025370402444    -0.160448487462    12.000000000000
         C           -1.066559411090     1.221109597556     0.186615512538    12.000000000000
         C            0.281600588910     1.354751597556     0.123279512538    12.000000000000
         H            0.280027588910    -1.214414402444     1.535389512538     1.007825032230
         H            0.791794588910    -2.244348402444     0.183122512538     1.007825032230
         H           -1.559716411090    -2.119065402444    -0.485748487462     1.007825032230
         H           -2.753319411090     0.022926597556    -0.517215487462     1.007825032230
         H           -1.661993611090     2.065744497556     0.537027012538     1.007825032230
         H            0.765831588910     2.321347597556     0.228751512538     1.007825032230

  Basis Set: AUG-CC-PVTZ
    Blend: AUG-CC-PVTZ
  Basis Set: (AUG-CC-PVTZ AUX)
    Blend: AUG-CC-PVTZ-JKFIT
	 Reference Energy          =    -590.4043680449802878 [Eh]
	 Singles Energy            =      -0.0000000000000000 [Eh]
	 Same-Spin Energy          =      -0.2677869687067865 [Eh]
	 Opposite-Spin Energy      =      -0.8627234713513700 [Eh]
	 Correlation Energy        =      -1.1305104400581565 [Eh]
	 Total Energy              =    -591.5348784850384618 [Eh]

	 ================> DF-SCS-MP2 Energies <==================
	-----------------------------------------------------------
	 SCS Same-Spin Scale       =       0.3333333333333333 [-]
	 SCS Opposite-Spin Scale   =       1.2000000000000000 [-]
	 SCS Same-Spin Energy      =      -0.0892623229022622 [Eh]
	 SCS Opposite-Spin Energy  =      -1.0352681656216438 [Eh]
	 SCS Correlation Energy    =      -1.1245304885239060 [Eh]
	 SCS Total Energy          =    -591.5288985335041616 [Eh]
	-----------------------------------------------------------

  Dipole Moment: [D]
     X:    -0.8675      Y:    -0.3920      Z:     0.6026     Total:     1.1266

*** Psi4 exiting successfully. Buy a developer a beer!
