                               Psi4 1.3.2 release

  ==> Input File <==

--------------------------------------------------------------------------
#psi4
#
memory 32 gb

molecule  {
0 1
  S        1.4017960     0.0318670    -0.2267910
  C        0.3439980    -1.2907520     0.4304430
  C       -1.0366050    -1.1980160    -0.1526860
  C       -1.6877140    -0.0149620    -0.1717330
  C       -1.0273490     1.2315180     0.1753310
  C        0.3208110     1.3651600     0.1119950
  H        0.3192380    -1.2040060     1.5241050
  H        0.8310050    -2.2339400     0.1718380
  H       -1.5205060    -2.1086570    -0.4970330
  H       -2.7141090     0.0333350    -0.5285000
  H       -1.6282610     2.1139460     0.3806850
  H        0.7892344     2.3656074     0.0209875
units angstrom
no_reorient  #important for SAPT in psi4, default
symmetry c1  #important for SAPT in psi4, default
}

set PROPERTIES_ORIGIN ["COM"]
properties('MP2/aug-cc-pvtz', properties = ['dipole'])
--------------------------------------------------------------------------

    Molecular point group: c1
  Charge       = 0
  Multiplicity = 1
  Basis Set: AUG-CC-PVTZ
    Blend: AUG-CC-PVTZ
  Basis Set: (AUG-CC-PVTZ AUX)
    Blend: AUG-CC-PVTZ-JKFIT

    Orbital Energies [Eh]
    ---------------------

    Doubly Occupied:

       1A    -91.963284     2A    -11.271792     3A    -11.267879
       4A    -11.242648     5A    -11.241203     6A    -11.239771
       7A     -8.963739     8A     -6.644959     9A     -6.644001
      10A     -6.643158    11A     -1.141795    12A     -1.026058
      13A     -1.019213    14A     -0.859906    15A     -0.815515
      16A     -0.691854    17A     -0.679191    18A     -0.607949
      19A     -0.600562    20A     -0.583214    21A     -0.534952
      22A     -0.480317    23A     -0.464735    24A     -0.452123
      25A     -0.365335    26A     -0.295935

  @DF-RHF Final Energy:  -590.40267843234210

   => Energetics <=

    Nuclear Repulsion Energy =            272.1115163253337528
    One-Electron Energy =               -1349.5462142181365834
    Two-Electron Energy =                 487.0320194604607309
    Total Energy =                       -590.4026784323420998
  Basis Set: (AUG-CC-PVTZ AUX)
    Blend: AUG-CC-PVTZ-RI
    Molecular point group: c1

    Geometry (in Angstrom), charge = 0, multiplicity = 1:

       Center              X                  Y                   Z               Mass
    ------------   -----------------  -----------------  -----------------  -----------------
         S            1.362804443972     0.020721953592    -0.211994826835    31.972071174400
         C            0.305006443972    -1.301897046408     0.445239173165    12.000000000000
         C           -1.075596556028    -1.209161046408    -0.137889826835    12.000000000000
         C           -1.726705556028    -0.026107046408    -0.156936826835    12.000000000000
         C           -1.066340556028     1.220372953592     0.190127173165    12.000000000000
         C            0.281819443972     1.354014953592     0.126791173165    12.000000000000
         H            0.280246443972    -1.215151046408     1.538901173165     1.007825032230
         H            0.792013443972    -2.245085046408     0.186634173165     1.007825032230
         H           -1.559497556028    -2.119802046408    -0.482236826835     1.007825032230
         H           -2.753100556028     0.022189953592    -0.513703826835     1.007825032230
         H           -1.667252556028     2.102800953592     0.395481173165     1.007825032230
         H            0.750242843972     2.354462353592     0.035783673165     1.007825032230

  Basis Set: AUG-CC-PVTZ
    Blend: AUG-CC-PVTZ
  Basis Set: (AUG-CC-PVTZ AUX)
    Blend: AUG-CC-PVTZ-JKFIT
	 Reference Energy          =    -590.4026784323420998 [Eh]
	 Singles Energy            =      -0.0000000000000000 [Eh]
	 Same-Spin Energy          =      -0.2682804374703613 [Eh]
	 Opposite-Spin Energy      =      -0.8631842655128861 [Eh]
	 Correlation Energy        =      -1.1314647029832474 [Eh]
	 Total Energy              =    -591.5341431353253938 [Eh]

	 ================> DF-SCS-MP2 Energies <==================
	-----------------------------------------------------------
	 SCS Same-Spin Scale       =       0.3333333333333333 [-]
	 SCS Opposite-Spin Scale   =       1.2000000000000000 [-]
	 SCS Same-Spin Energy      =      -0.0894268124901204 [Eh]
	 SCS Opposite-Spin Energy  =      -1.0358211186154633 [Eh]
	 SCS Correlation Energy    =      -1.1252479311055839 [Eh]
	 SCS Total Energy          =    -591.5279263634477047 [Eh]
	-----------------------------------------------------------

  Dipole Moment: [D]
     X:    -0.8383      Y:    -0.3472      Z:     0.3588     Total:     0.9757

*** Psi4 exiting successfully. Buy a developer a beer!
