                               Psi4 1.3.2 release

  ==> Input File <==

--------------------------------------------------------------------------
#psi4
#
memory 32 gb

molecule  {
0 1
  S        1.4017960     0.0318670    -0.2267910
  C        0.3439980    -1.2907520     0.4304430
  C       -1.0366050    -1.1980160    -0.1526860
  C       -1.6877140    -0.0149620    -0.1717330
  C       -1.0273490     1.2315180     0.1753310
  C        0.3208110     1.3651600     0.1119950
  H        0.3192380    -1.2040060     1.5241050
  H        0.8310050    -2.2339400     0.1718380
  H       -1.5205060    -2.1086570    -0.4970330
  H       -2.7445338     0.0207033    -0.4340819
  H       -1.6282610     2.1139460     0.3806850
  H        0.8050420     2.3317560     0.2174670
units angstrom
no_reorient  #important for SAPT in psi4, default
symmetry c1  #important for SAPT in psi4, default
}

set PROPERTIES_ORIGIN ["COM"]
properties('MP2/aug-cc-pvtz', properties = ['dipole'])
--------------------------------------------------------------------------

    Molecular point group: c1
  Charge       = 0
  Multiplicity = 1
  Basis Set: AUG-CC-PVTZ
    Blend: AUG-CC-PVTZ
  Basis Set: (AUG-CC-PVTZ AUX)
    Blend: AUG-CC-PVTZ-JKFIT

    Orbital Energies [Eh]
    ---------------------

    Doubly Occupied:

       1A    -91.962116     2A    -11.268501     3A    -11.267972
       4A    -11.243763     5A    -11.240880     6A    -11.239624
       7A     -8.962604     8A     -6.643842     9A     -6.642901
      10A     -6.642039    11A     -1.141681    12A     -1.026426
      13A     -1.018943    14A     -0.859591    15A     -0.817085
      16A     -0.694340    17A     -0.680295    18A     -0.608088
      19A     -0.599860    20A     -0.584300    21A     -0.533993
      22A     -0.483810    23A     -0.463022    24A     -0.453096
      25A     -0.363065    26A     -0.297121

  @DF-RHF Final Energy:  -590.40498284073021

   => Energetics <=

    Nuclear Repulsion Energy =            272.1817401397687490
    One-Electron Energy =               -1349.6955273121468508
    Two-Electron Energy =                 487.1088043316480025
    Total Energy =                       -590.4049828407302130
  Basis Set: (AUG-CC-PVTZ AUX)
    Blend: AUG-CC-PVTZ-RI
    Molecular point group: c1

    Geometry (in Angstrom), charge = 0, multiplicity = 1:

       Center              X                  Y                   Z               Mass
    ------------   -----------------  -----------------  -----------------  -----------------
         S            1.362954737046     0.021199889722    -0.214985816533    31.972071174400
         C            0.305156737046    -1.301419110278     0.442248183467    12.000000000000
         C           -1.075446262954    -1.208683110278    -0.140880816533    12.000000000000
         C           -1.726555262954    -0.025629110278    -0.159927816533    12.000000000000
         C           -1.066190262954     1.220850889722     0.187136183467    12.000000000000
         C            0.281969737046     1.354492889722     0.123800183467    12.000000000000
         H            0.280396737046    -1.214673110278     1.535910183467     1.007825032230
         H            0.792163737046    -2.244607110278     0.183643183467     1.007825032230
         H           -1.559347262954    -2.119324110278    -0.485227816533     1.007825032230
         H           -2.783375062954     0.010036189722    -0.422276716533     1.007825032230
         H           -1.667102262954     2.103278889722     0.392490183467     1.007825032230
         H            0.766200737046     2.321088889722     0.229272183467     1.007825032230

  Basis Set: AUG-CC-PVTZ
    Blend: AUG-CC-PVTZ
  Basis Set: (AUG-CC-PVTZ AUX)
    Blend: AUG-CC-PVTZ-JKFIT
	 Reference Energy          =    -590.4049828407302130 [Eh]
	 Singles Energy            =      -0.0000000000000000 [Eh]
	 Same-Spin Energy          =      -0.2678613439485837 [Eh]
	 Opposite-Spin Energy      =      -0.8626724617020248 [Eh]
	 Correlation Energy        =      -1.1305338056506085 [Eh]
	 Total Energy              =    -591.5355166463808700 [Eh]

	 ================> DF-SCS-MP2 Energies <==================
	-----------------------------------------------------------
	 SCS Same-Spin Scale       =       0.3333333333333333 [-]
	 SCS Opposite-Spin Scale   =       1.2000000000000000 [-]
	 SCS Same-Spin Energy      =      -0.0892871146495279 [Eh]
	 SCS Opposite-Spin Energy  =      -1.0352069540424298 [Eh]
	 SCS Correlation Energy    =      -1.1244940686919578 [Eh]
	 SCS Total Energy          =    -591.5294769094222147 [Eh]
	-----------------------------------------------------------

  Dipole Moment: [D]
     X:    -0.8779      Y:    -0.3744      Z:     0.5567     Total:     1.1049

*** Psi4 exiting successfully. Buy a developer a beer!
