                               Psi4 1.3.2 release

  ==> Input File <==

--------------------------------------------------------------------------
#psi4
#
memory 32 gb

molecule  {
0 1
  S        1.4017960     0.0318670    -0.2267910
  C        0.3439980    -1.2907520     0.4304430
  C       -1.0366050    -1.1980160    -0.1526860
  C       -1.6877140    -0.0149620    -0.1717330
  C       -1.0273490     1.2315180     0.1753310
  C        0.3208110     1.3651600     0.1119950
  H        0.3192380    -1.2040060     1.5241050
  H        0.8310050    -2.2339400     0.1718380
  H       -1.6148633    -2.1515401    -0.2695297
  H       -2.7141090     0.0333350    -0.5285000
  H       -1.6282610     2.1139460     0.3806850
  H        0.8050420     2.3317560     0.2174670
units angstrom
no_reorient  #important for SAPT in psi4, default
symmetry c1  #important for SAPT in psi4, default
}

set PROPERTIES_ORIGIN ["COM"]
properties('MP2/aug-cc-pvtz', properties = ['dipole'])
--------------------------------------------------------------------------

    Molecular point group: c1
  Charge       = 0
  Multiplicity = 1
  Basis Set: AUG-CC-PVTZ
    Blend: AUG-CC-PVTZ
  Basis Set: (AUG-CC-PVTZ AUX)
    Blend: AUG-CC-PVTZ-JKFIT

    Orbital Energies [Eh]
    ---------------------

    Doubly Occupied:

       1A    -91.961663     2A    -11.269120     3A    -11.268081
       4A    -11.246750     5A    -11.241749     6A    -11.240889
       7A     -8.962199     8A     -6.643451     9A     -6.642498
      10A     -6.641631    11A     -1.141935    12A     -1.026137
      13A     -1.019349    14A     -0.859877    15A     -0.815414
      16A     -0.694862    17A     -0.673250    18A     -0.608532
      19A     -0.600499    20A     -0.585336    21A     -0.536051
      22A     -0.481434    23A     -0.463329    24A     -0.445812
      25A     -0.368169    26A     -0.296692

  @DF-RHF Final Energy:  -590.40168050323689

   => Energetics <=

    Nuclear Repulsion Energy =            272.0236105054841573
    One-Electron Energy =               -1349.3811648571343085
    Two-Electron Energy =                 486.9558738484133187
    Total Energy =                       -590.4016805032367756
  Basis Set: (AUG-CC-PVTZ AUX)
    Blend: AUG-CC-PVTZ-RI
    Molecular point group: c1

    Geometry (in Angstrom), charge = 0, multiplicity = 1:

       Center              X                  Y                   Z               Mass
    ------------   -----------------  -----------------  -----------------  -----------------
         S            1.363612086742     0.021510932596    -0.216354189672    31.972071174400
         C            0.305814086742    -1.301108067404     0.440879810328    12.000000000000
         C           -1.074788913258    -1.208372067404    -0.142249189672    12.000000000000
         C           -1.725897913258    -0.025318067404    -0.161296189672    12.000000000000
         C           -1.065532913258     1.221161932596     0.185767810328    12.000000000000
         C            0.282627086742     1.354803932596     0.122431810328    12.000000000000
         H            0.281054086742    -1.214362067404     1.534541810328     1.007825032230
         H            0.792821086742    -2.244296067404     0.182274810328     1.007825032230
         H           -1.653047213258    -2.161896167404    -0.259092889672     1.007825032230
         H           -2.752292913258     0.022978932596    -0.518063189672     1.007825032230
         H           -1.666444913258     2.103589932596     0.391121810328     1.007825032230
         H            0.766858086742     2.321399932596     0.227903810328     1.007825032230

  Basis Set: AUG-CC-PVTZ
    Blend: AUG-CC-PVTZ
  Basis Set: (AUG-CC-PVTZ AUX)
    Blend: AUG-CC-PVTZ-JKFIT
	 Reference Energy          =    -590.4016805032368893 [Eh]
	 Singles Energy            =      -0.0000000000000000 [Eh]
	 Same-Spin Energy          =      -0.2678555369956956 [Eh]
	 Opposite-Spin Energy      =      -0.8630808476769963 [Eh]
	 Correlation Energy        =      -1.1309363846726921 [Eh]
	 Total Energy              =    -591.5326168879096258 [Eh]

	 ================> DF-SCS-MP2 Energies <==================
	-----------------------------------------------------------
	 SCS Same-Spin Scale       =       0.3333333333333333 [-]
	 SCS Opposite-Spin Scale   =       1.2000000000000000 [-]
	 SCS Same-Spin Energy      =      -0.0892851789985652 [Eh]
	 SCS Opposite-Spin Energy  =      -1.0356970172123956 [Eh]
	 SCS Correlation Energy    =      -1.1249821962109607 [Eh]
	 SCS Total Energy          =    -591.5266626994477974 [Eh]
	-----------------------------------------------------------

  Dipole Moment: [D]
     X:    -0.9303      Y:    -0.3262      Z:     0.6581     Total:     1.1853

*** Psi4 exiting successfully. Buy a developer a beer!
