                               Psi4 1.3.2 release

  ==> Input File <==

--------------------------------------------------------------------------
#psi4
#
memory 32 gb

molecule  {
0 1
  S        1.4017960     0.0318670    -0.2267910
  C        0.3439980    -1.2907520     0.4304430
  C       -1.0366050    -1.1980160    -0.1526860
  C       -1.6877140    -0.0149620    -0.1717330
  C       -1.0273490     1.2315180     0.1753310
  C        0.3208110     1.3651600     0.1119950
  H        0.3192380    -1.2040060     1.5241050
  H        0.8310050    -2.2339400     0.1718380
  H       -1.6337347    -2.1601167    -0.2240291
  H       -2.7141090     0.0333350    -0.5285000
  H       -1.6282610     2.1139460     0.3806850
  H        0.8050420     2.3317560     0.2174670
units angstrom
no_reorient  #important for SAPT in psi4, default
symmetry c1  #important for SAPT in psi4, default
}

set PROPERTIES_ORIGIN ["COM"]
properties('MP2/aug-cc-pvtz', properties = ['dipole'])
--------------------------------------------------------------------------

    Molecular point group: c1
  Charge       = 0
  Multiplicity = 1
  Basis Set: AUG-CC-PVTZ
    Blend: AUG-CC-PVTZ
  Basis Set: (AUG-CC-PVTZ AUX)
    Blend: AUG-CC-PVTZ-JKFIT

    Orbital Energies [Eh]
    ---------------------

    Doubly Occupied:

       1A    -91.961663     2A    -11.269373     3A    -11.268146
       4A    -11.247944     5A    -11.242177     6A    -11.241245
       7A     -8.962206     8A     -6.643461     9A     -6.642507
      10A     -6.641638    11A     -1.142048    12A     -1.026025
      13A     -1.019489    14A     -0.859984    15A     -0.814775
      16A     -0.695069    17A     -0.671238    18A     -0.608582
      19A     -0.600686    20A     -0.584753    21A     -0.536261
      22A     -0.480976    23A     -0.463406    24A     -0.444621
      25A     -0.368979    26A     -0.296553

  @DF-RHF Final Energy:  -590.39977645703618

   => Energetics <=

    Nuclear Repulsion Energy =            271.9651461262192242
    One-Electron Energy =               -1349.2622276521688036
    Two-Electron Energy =                 486.8973050689133970
    Total Energy =                       -590.3997764570361824
  Basis Set: (AUG-CC-PVTZ AUX)
    Blend: AUG-CC-PVTZ-RI
    Molecular point group: c1

    Geometry (in Angstrom), charge = 0, multiplicity = 1:

       Center              X                  Y                   Z               Mass
    ------------   -----------------  -----------------  -----------------  -----------------
         S            1.363806121216     0.021599116625    -0.216822023803    31.972071174400
         C            0.306008121216    -1.301019883375     0.440411976197    12.000000000000
         C           -1.074594878784    -1.208283883375    -0.142717023803    12.000000000000
         C           -1.725703878784    -0.025229883375    -0.161764023803    12.000000000000
         C           -1.065338878784     1.221250116625     0.185299976197    12.000000000000
         C            0.282821121216     1.354892116625     0.121963976197    12.000000000000
         H            0.281248121216    -1.214273883375     1.534073976197     1.007825032230
         H            0.793015121216    -2.244207883375     0.181806976197     1.007825032230
         H           -1.671724578784    -2.170384583375    -0.214060123803     1.007825032230
         H           -2.752098878784     0.023067116625    -0.518531023803     1.007825032230
         H           -1.666250878784     2.103678116625     0.390653976197     1.007825032230
         H            0.767052121216     2.321488116625     0.227435976197     1.007825032230

  Basis Set: AUG-CC-PVTZ
    Blend: AUG-CC-PVTZ
  Basis Set: (AUG-CC-PVTZ AUX)
    Blend: AUG-CC-PVTZ-JKFIT
	 Reference Energy          =    -590.3997764570361824 [Eh]
	 Singles Energy            =      -0.0000000000000000 [Eh]
	 Same-Spin Energy          =      -0.2679178111289245 [Eh]
	 Opposite-Spin Energy      =      -0.8633123615090939 [Eh]
	 Correlation Energy        =      -1.1312301726380183 [Eh]
	 Total Energy              =    -591.5310066296741525 [Eh]

	 ================> DF-SCS-MP2 Energies <==================
	-----------------------------------------------------------
	 SCS Same-Spin Scale       =       0.3333333333333333 [-]
	 SCS Opposite-Spin Scale   =       1.2000000000000000 [-]
	 SCS Same-Spin Energy      =      -0.0893059370429748 [Eh]
	 SCS Opposite-Spin Energy  =      -1.0359748338109125 [Eh]
	 SCS Correlation Energy    =      -1.1252807708538872 [Eh]
	 SCS Total Energy          =    -591.5250572278901018 [Eh]
	-----------------------------------------------------------

  Dipole Moment: [D]
     X:    -0.9390      Y:    -0.3085      Z:     0.6907     Total:     1.2058

*** Psi4 exiting successfully. Buy a developer a beer!
