                               Psi4 1.3.2 release

  ==> Input File <==

--------------------------------------------------------------------------
#psi4
#
memory 32 gb

molecule  {
0 1
  S        1.4017960     0.0318670    -0.2267910
  C        0.3439980    -1.2907520     0.4304430
  C       -1.0366050    -1.1980160    -0.1526860
  C       -1.6877140    -0.0149620    -0.1717330
  C       -1.0273490     1.2315180     0.1753310
  C        0.3208110     1.3651600     0.1119950
  H        0.3192380    -1.2040060     1.5241050
  H        0.8310050    -2.2339400     0.1718380
  H       -1.5205060    -2.1086570    -0.4970330
  H       -2.8053833    -0.0045601    -0.2452458
  H       -1.6282610     2.1139460     0.3806850
  H        0.8050420     2.3317560     0.2174670
units angstrom
no_reorient  #important for SAPT in psi4, default
symmetry c1  #important for SAPT in psi4, default
}

set PROPERTIES_ORIGIN ["COM"]
properties('MP2/aug-cc-pvtz', properties = ['dipole'])
--------------------------------------------------------------------------

    Molecular point group: c1
  Charge       = 0
  Multiplicity = 1
  Basis Set: AUG-CC-PVTZ
    Blend: AUG-CC-PVTZ
  Basis Set: (AUG-CC-PVTZ AUX)
    Blend: AUG-CC-PVTZ-JKFIT

    Orbital Energies [Eh]
    ---------------------

    Doubly Occupied:

       1A    -91.962476     2A    -11.268661     3A    -11.268125
       4A    -11.245453     5A    -11.242800     6A    -11.240339
       7A     -8.962938     8A     -6.644175     9A     -6.643239
      10A     -6.642373    11A     -1.141808    12A     -1.026735
      13A     -1.018357    14A     -0.859159    15A     -0.816503
      16A     -0.690605    17A     -0.680813    18A     -0.606399
      19A     -0.600237    20A     -0.584651    21A     -0.529383
      22A     -0.484143    23A     -0.462500    24A     -0.456826
      25A     -0.361224    26A     -0.296232

  @DF-RHF Final Energy:  -590.39995264144159

   => Energetics <=

    Nuclear Repulsion Energy =            272.0367227418403218
    One-Electron Energy =               -1349.4010447500147620
    Two-Electron Energy =                 486.9643693667328535
    Total Energy =                       -590.3999526414415868
  Basis Set: (AUG-CC-PVTZ AUX)
    Blend: AUG-CC-PVTZ-RI
    Molecular point group: c1

    Geometry (in Angstrom), charge = 0, multiplicity = 1:

       Center              X                  Y                   Z               Mass
    ------------   -----------------  -----------------  -----------------  -----------------
         S            1.363580387542     0.021459646314    -0.216927416703    31.972071174400
         C            0.305782387542    -1.301159353686     0.440306583297    12.000000000000
         C           -1.074820612458    -1.208423353686    -0.142822416703    12.000000000000
         C           -1.725929612458    -0.025369353686    -0.161869416703    12.000000000000
         C           -1.065564612458     1.221110646314     0.185194583297    12.000000000000
         C            0.282595387542     1.354752646314     0.121858583297    12.000000000000
         H            0.281022387542    -1.214413353686     1.533968583297     1.007825032230
         H            0.792789387542    -2.244347353686     0.181701583297     1.007825032230
         H           -1.558721612458    -2.119064353686    -0.487169416703     1.007825032230
         H           -2.843598912458    -0.014967453686    -0.235382216703     1.007825032230
         H           -1.666476612458     2.103538646314     0.390548583297     1.007825032230
         H            0.766826387542     2.321348646314     0.227330583297     1.007825032230

  Basis Set: AUG-CC-PVTZ
    Blend: AUG-CC-PVTZ
  Basis Set: (AUG-CC-PVTZ AUX)
    Blend: AUG-CC-PVTZ-JKFIT
	 Reference Energy          =    -590.3999526414415868 [Eh]
	 Singles Energy            =      -0.0000000000000000 [Eh]
	 Same-Spin Energy          =      -0.2681379648120656 [Eh]
	 Opposite-Spin Energy      =      -0.8633161412645382 [Eh]
	 Correlation Energy        =      -1.1314541060766037 [Eh]
	 Total Energy              =    -591.5314067475181901 [Eh]

	 ================> DF-SCS-MP2 Energies <==================
	-----------------------------------------------------------
	 SCS Same-Spin Scale       =       0.3333333333333333 [-]
	 SCS Opposite-Spin Scale   =       1.2000000000000000 [-]
	 SCS Same-Spin Energy      =      -0.0893793216040219 [Eh]
	 SCS Opposite-Spin Energy  =      -1.0359793695174457 [Eh]
	 SCS Correlation Energy    =      -1.1253586911214677 [Eh]
	 SCS Total Energy          =    -591.5253113325630920 [Eh]
	-----------------------------------------------------------

  Dipole Moment: [D]
     X:    -0.8714      Y:    -0.4161      Z:     0.6866     Total:     1.1849

*** Psi4 exiting successfully. Buy a developer a beer!
