                               Psi4 1.3.2 release

  ==> Input File <==

--------------------------------------------------------------------------
#psi4
#
memory 32 gb

molecule  {
0 1
  S        1.4017960     0.0318670    -0.2267910
  C        0.3439980    -1.2907520     0.4304430
  C       -1.0366050    -1.1980160    -0.1526860
  C       -1.6877140    -0.0149620    -0.1717330
  C       -1.0273490     1.2315180     0.1753310
  C        0.3208110     1.3651600     0.1119950
  H        0.3192380    -1.2040060     1.5241050
  H        0.8310050    -2.2339400     0.1718380
  H       -1.5205060    -2.1086570    -0.4970330
  H       -2.7141090     0.0333350    -0.5285000
  H       -1.6191314     2.0509575     0.6224475
  H        0.8050420     2.3317560     0.2174670
units angstrom
no_reorient  #important for SAPT in psi4, default
symmetry c1  #important for SAPT in psi4, default
}

set PROPERTIES_ORIGIN ["COM"]
properties('MP2/aug-cc-pvtz', properties = ['dipole'])
--------------------------------------------------------------------------

    Molecular point group: c1
  Charge       = 0
  Multiplicity = 1
  Basis Set: AUG-CC-PVTZ
    Blend: AUG-CC-PVTZ
  Basis Set: (AUG-CC-PVTZ AUX)
    Blend: AUG-CC-PVTZ-JKFIT

    Orbital Energies [Eh]
    ---------------------

    Doubly Occupied:

       1A    -91.962056     2A    -11.268801     3A    -11.267908
       4A    -11.244046     5A    -11.242891     6A    -11.239493
       7A     -8.962559     8A     -6.643783     9A     -6.642861
      10A     -6.642000    11A     -1.141763    12A     -1.026098
      13A     -1.018836    14A     -0.859086    15A     -0.816888
      16A     -0.693698    17A     -0.677349    18A     -0.610312
      19A     -0.600769    20A     -0.583890    21A     -0.534704
      22A     -0.483354    23A     -0.467320    24A     -0.442821
      25A     -0.363702    26A     -0.298558

  @DF-RHF Final Energy:  -590.40209890150481

   => Energetics <=

    Nuclear Repulsion Energy =            272.1485094959247704
    One-Electron Energy =               -1349.6301261160190279
    Two-Electron Energy =                 487.0795177185894431
    Total Energy =                       -590.4020989015048144
  Basis Set: (AUG-CC-PVTZ AUX)
    Blend: AUG-CC-PVTZ-RI
    Molecular point group: c1

    Geometry (in Angstrom), charge = 0, multiplicity = 1:

       Center              X                  Y                   Z               Mass
    ------------   -----------------  -----------------  -----------------  -----------------
         S            1.362548041347     0.021717654977    -0.216500801815    31.972071174400
         C            0.304750041347    -1.300901345023     0.440733198185    12.000000000000
         C           -1.075852958653    -1.208165345023    -0.142395801815    12.000000000000
         C           -1.726961958653    -0.025111345023    -0.161442801815    12.000000000000
         C           -1.066596958653     1.221368654977     0.185621198185    12.000000000000
         C            0.281563041347     1.355010654977     0.122285198185    12.000000000000
         H            0.279990041347    -1.214155345023     1.534395198185     1.007825032230
         H            0.791757041347    -2.244089345023     0.182128198185     1.007825032230
         H           -1.559753958653    -2.118806345023    -0.486742801815     1.007825032230
         H           -2.753356958653     0.023185654977    -0.518209801815     1.007825032230
         H           -1.658379358653     2.040808154977     0.632737698185     1.007825032230
         H            0.765794041347     2.321606654977     0.227757198185     1.007825032230

  Basis Set: AUG-CC-PVTZ
    Blend: AUG-CC-PVTZ
  Basis Set: (AUG-CC-PVTZ AUX)
    Blend: AUG-CC-PVTZ-JKFIT
	 Reference Energy          =    -590.4020989015048144 [Eh]
	 Singles Energy            =      -0.0000000000000000 [Eh]
	 Same-Spin Energy          =      -0.2678517176621694 [Eh]
	 Opposite-Spin Energy      =      -0.8630146935034713 [Eh]
	 Correlation Energy        =      -1.1308664111656408 [Eh]
	 Total Energy              =    -591.5329653126703988 [Eh]

	 ================> DF-SCS-MP2 Energies <==================
	-----------------------------------------------------------
	 SCS Same-Spin Scale       =       0.3333333333333333 [-]
	 SCS Opposite-Spin Scale   =       1.2000000000000000 [-]
	 SCS Same-Spin Energy      =      -0.0892839058873898 [Eh]
	 SCS Opposite-Spin Energy  =      -1.0356176322041655 [Eh]
	 SCS Correlation Energy    =      -1.1249015380915552 [Eh]
	 SCS Total Energy          =    -591.5270004395963497 [Eh]
	-----------------------------------------------------------

  Dipole Moment: [D]
     X:    -0.8571      Y:    -0.4307      Z:     0.6692     Total:     1.1696

*** Psi4 exiting successfully. Buy a developer a beer!
