                               Psi4 1.3.2 release

  ==> Input File <==

--------------------------------------------------------------------------
#psi4
#
memory 32 gb

molecule  {
0 1
  S        1.4017960     0.0318670    -0.2267910
  C        0.3439980    -1.2907520     0.4304430
  C       -1.0366050    -1.1980160    -0.1526860
  C       -1.6877140    -0.0149620    -0.1717330
  C       -1.0273490     1.2315180     0.1753310
  C        0.3208110     1.3651600     0.1119950
  H        0.3192380    -1.2040060     1.5241050
  H        0.8310050    -2.2339400     0.1718380
  H       -1.5393775    -2.1172336    -0.4515323
  H       -2.7141090     0.0333350    -0.5285000
  H       -1.6282610     2.1139460     0.3806850
  H        0.8050420     2.3317560     0.2174670
units angstrom
no_reorient  #important for SAPT in psi4, default
symmetry c1  #important for SAPT in psi4, default
}

set PROPERTIES_ORIGIN ["COM"]
properties('MP2/aug-cc-pvtz', properties = ['dipole'])
--------------------------------------------------------------------------

    Molecular point group: c1
  Charge       = 0
  Multiplicity = 1
  Basis Set: AUG-CC-PVTZ
    Blend: AUG-CC-PVTZ
  Basis Set: (AUG-CC-PVTZ AUX)
    Blend: AUG-CC-PVTZ-JKFIT

    Orbital Energies [Eh]
    ---------------------

    Doubly Occupied:

       1A    -91.961923     2A    -11.268661     3A    -11.267887
       4A    -11.243773     5A    -11.241074     6A    -11.239571
       7A     -8.962432     8A     -6.643674     9A     -6.642728
      10A     -6.641866    11A     -1.141709    12A     -1.026415
      13A     -1.019011    14A     -0.859670    15A     -0.817010
      16A     -0.694297    17A     -0.679340    18A     -0.608794
      19A     -0.599911    20A     -0.584861    21A     -0.535141
      22A     -0.483313    23A     -0.463284    24A     -0.449832
      25A     -0.364782    26A     -0.297469

  @DF-RHF Final Energy:  -590.40534766802784

   => Energetics <=

    Nuclear Repulsion Energy =            272.1847066273670634
    One-Electron Energy =               -1349.7032510982733129
    Two-Electron Energy =                 487.1131968028785195
    Total Energy =                       -590.4053476680278436
  Basis Set: (AUG-CC-PVTZ AUX)
    Blend: AUG-CC-PVTZ-RI
    Molecular point group: c1

    Geometry (in Angstrom), charge = 0, multiplicity = 1:

       Center              X                  Y                   Z               Mass
    ------------   -----------------  -----------------  -----------------  -----------------
         S            1.362835946787     0.021158195454    -0.214482851093    31.972071174400
         C            0.305037946787    -1.301460804546     0.442751148907    12.000000000000
         C           -1.075565053213    -1.208724804546    -0.140377851093    12.000000000000
         C           -1.726674053213    -0.025670804546    -0.159424851093    12.000000000000
         C           -1.066309053213     1.220809195454     0.187639148907    12.000000000000
         C            0.281850946787     1.354451195454     0.124303148907    12.000000000000
         H            0.280277946787    -1.214714804546     1.536413148907     1.007825032230
         H            0.792044946787    -2.244648804546     0.184146148907     1.007825032230
         H           -1.578337553213    -2.127942404546    -0.439224151093     1.007825032230
         H           -2.753069053213     0.022626195454    -0.516191851093     1.007825032230
         H           -1.667221053213     2.103237195454     0.392993148907     1.007825032230
         H            0.766081946787     2.321047195454     0.229775148907     1.007825032230

  Basis Set: AUG-CC-PVTZ
    Blend: AUG-CC-PVTZ
  Basis Set: (AUG-CC-PVTZ AUX)
    Blend: AUG-CC-PVTZ-JKFIT
	 Reference Energy          =    -590.4053476680278436 [Eh]
	 Singles Energy            =      -0.0000000000000000 [Eh]
	 Same-Spin Energy          =      -0.2677780038509855 [Eh]
	 Opposite-Spin Energy      =      -0.8626099830194270 [Eh]
	 Correlation Energy        =      -1.1303879868704125 [Eh]
	 Total Energy              =    -591.5357356548983034 [Eh]

	 ================> DF-SCS-MP2 Energies <==================
	-----------------------------------------------------------
	 SCS Same-Spin Scale       =       0.3333333333333333 [-]
	 SCS Opposite-Spin Scale   =       1.2000000000000000 [-]
	 SCS Same-Spin Energy      =      -0.0892593346169952 [Eh]
	 SCS Opposite-Spin Energy  =      -1.0351319796233125 [Eh]
	 SCS Correlation Energy    =      -1.1243913142403077 [Eh]
	 SCS Total Energy          =    -591.5297389822680998 [Eh]
	-----------------------------------------------------------

  Dipole Moment: [D]
     X:    -0.8770      Y:    -0.3590      Z:     0.5273     Total:     1.0845

*** Psi4 exiting successfully. Buy a developer a beer!
