                               Psi4 1.3.2 release

  ==> Input File <==

--------------------------------------------------------------------------
#psi4
#
memory 32 gb

molecule  {
0 1
  S        1.4017960     0.0318670    -0.2267910
  C        0.3439980    -1.2907520     0.4304430
  C       -1.0366050    -1.1980160    -0.1526860
  C       -1.6877140    -0.0149620    -0.1717330
  C       -1.0273490     1.2315180     0.1753310
  C        0.3208110     1.3651600     0.1119950
  H        0.3192380    -1.2040060     1.5241050
  H        0.8310050    -2.2339400     0.1718380
  H       -1.5205060    -2.1086570    -0.4970330
  H       -2.7141090     0.0333350    -0.5285000
  H       -1.6282610     2.1139460     0.3806850
  H        0.7931863     2.3571445     0.0701074
units angstrom
no_reorient  #important for SAPT in psi4, default
symmetry c1  #important for SAPT in psi4, default
}

set PROPERTIES_ORIGIN ["COM"]
properties('MP2/aug-cc-pvtz', properties = ['dipole'])
--------------------------------------------------------------------------

    Molecular point group: c1
  Charge       = 0
  Multiplicity = 1
  Basis Set: AUG-CC-PVTZ
    Blend: AUG-CC-PVTZ
  Basis Set: (AUG-CC-PVTZ AUX)
    Blend: AUG-CC-PVTZ-JKFIT

    Orbital Energies [Eh]
    ---------------------

    Doubly Occupied:

       1A    -91.962999     2A    -11.270757     3A    -11.267866
       4A    -11.242768     5A    -11.241045     6A    -11.239636
       7A     -8.963464     8A     -6.644689     9A     -6.643736
      10A     -6.642888    11A     -1.141757    12A     -1.026203
      13A     -1.019143    14A     -0.859823    15A     -0.816120
      16A     -0.692779    17A     -0.679511    18A     -0.608227
      19A     -0.600385    20A     -0.583638    21A     -0.534914
      22A     -0.480977    23A     -0.464681    24A     -0.451901
      25A     -0.364994    26A     -0.296346

  @DF-RHF Final Energy:  -590.40387714672750

   => Energetics <=

    Nuclear Repulsion Energy =            272.1477113816710585
    One-Electron Energy =               -1349.6206808841591283
    Two-Electron Energy =                 487.0690923557605743
    Total Energy =                       -590.4038771467273818
  Basis Set: (AUG-CC-PVTZ AUX)
    Blend: AUG-CC-PVTZ-RI
    Molecular point group: c1

    Geometry (in Angstrom), charge = 0, multiplicity = 1:

       Center              X                  Y                   Z               Mass
    ------------   -----------------  -----------------  -----------------  -----------------
         S            1.362763810800     0.020808968564    -0.212499874367    31.972071174400
         C            0.304965810800    -1.301810031436     0.444734125633    12.000000000000
         C           -1.075637189200    -1.209074031436    -0.138394874367    12.000000000000
         C           -1.726746189200    -0.026020031436    -0.157441874367    12.000000000000
         C           -1.066381189200     1.220459968564     0.189622125633    12.000000000000
         C            0.281778810800     1.354101968564     0.126286125633    12.000000000000
         H            0.280205810800    -1.215064031436     1.538396125633     1.007825032230
         H            0.791972810800    -2.244998031436     0.186129125633     1.007825032230
         H           -1.559538189200    -2.119715031436    -0.482741874367     1.007825032230
         H           -2.753141189200     0.022276968564    -0.514208874367     1.007825032230
         H           -1.667293189200     2.102887968564     0.394976125633     1.007825032230
         H            0.754154110800     2.346086468564     0.084398525633     1.007825032230

  Basis Set: AUG-CC-PVTZ
    Blend: AUG-CC-PVTZ
  Basis Set: (AUG-CC-PVTZ AUX)
    Blend: AUG-CC-PVTZ-JKFIT
	 Reference Energy          =    -590.4038771467274955 [Eh]
	 Singles Energy            =      -0.0000000000000000 [Eh]
	 Same-Spin Energy          =      -0.2681334996916621 [Eh]
	 Opposite-Spin Energy      =      -0.8629702349279350 [Eh]
	 Correlation Energy        =      -1.1311037346195971 [Eh]
	 Total Energy              =    -591.5349808813471100 [Eh]

	 ================> DF-SCS-MP2 Energies <==================
	-----------------------------------------------------------
	 SCS Same-Spin Scale       =       0.3333333333333333 [-]
	 SCS Opposite-Spin Scale   =       1.2000000000000000 [-]
	 SCS Same-Spin Energy      =      -0.0893778332305540 [Eh]
	 SCS Opposite-Spin Energy  =      -1.0355642819135220 [Eh]
	 SCS Correlation Energy    =      -1.1249421151440759 [Eh]
	 SCS Total Energy          =    -591.5288192618716039 [Eh]
	-----------------------------------------------------------

  Dipole Moment: [D]
     X:    -0.8398      Y:    -0.3458      Z:     0.3927     Total:     0.9894

*** Psi4 exiting successfully. Buy a developer a beer!
