                               Psi4 1.3.2 release

  ==> Input File <==

--------------------------------------------------------------------------
#psi4
#
memory 32 gb

molecule  {
0 1
  S        1.4017960     0.0318670    -0.2267910
  C        0.3439980    -1.2907520     0.4304430
  C       -1.0366050    -1.1980160    -0.1526860
  C       -1.6877140    -0.0149620    -0.1717330
  C       -1.0273490     1.2315180     0.1753310
  C        0.3208110     1.3651600     0.1119950
  H        0.3192380    -1.2040060     1.5241050
  H        0.8310050    -2.2339400     0.1718380
  H       -1.5205060    -2.1086570    -0.4970330
  H       -2.7293214     0.0270192    -0.4812910
  H       -1.6282610     2.1139460     0.3806850
  H        0.8050420     2.3317560     0.2174670
units angstrom
no_reorient  #important for SAPT in psi4, default
symmetry c1  #important for SAPT in psi4, default
}

set PROPERTIES_ORIGIN ["COM"]
properties('MP2/aug-cc-pvtz', properties = ['dipole'])
--------------------------------------------------------------------------

    Molecular point group: c1
  Charge       = 0
  Multiplicity = 1
  Basis Set: AUG-CC-PVTZ
    Blend: AUG-CC-PVTZ
  Basis Set: (AUG-CC-PVTZ AUX)
    Blend: AUG-CC-PVTZ-JKFIT

    Orbital Energies [Eh]
    ---------------------

    Doubly Occupied:

       1A    -91.962073     2A    -11.268596     3A    -11.267890
       4A    -11.243584     5A    -11.240946     6A    -11.239424
       7A     -8.962568     8A     -6.643807     9A     -6.642863
      10A     -6.642002    11A     -1.141686    12A     -1.026410
      13A     -1.018986    14A     -0.859644    15A     -0.817109
      16A     -0.694451    17A     -0.680236    18A     -0.608524
      19A     -0.599829    20A     -0.584196    21A     -0.534555
      22A     -0.483786    23A     -0.463177    24A     -0.451925
      25A     -0.363495    26A     -0.297403

  @DF-RHF Final Energy:  -590.40538051121518

   => Energetics <=

    Nuclear Repulsion Energy =            272.1975588245107360
    One-Electron Energy =               -1349.7275460854511948
    Two-Electron Energy =                 487.1246067497252739
    Total Energy =                       -590.4053805112152986
  Basis Set: (AUG-CC-PVTZ AUX)
    Blend: AUG-CC-PVTZ-RI
    Molecular point group: c1

    Geometry (in Angstrom), charge = 0, multiplicity = 1:

       Center              X                  Y                   Z               Mass
    ------------   -----------------  -----------------  -----------------  -----------------
         S            1.362798324165     0.021134950060    -0.214500415719    31.972071174400
         C            0.305000324165    -1.301484049940     0.442733584281    12.000000000000
         C           -1.075602675835    -1.208748049940    -0.140395415719    12.000000000000
         C           -1.726711675835    -0.025694049940    -0.159442415719    12.000000000000
         C           -1.066346675835     1.220785950060     0.187621584281    12.000000000000
         C            0.281813324165     1.354427950060     0.124285584281    12.000000000000
         H            0.280240324165    -1.214738049940     1.536395584281     1.007825032230
         H            0.792007324165    -2.244672049940     0.184128584281     1.007825032230
         H           -1.559503675835    -2.119389049940    -0.484742415719     1.007825032230
         H           -2.768319075835     0.016287150060    -0.469000415719     1.007825032230
         H           -1.667258675835     2.103213950060     0.392975584281     1.007825032230
         H            0.766044324165     2.321023950060     0.229757584281     1.007825032230

  Basis Set: AUG-CC-PVTZ
    Blend: AUG-CC-PVTZ
  Basis Set: (AUG-CC-PVTZ AUX)
    Blend: AUG-CC-PVTZ-JKFIT
	 Reference Energy          =    -590.4053805112151849 [Eh]
	 Singles Energy            =      -0.0000000000000000 [Eh]
	 Same-Spin Energy          =      -0.2678254402199310 [Eh]
	 Opposite-Spin Energy      =      -0.8626157089343689 [Eh]
	 Correlation Energy        =      -1.1304411491542998 [Eh]
	 Total Energy              =    -591.5358216603694927 [Eh]

	 ================> DF-SCS-MP2 Energies <==================
	-----------------------------------------------------------
	 SCS Same-Spin Scale       =       0.3333333333333333 [-]
	 SCS Opposite-Spin Scale   =       1.2000000000000000 [-]
	 SCS Same-Spin Energy      =      -0.0892751467399770 [Eh]
	 SCS Opposite-Spin Energy  =      -1.0351388507212427 [Eh]
	 SCS Correlation Energy    =      -1.1244139974612197 [Eh]
	 SCS Total Energy          =    -591.5297945086764457 [Eh]
	-----------------------------------------------------------

  Dipole Moment: [D]
     X:    -0.8705      Y:    -0.3654      Z:     0.5256     Total:     1.0806

*** Psi4 exiting successfully. Buy a developer a beer!
