                               Psi4 1.3.2 release

  ==> Input File <==

--------------------------------------------------------------------------
#psi4
#
memory 32 gb

molecule  {
0 1
  S        1.4017960     0.0318670    -0.2267910
  C        0.3439980    -1.2907520     0.4304430
  C       -1.0366050    -1.1980160    -0.1526860
  C       -1.6877140    -0.0149620    -0.1717330
  C       -1.0273490     1.2315180     0.1753310
  C        0.3208110     1.3651600     0.1119950
  H        0.3192380    -1.2040060     1.5241050
  H        0.8310050    -2.2339400     0.1718380
  H       -1.5205060    -2.1086570    -0.4970330
  H       -2.7141090     0.0333350    -0.5285000
  H       -1.6282610     2.1139460     0.3806850
  H        0.8050420     2.3317560     0.2174670
units angstrom
no_reorient  #important for SAPT in psi4, default
symmetry c1  #important for SAPT in psi4, default
}

set PROPERTIES_ORIGIN ["COM"]
properties('MP2/aug-cc-pvtz', properties = ['dipole'])
--------------------------------------------------------------------------

    Molecular point group: c1
  Charge       = 0
  Multiplicity = 1
  Basis Set: AUG-CC-PVTZ
    Blend: AUG-CC-PVTZ
  Basis Set: (AUG-CC-PVTZ AUX)
    Blend: AUG-CC-PVTZ-JKFIT

    Orbital Energies [Eh]
    ---------------------

    Doubly Occupied:

       1A    -91.962049     2A    -11.268689     3A    -11.267845
       4A    -11.243504     5A    -11.241043     6A    -11.239409
       7A     -8.962552     8A     -6.643791     9A     -6.642846
      10A     -6.641985    11A     -1.141703    12A     -1.026418
      13A     -1.018983    14A     -0.859666    15A     -0.817080
      16A     -0.694207    17A     -0.680207    18A     -0.608946
      19A     -0.599823    20A     -0.584089    21A     -0.534899
      22A     -0.483786    23A     -0.463337    24A     -0.450664
      25A     -0.363907    26A     -0.297707

  @DF-RHF Final Energy:  -590.40547727771843

   => Energetics <=

    Nuclear Repulsion Energy =            272.2047808665510047
    One-Electron Energy =               -1349.7422464129256241
    Two-Electron Energy =                 487.1319882686563005
    Total Energy =                       -590.4054772777184326
  Basis Set: (AUG-CC-PVTZ AUX)
    Blend: AUG-CC-PVTZ-RI
    Molecular point group: c1

    Geometry (in Angstrom), charge = 0, multiplicity = 1:

       Center              X                  Y                   Z               Mass
    ------------   -----------------  -----------------  -----------------  -----------------
         S            1.362641911284     0.021070011426    -0.214015015934    31.972071174400
         C            0.304843911284    -1.301548988574     0.443218984066    12.000000000000
         C           -1.075759088716    -1.208812988574    -0.139910015934    12.000000000000
         C           -1.726868088716    -0.025758988574    -0.158957015934    12.000000000000
         C           -1.066503088716     1.220721011426     0.188106984066    12.000000000000
         C            0.281656911284     1.354363011426     0.124770984066    12.000000000000
         H            0.280083911284    -1.214802988574     1.536880984066     1.007825032230
         H            0.791850911284    -2.244736988574     0.184613984066     1.007825032230
         H           -1.559660088716    -2.119453988574    -0.484257015934     1.007825032230
         H           -2.753263088716     0.022538011426    -0.515724015934     1.007825032230
         H           -1.667415088716     2.103149011426     0.393460984066     1.007825032230
         H            0.765887911284     2.320959011426     0.230242984066     1.007825032230

  Basis Set: AUG-CC-PVTZ
    Blend: AUG-CC-PVTZ
  Basis Set: (AUG-CC-PVTZ AUX)
    Blend: AUG-CC-PVTZ-JKFIT
	 Reference Energy          =    -590.4054772777184326 [Eh]
	 Singles Energy            =      -0.0000000000000000 [Eh]
	 Same-Spin Energy          =      -0.2678035802721048 [Eh]
	 Opposite-Spin Energy      =      -0.8626010249549350 [Eh]
	 Correlation Energy        =      -1.1304046052270398 [Eh]
	 Total Energy              =    -591.5358818829454322 [Eh]

	 ================> DF-SCS-MP2 Energies <==================
	-----------------------------------------------------------
	 SCS Same-Spin Scale       =       0.3333333333333333 [-]
	 SCS Opposite-Spin Scale   =       1.2000000000000000 [-]
	 SCS Same-Spin Energy      =      -0.0892678600907016 [Eh]
	 SCS Opposite-Spin Energy  =      -1.0351212299459218 [Eh]
	 SCS Correlation Energy    =      -1.1243890900366234 [Eh]
	 SCS Total Energy          =    -591.5298663677550621 [Eh]
	-----------------------------------------------------------

  Dipole Moment: [D]
     X:    -0.8595      Y:    -0.3573      Z:     0.4955     Total:     1.0545

*** Psi4 exiting successfully. Buy a developer a beer!
