                               Psi4 1.3.2 release

  ==> Input File <==

--------------------------------------------------------------------------
#psi4
#
memory 32 gb

molecule  {
0 1
  S        1.4017960     0.0318670    -0.2267910
  C        0.3439980    -1.2907520     0.4304430
  C       -1.0366050    -1.1980160    -0.1526860
  C       -1.6877140    -0.0149620    -0.1717330
  C       -1.0273490     1.2315180     0.1753310
  C        0.3208110     1.3651600     0.1119950
  H        0.3192380    -1.2040060     1.5241050
  H        0.8310050    -2.2339400     0.1718380
  H       -1.5205060    -2.1086570    -0.4970330
  H       -2.7141090     0.0333350    -0.5285000
  H       -1.6264351     2.1013483     0.4290375
  H        0.8050420     2.3317560     0.2174670
units angstrom
no_reorient  #important for SAPT in psi4, default
symmetry c1  #important for SAPT in psi4, default
}

set PROPERTIES_ORIGIN ["COM"]
properties('MP2/aug-cc-pvtz', properties = ['dipole'])
--------------------------------------------------------------------------

    Molecular point group: c1
  Charge       = 0
  Multiplicity = 1
  Basis Set: AUG-CC-PVTZ
    Blend: AUG-CC-PVTZ
  Basis Set: (AUG-CC-PVTZ AUX)
    Blend: AUG-CC-PVTZ-JKFIT

    Orbital Energies [Eh]
    ---------------------

    Doubly Occupied:

       1A    -91.961951     2A    -11.268533     3A    -11.267808
       4A    -11.243615     5A    -11.241035     6A    -11.239406
       7A     -8.962454     8A     -6.643691     9A     -6.642750
      10A     -6.641889    11A     -1.141692    12A     -1.026382
      13A     -1.018960    14A     -0.859692    15A     -0.817069
      16A     -0.694083    17A     -0.680218    18A     -0.609593
      19A     -0.600119    20A     -0.584062    21A     -0.534835
      22A     -0.483554    23A     -0.464273    24A     -0.449318
      25A     -0.363834    26A     -0.297839

  @DF-RHF Final Energy:  -590.40539121802442

   => Energetics <=

    Nuclear Repulsion Energy =            272.2106198210073558
    One-Electron Energy =               -1349.7547121228517426
    Two-Electron Energy =                 487.1387010838199672
    Total Energy =                       -590.4053912180243060
  Basis Set: (AUG-CC-PVTZ AUX)
    Blend: AUG-CC-PVTZ-RI
    Molecular point group: c1

    Geometry (in Angstrom), charge = 0, multiplicity = 1:

       Center              X                  Y                   Z               Mass
    ------------   -----------------  -----------------  -----------------  -----------------
         S            1.362623137502     0.021199540136    -0.214512173110    31.972071174400
         C            0.304825137502    -1.301419459864     0.442721826890    12.000000000000
         C           -1.075777862498    -1.208683459864    -0.140407173110    12.000000000000
         C           -1.726886862498    -0.025629459864    -0.159454173110    12.000000000000
         C           -1.066521862498     1.220850540136     0.187609826890    12.000000000000
         C            0.281638137502     1.354492540136     0.124273826890    12.000000000000
         H            0.280065137502    -1.214673459864     1.536383826890     1.007825032230
         H            0.791832137502    -2.244607459864     0.184116826890     1.007825032230
         H           -1.559678862498    -2.119324459864    -0.484754173110     1.007825032230
         H           -2.753281862498     0.022667540136    -0.516221173110     1.007825032230
         H           -1.665607962498     2.090680840136     0.441316326890     1.007825032230
         H            0.765869137502     2.321088540136     0.229745826890     1.007825032230

  Basis Set: AUG-CC-PVTZ
    Blend: AUG-CC-PVTZ
  Basis Set: (AUG-CC-PVTZ AUX)
    Blend: AUG-CC-PVTZ-JKFIT
	 Reference Energy          =    -590.4053912180244197 [Eh]
	 Singles Energy            =      -0.0000000000000000 [Eh]
	 Same-Spin Energy          =      -0.2677830065347683 [Eh]
	 Opposite-Spin Energy      =      -0.8626015958911679 [Eh]
	 Correlation Energy        =      -1.1303846024259361 [Eh]
	 Total Energy              =    -591.5357758204503398 [Eh]

	 ================> DF-SCS-MP2 Energies <==================
	-----------------------------------------------------------
	 SCS Same-Spin Scale       =       0.3333333333333333 [-]
	 SCS Opposite-Spin Scale   =       1.2000000000000000 [-]
	 SCS Same-Spin Energy      =      -0.0892610021782561 [Eh]
	 SCS Opposite-Spin Energy  =      -1.0351219150694015 [Eh]
	 SCS Correlation Energy    =      -1.1243829172476576 [Eh]
	 SCS Total Energy          =    -591.5297741352720777 [Eh]
	-----------------------------------------------------------

  Dipole Moment: [D]
     X:    -0.8653      Y:    -0.3656      Z:     0.5319     Total:     1.0795

*** Psi4 exiting successfully. Buy a developer a beer!
