                               Psi4 1.3.2 release

  ==> Input File <==

--------------------------------------------------------------------------
#psi4
#
memory 32 gb

molecule  {
0 1
  S        1.4017960     0.0318670    -0.2267910
  C        0.3439980    -1.2907520     0.4304430
  C       -1.0366050    -1.1980160    -0.1526860
  C       -1.6877140    -0.0149620    -0.1717330
  C       -1.0273490     1.2315180     0.1753310
  C        0.3208110     1.3651600     0.1119950
  H        0.3192380    -1.2040060     1.5241050
  H        0.8310050    -2.2339400     0.1718380
  H       -1.5205060    -2.1086570    -0.4970330
  H       -2.7141090     0.0333350    -0.5285000
  H       -1.6282610     2.1139460     0.3806850
  H        0.7971382     2.3486817     0.1192272
units angstrom
no_reorient  #important for SAPT in psi4, default
symmetry c1  #important for SAPT in psi4, default
}

set PROPERTIES_ORIGIN ["COM"]
properties('MP2/aug-cc-pvtz', properties = ['dipole'])
--------------------------------------------------------------------------

    Molecular point group: c1
  Charge       = 0
  Multiplicity = 1
  Basis Set: AUG-CC-PVTZ
    Blend: AUG-CC-PVTZ
  Basis Set: (AUG-CC-PVTZ AUX)
    Blend: AUG-CC-PVTZ-JKFIT

    Orbital Energies [Eh]
    ---------------------

    Doubly Occupied:

       1A    -91.962698     2A    -11.269890     3A    -11.267856
       4A    -11.242951     5A    -11.240964     6A    -11.239530
       7A     -8.963175     8A     -6.644405     9A     -6.643455
      10A     -6.642603    11A     -1.141730    12A     -1.026315
      13A     -1.019081    14A     -0.859755    15A     -0.816594
      16A     -0.693507    17A     -0.679774    18A     -0.608489
      19A     -0.600199    20A     -0.583923    21A     -0.534893
      22A     -0.481803    23A     -0.464400    24A     -0.451583
      25A     -0.364644    26A     -0.296779

  @DF-RHF Final Energy:  -590.40471967081010

   => Energetics <=

    Nuclear Repulsion Energy =            272.1755351500006554
    One-Electron Energy =               -1349.6785166696431588
    Two-Electron Energy =                 487.0982618488325215
    Total Energy =                       -590.4047196708100955
  Basis Set: (AUG-CC-PVTZ AUX)
    Blend: AUG-CC-PVTZ-RI
    Molecular point group: c1

    Geometry (in Angstrom), charge = 0, multiplicity = 1:

       Center              X                  Y                   Z               Mass
    ------------   -----------------  -----------------  -----------------  -----------------
         S            1.362723177628     0.020895982509    -0.213004920870    31.972071174400
         C            0.304925177628    -1.301723017491     0.444229079130    12.000000000000
         C           -1.075677822372    -1.208987017491    -0.138899920870    12.000000000000
         C           -1.726786822372    -0.025933017491    -0.157946920870    12.000000000000
         C           -1.066421822372     1.220546982509     0.189117079130    12.000000000000
         C            0.281738177628     1.354188982509     0.125781079130    12.000000000000
         H            0.280165177628    -1.214977017491     1.537891079130     1.007825032230
         H            0.791932177628    -2.244911017491     0.185624079130     1.007825032230
         H           -1.559578822372    -2.119628017491    -0.483246920870     1.007825032230
         H           -2.753181822372     0.022363982509    -0.514713920870     1.007825032230
         H           -1.667333822372     2.102974982509     0.394471079130     1.007825032230
         H            0.758065377628     2.337710682509     0.133013279130     1.007825032230

  Basis Set: AUG-CC-PVTZ
    Blend: AUG-CC-PVTZ
  Basis Set: (AUG-CC-PVTZ AUX)
    Blend: AUG-CC-PVTZ-JKFIT
	 Reference Energy          =    -590.4047196708100955 [Eh]
	 Singles Energy            =      -0.0000000000000000 [Eh]
	 Same-Spin Energy          =      -0.2680046965161949 [Eh]
	 Opposite-Spin Energy      =      -0.8628023147563622 [Eh]
	 Correlation Energy        =      -1.1308070112725570 [Eh]
	 Total Energy              =    -591.5355266820826046 [Eh]

	 ================> DF-SCS-MP2 Energies <==================
	-----------------------------------------------------------
	 SCS Same-Spin Scale       =       0.3333333333333333 [-]
	 SCS Opposite-Spin Scale   =       1.2000000000000000 [-]
	 SCS Same-Spin Energy      =      -0.0893348988387316 [Eh]
	 SCS Opposite-Spin Energy  =      -1.0353627777076346 [Eh]
	 SCS Correlation Energy    =      -1.1246976765463663 [Eh]
	 SCS Total Energy          =    -591.5294173473564570 [Eh]
	-----------------------------------------------------------

  Dipole Moment: [D]
     X:    -0.8438      Y:    -0.3471      Z:     0.4268     Total:     1.0073

*** Psi4 exiting successfully. Buy a developer a beer!
