                               Psi4 1.3.2 release

  ==> Input File <==

--------------------------------------------------------------------------
#psi4
#
memory 32 gb

molecule  {
0 1
  S        1.4017960     0.0318670    -0.2267910
  C        0.3439980    -1.2907520     0.4304430
  C       -1.0366050    -1.1980160    -0.1526860
  C       -1.6877140    -0.0149620    -0.1717330
  C       -1.0273490     1.2315180     0.1753310
  C        0.3208110     1.3651600     0.1119950
  H        0.3192380    -1.2040060     1.5241050
  H        0.8310050    -2.2339400     0.1718380
  H       -1.5205060    -2.1086570    -0.4970330
  H       -2.7141090     0.0333350    -0.5285000
  H       -1.6282610     2.1139460     0.3806850
  H        0.8010901     2.3402188     0.1683471
units angstrom
no_reorient  #important for SAPT in psi4, default
symmetry c1  #important for SAPT in psi4, default
}

set PROPERTIES_ORIGIN ["COM"]
properties('MP2/aug-cc-pvtz', properties = ['dipole'])
--------------------------------------------------------------------------

    Molecular point group: c1
  Charge       = 0
  Multiplicity = 1
  Basis Set: AUG-CC-PVTZ
    Blend: AUG-CC-PVTZ
  Basis Set: (AUG-CC-PVTZ AUX)
    Blend: AUG-CC-PVTZ-JKFIT

    Orbital Energies [Eh]
    ---------------------

    Doubly Occupied:

       1A    -91.962381     2A    -11.269199     3A    -11.267849
       4A    -11.243197     5A    -11.240963     6A    -11.239455
       7A     -8.962871     8A     -6.644105     9A     -6.643158
      10A     -6.642302    11A     -1.141712    12A     -1.026388
      13A     -1.019027    14A     -0.859703    15A     -0.816918
      16A     -0.693993    17A     -0.680001    18A     -0.608731
      19A     -0.600010    20A     -0.584073    21A     -0.534888
      22A     -0.482753    23A     -0.463935    24A     -0.451172
      25A     -0.364282    26A     -0.297234

  @DF-RHF Final Energy:  -590.40524388331698

   => Energetics <=

    Nuclear Repulsion Energy =            272.1946385285580163
    One-Electron Energy =               -1349.7191683352600649
    Two-Electron Energy =                 487.1192859233850072
    Total Energy =                       -590.4052438833170982
  Basis Set: (AUG-CC-PVTZ AUX)
    Blend: AUG-CC-PVTZ-RI
    Molecular point group: c1

    Geometry (in Angstrom), charge = 0, multiplicity = 1:

       Center              X                  Y                   Z               Mass
    ------------   -----------------  -----------------  -----------------  -----------------
         S            1.362682544456     0.020982997481    -0.213509968402    31.972071174400
         C            0.304884544456    -1.301636002519     0.443724031598    12.000000000000
         C           -1.075718455544    -1.208900002519    -0.139404968402    12.000000000000
         C           -1.726827455544    -0.025846002519    -0.158451968402    12.000000000000
         C           -1.066462455544     1.220633997481     0.188612031598    12.000000000000
         C            0.281697544456     1.354275997481     0.125276031598    12.000000000000
         H            0.280124544456    -1.214890002519     1.537386031598     1.007825032230
         H            0.791891544456    -2.244824002519     0.185119031598     1.007825032230
         H           -1.559619455544    -2.119541002519    -0.483751968402     1.007825032230
         H           -2.753222455544     0.022450997481    -0.515218968402     1.007825032230
         H           -1.667374455544     2.103061997481     0.393966031598     1.007825032230
         H            0.761976644456     2.329334797481     0.181628131598     1.007825032230

  Basis Set: AUG-CC-PVTZ
    Blend: AUG-CC-PVTZ
  Basis Set: (AUG-CC-PVTZ AUX)
    Blend: AUG-CC-PVTZ-JKFIT
	 Reference Energy          =    -590.4052438833169845 [Eh]
	 Singles Energy            =      -0.0000000000000000 [Eh]
	 Same-Spin Energy          =      -0.2678946052717850 [Eh]
	 Opposite-Spin Energy      =      -0.8626795622657677 [Eh]
	 Correlation Energy        =      -1.1305741675375527 [Eh]
	 Total Energy              =    -591.5358180508545729 [Eh]

	 ================> DF-SCS-MP2 Energies <==================
	-----------------------------------------------------------
	 SCS Same-Spin Scale       =       0.3333333333333333 [-]
	 SCS Opposite-Spin Scale   =       1.2000000000000000 [-]
	 SCS Same-Spin Energy      =      -0.0892982017572617 [Eh]
	 SCS Opposite-Spin Energy  =      -1.0352154747189213 [Eh]
	 SCS Correlation Energy    =      -1.1245136764761829 [Eh]
	 SCS Total Energy          =    -591.5297575597932109 [Eh]
	-----------------------------------------------------------

  Dipole Moment: [D]
     X:    -0.8504      Y:    -0.3509      Z:     0.4611     Total:     1.0290

*** Psi4 exiting successfully. Buy a developer a beer!
