                               Psi4 1.3.2 release

  ==> Input File <==

--------------------------------------------------------------------------
#psi4
#
memory 32 gb

molecule  {
0 1
  S        1.4017960     0.0318670    -0.2267910
  C        0.3439980    -1.2907520     0.4304430
  C       -1.0366050    -1.1980160    -0.1526860
  C       -1.6877140    -0.0149620    -0.1717330
  C       -1.0273490     1.2315180     0.1753310
  C        0.3208110     1.3651600     0.1119950
  H        0.3192380    -1.2040060     1.5241050
  H        0.8310050    -2.2339400     0.1718380
  H       -1.5205060    -2.1086570    -0.4970330
  H       -2.7141090     0.0333350    -0.5285000
  H       -1.6246092     2.0887506     0.4773900
  H        0.8050420     2.3317560     0.2174670
units angstrom
no_reorient  #important for SAPT in psi4, default
symmetry c1  #important for SAPT in psi4, default
}

set PROPERTIES_ORIGIN ["COM"]
properties('MP2/aug-cc-pvtz', properties = ['dipole'])
--------------------------------------------------------------------------

    Molecular point group: c1
  Charge       = 0
  Multiplicity = 1
  Basis Set: AUG-CC-PVTZ
    Blend: AUG-CC-PVTZ
  Basis Set: (AUG-CC-PVTZ AUX)
    Blend: AUG-CC-PVTZ-JKFIT

    Orbital Energies [Eh]
    ---------------------

    Doubly Occupied:

       1A    -91.961903     2A    -11.268467     3A    -11.267795
       4A    -11.243726     5A    -11.241212     6A    -11.239419
       7A     -8.962405     8A     -6.643639     9A     -6.642704
      10A     -6.641842    11A     -1.141692    12A     -1.026328
      13A     -1.018935    14A     -0.859643    15A     -0.817042
      16A     -0.693957    17A     -0.679939    18A     -0.610079
      19A     -0.600343    20A     -0.584029    21A     -0.534783
      22A     -0.483396    23A     -0.465142    24A     -0.447850
      25A     -0.363777    26A     -0.297991

  @DF-RHF Final Energy:  -590.40502371095192

   => Energetics <=

    Nuclear Repulsion Energy =            272.2077735351956562
    One-Electron Energy =               -1349.7495151967971196
    Two-Electron Energy =                 487.1367179506494836
    Total Energy =                       -590.4050237109520367
  Basis Set: (AUG-CC-PVTZ AUX)
    Blend: AUG-CC-PVTZ-RI
    Molecular point group: c1

    Geometry (in Angstrom), charge = 0, multiplicity = 1:

       Center              X                  Y                   Z               Mass
    ------------   -----------------  -----------------  -----------------  -----------------
         S            1.362604363720     0.021329068846    -0.215009330286    31.972071174400
         C            0.304806363720    -1.301289931154     0.442224669714    12.000000000000
         C           -1.075796636280    -1.208553931154    -0.140904330286    12.000000000000
         C           -1.726905636280    -0.025499931154    -0.159951330286    12.000000000000
         C           -1.066540636280     1.220980068846     0.187112669714    12.000000000000
         C            0.281619363720     1.354622068846     0.123776669714    12.000000000000
         H            0.280046363720    -1.214543931154     1.535886669714     1.007825032230
         H            0.791813363720    -2.244477931154     0.183619669714     1.007825032230
         H           -1.559697636280    -2.119194931154    -0.485251330286     1.007825032230
         H           -2.753300636280     0.022797068846    -0.516718330286     1.007825032230
         H           -1.663800836280     2.078212668846     0.489171669714     1.007825032230
         H            0.765850363720     2.321218068846     0.229248669714     1.007825032230

  Basis Set: AUG-CC-PVTZ
    Blend: AUG-CC-PVTZ
  Basis Set: (AUG-CC-PVTZ AUX)
    Blend: AUG-CC-PVTZ-JKFIT
	 Reference Energy          =    -590.4050237109519230 [Eh]
	 Singles Energy            =      -0.0000000000000000 [Eh]
	 Same-Spin Energy          =      -0.2677774179220659 [Eh]
	 Opposite-Spin Energy      =      -0.8626421012549290 [Eh]
	 Correlation Energy        =      -1.1304195191769950 [Eh]
	 Total Energy              =    -591.5354432301288625 [Eh]

	 ================> DF-SCS-MP2 Energies <==================
	-----------------------------------------------------------
	 SCS Same-Spin Scale       =       0.3333333333333333 [-]
	 SCS Opposite-Spin Scale   =       1.2000000000000000 [-]
	 SCS Same-Spin Energy      =      -0.0892591393073553 [Eh]
	 SCS Opposite-Spin Energy  =      -1.0351705215059148 [Eh]
	 SCS Correlation Energy    =      -1.1244296608132700 [Eh]
	 SCS Total Energy          =    -591.5294533717651575 [Eh]
	-----------------------------------------------------------

  Dipole Moment: [D]
     X:    -0.8680      Y:    -0.3772      Z:     0.5676     Total:     1.1036

*** Psi4 exiting successfully. Buy a developer a beer!
