                               Psi4 1.3.2 release

  ==> Input File <==

--------------------------------------------------------------------------
#psi4
#
memory 32 gb

molecule  {
0 1
  S        1.4017960     0.0318670    -0.2267910
  C        0.3439980    -1.2907520     0.4304430
  C       -1.0366050    -1.1980160    -0.1526860
  C       -1.6877140    -0.0149620    -0.1717330
  C       -1.0273490     1.2315180     0.1753310
  C        0.3208110     1.3651600     0.1119950
  H        0.3192380    -1.2040060     1.5241050
  H        0.8310050    -2.2339400     0.1718380
  H       -1.5771204    -2.1343869    -0.3605310
  H       -2.7141090     0.0333350    -0.5285000
  H       -1.6282610     2.1139460     0.3806850
  H        0.8050420     2.3317560     0.2174670
units angstrom
no_reorient  #important for SAPT in psi4, default
symmetry c1  #important for SAPT in psi4, default
}

set PROPERTIES_ORIGIN ["COM"]
properties('MP2/aug-cc-pvtz', properties = ['dipole'])
--------------------------------------------------------------------------

    Molecular point group: c1
  Charge       = 0
  Multiplicity = 1
  Basis Set: AUG-CC-PVTZ
    Blend: AUG-CC-PVTZ
  Basis Set: (AUG-CC-PVTZ AUX)
    Blend: AUG-CC-PVTZ-JKFIT

    Orbital Energies [Eh]
    ---------------------

    Doubly Occupied:

       1A    -91.961743     2A    -11.268778     3A    -11.267975
       4A    -11.244888     5A    -11.241272     6A    -11.240132
       7A     -8.962265     8A     -6.643512     9A     -6.642563
      10A     -6.641698    11A     -1.141779    12A     -1.026322
      13A     -1.019135    14A     -0.859732    15A     -0.816446
      16A     -0.694533    17A     -0.676765    18A     -0.608580
      19A     -0.600164    20A     -0.585645    21A     -0.535606
      22A     -0.482365    23A     -0.463254    24A     -0.447965
      25A     -0.366502    26A     -0.297042

  @DF-RHF Final Energy:  -590.40421527829767

   => Energetics <=

    Nuclear Repulsion Energy =            272.1196490715191771
    One-Electron Energy =               -1349.5744080957106235
    Two-Electron Energy =                 487.0505437458936626
    Total Energy =                       -590.4042152782976700
  Basis Set: (AUG-CC-PVTZ AUX)
    Blend: AUG-CC-PVTZ-RI
    Molecular point group: c1

    Geometry (in Angstrom), charge = 0, multiplicity = 1:

       Center              X                  Y                   Z               Mass
    ------------   -----------------  -----------------  -----------------  -----------------
         S            1.363224016764     0.021334564539    -0.215418520383    31.972071174400
         C            0.305426016764    -1.301284435461     0.441815479617    12.000000000000
         C           -1.075176983236    -1.208548435461    -0.141313520383    12.000000000000
         C           -1.726285983236    -0.025494435461    -0.160360520383    12.000000000000
         C           -1.065920983236     1.220985564539     0.186703479617    12.000000000000
         C            0.282239016764     1.354627564539     0.123367479617    12.000000000000
         H            0.280666016764    -1.214538435461     1.535477479617     1.007825032230
         H            0.792433016764    -2.244472435461     0.183210479617     1.007825032230
         H           -1.615692383236    -2.144919335461    -0.349158520383     1.007825032230
         H           -2.752680983236     0.022802564539    -0.517127520383     1.007825032230
         H           -1.666832983236     2.103413564539     0.392057479617     1.007825032230
         H            0.766470016764     2.321223564539     0.228839479617     1.007825032230

  Basis Set: AUG-CC-PVTZ
    Blend: AUG-CC-PVTZ
  Basis Set: (AUG-CC-PVTZ AUX)
    Blend: AUG-CC-PVTZ-JKFIT
	 Reference Energy          =    -590.4042152782976700 [Eh]
	 Singles Energy            =      -0.0000000000000000 [Eh]
	 Same-Spin Energy          =      -0.2677812951128236 [Eh]
	 Opposite-Spin Energy      =      -0.8627559823974824 [Eh]
	 Correlation Energy        =      -1.1305372775103060 [Eh]
	 Total Energy              =    -591.5347525558079269 [Eh]

	 ================> DF-SCS-MP2 Energies <==================
	-----------------------------------------------------------
	 SCS Same-Spin Scale       =       0.3333333333333333 [-]
	 SCS Opposite-Spin Scale   =       1.2000000000000000 [-]
	 SCS Same-Spin Energy      =      -0.0892604317042745 [Eh]
	 SCS Opposite-Spin Energy  =      -1.0353071788769788 [Eh]
	 SCS Correlation Energy    =      -1.1245676105812532 [Eh]
	 SCS Total Energy          =    -591.5287828888789363 [Eh]
	-----------------------------------------------------------

  Dipole Moment: [D]
     X:    -0.9071      Y:    -0.3504      Z:     0.5924     Total:     1.1387

*** Psi4 exiting successfully. Buy a developer a beer!
