                               Psi4 1.3.2 release

  ==> Input File <==

--------------------------------------------------------------------------
#psi4
#
memory 32 gb

molecule  {
0 1
  S        1.4017960     0.0318670    -0.2267910
  C        0.3439980    -1.2907520     0.4304430
  C       -1.0366050    -1.1980160    -0.1526860
  C       -1.6877140    -0.0149620    -0.1717330
  C       -1.0273490     1.2315180     0.1753310
  C        0.3208110     1.3651600     0.1119950
  H        0.3192380    -1.2040060     1.5241050
  H        0.8310050    -2.2339400     0.1718380
  H       -1.5205060    -2.1086570    -0.4970330
  H       -2.7749585     0.0080716    -0.3396638
  H       -1.6282610     2.1139460     0.3806850
  H        0.8050420     2.3317560     0.2174670
units angstrom
no_reorient  #important for SAPT in psi4, default
symmetry c1  #important for SAPT in psi4, default
}

set PROPERTIES_ORIGIN ["COM"]
properties('MP2/aug-cc-pvtz', properties = ['dipole'])
--------------------------------------------------------------------------

    Molecular point group: c1
  Charge       = 0
  Multiplicity = 1
  Basis Set: AUG-CC-PVTZ
    Blend: AUG-CC-PVTZ
  Basis Set: (AUG-CC-PVTZ AUX)
    Blend: AUG-CC-PVTZ-JKFIT

    Orbital Energies [Eh]
    ---------------------

    Doubly Occupied:

       1A    -91.962259     2A    -11.268309     3A    -11.268246
       4A    -11.244412     5A    -11.241164     6A    -11.240254
       7A     -8.962734     8A     -6.643971     9A     -6.643032
      10A     -6.642168    11A     -1.141714    12A     -1.026531
      13A     -1.018723    14A     -0.859407    15A     -0.816882
      16A     -0.693083    17A     -0.680501    18A     -0.607212
      19A     -0.599997    20A     -0.584491    21A     -0.532182
      22A     -0.483929    23A     -0.462734    24A     -0.455158
      25A     -0.362163    26A     -0.296627

  @DF-RHF Final Energy:  -590.40322038470026

   => Energetics <=

    Nuclear Repulsion Energy =            272.1249324803578702
    One-Electron Energy =               -1349.5805373117514137
    Two-Electron Energy =                 487.0523844466932246
    Total Energy =                       -590.4032203847002620
  Basis Set: (AUG-CC-PVTZ AUX)
    Blend: AUG-CC-PVTZ-RI
    Molecular point group: c1

    Geometry (in Angstrom), charge = 0, multiplicity = 1:

       Center              X                  Y                   Z               Mass
    ------------   -----------------  -----------------  -----------------  -----------------
         S            1.363267561780     0.021329768018    -0.215956617132    31.972071174400
         C            0.305469561780    -1.301289231982     0.441277382868    12.000000000000
         C           -1.075133438220    -1.208553231982    -0.141851617132    12.000000000000
         C           -1.726242438220    -0.025499231982    -0.160898617132    12.000000000000
         C           -1.065877438220     1.220980768018     0.186165382868    12.000000000000
         C            0.282282561780     1.354622768018     0.122829382868    12.000000000000
         H            0.280709561780    -1.214543231982     1.534939382868     1.007825032230
         H            0.792476561780    -2.244477231982     0.182672382868     1.007825032230
         H           -1.559034438220    -2.119194231982    -0.486198617132     1.007825032230
         H           -2.813486938220    -0.002465631982    -0.328829417132     1.007825032230
         H           -1.666789438220     2.103408768018     0.391519382868     1.007825032230
         H            0.766513561780     2.321218768018     0.228301382868     1.007825032230

  Basis Set: AUG-CC-PVTZ
    Blend: AUG-CC-PVTZ
  Basis Set: (AUG-CC-PVTZ AUX)
    Blend: AUG-CC-PVTZ-JKFIT
	 Reference Energy          =    -590.4032203847002620 [Eh]
	 Singles Energy            =      -0.0000000000000000 [Eh]
	 Same-Spin Energy          =      -0.2679738946847678 [Eh]
	 Opposite-Spin Energy      =      -0.8629102160366338 [Eh]
	 Correlation Energy        =      -1.1308841107214016 [Eh]
	 Total Energy              =    -591.5341044954216159 [Eh]

	 ================> DF-SCS-MP2 Energies <==================
	-----------------------------------------------------------
	 SCS Same-Spin Scale       =       0.3333333333333333 [-]
	 SCS Opposite-Spin Scale   =       1.2000000000000000 [-]
	 SCS Same-Spin Energy      =      -0.0893246315615893 [Eh]
	 SCS Opposite-Spin Energy  =      -1.0354922592439604 [Eh]
	 SCS Correlation Energy    =      -1.1248168908055496 [Eh]
	 SCS Total Energy          =    -591.5280372755057670 [Eh]
	-----------------------------------------------------------

  Dipole Moment: [D]
     X:    -0.8819      Y:    -0.3943      Z:     0.6208     Total:     1.1483

*** Psi4 exiting successfully. Buy a developer a beer!
