                               Psi4 1.3.2 release

  ==> Input File <==

--------------------------------------------------------------------------
#psi4
#
memory 32 gb

molecule  {
0 1
  S        1.4017960     0.0318670    -0.2267910
  C        0.3439980    -1.2907520     0.4304430
  C       -1.0366050    -1.1980160    -0.1526860
  C       -1.6877140    -0.0149620    -0.1717330
  C       -1.0273490     1.2315180     0.1753310
  C        0.3208110     1.3651600     0.1119950
  H        0.3192380    -1.2040060     1.5241050
  H        0.8310050    -2.2339400     0.1718380
  H       -1.5205060    -2.1086570    -0.4970330
  H       -2.7901709     0.0017558    -0.2924548
  H       -1.6282610     2.1139460     0.3806850
  H        0.8050420     2.3317560     0.2174670
units angstrom
no_reorient  #important for SAPT in psi4, default
symmetry c1  #important for SAPT in psi4, default
}

set PROPERTIES_ORIGIN ["COM"]
properties('MP2/aug-cc-pvtz', properties = ['dipole'])
--------------------------------------------------------------------------

    Molecular point group: c1
  Charge       = 0
  Multiplicity = 1
  Basis Set: AUG-CC-PVTZ
    Blend: AUG-CC-PVTZ
  Basis Set: (AUG-CC-PVTZ AUX)
    Blend: AUG-CC-PVTZ-JKFIT

    Orbital Energies [Eh]
    ---------------------

    Doubly Occupied:

       1A    -91.962358     2A    -11.268436     3A    -11.268214
       4A    -11.244882     5A    -11.241844     6A    -11.240340
       7A     -8.962827     8A     -6.644064     9A     -6.643126
      10A     -6.642261    11A     -1.141753    12A     -1.026620
      13A     -1.018556    14A     -0.859287    15A     -0.816712
      16A     -0.691981    17A     -0.680645    18A     -0.606792
      19A     -0.600104    20A     -0.584575    21A     -0.530912
      22A     -0.484024    23A     -0.462607    24A     -0.456043
      25A     -0.361697    26A     -0.296416

  @DF-RHF Final Energy:  -590.40179460845081

   => Energetics <=

    Nuclear Repulsion Energy =            272.0845412104210936
    One-Electron Energy =               -1349.4985164188026374
    Two-Electron Energy =                 487.0121805999306730
    Total Energy =                       -590.4017946084509276
  Basis Set: (AUG-CC-PVTZ AUX)
    Blend: AUG-CC-PVTZ-RI
    Molecular point group: c1

    Geometry (in Angstrom), charge = 0, multiplicity = 1:

       Center              X                  Y                   Z               Mass
    ------------   -----------------  -----------------  -----------------  -----------------
         S            1.363423974661     0.021394706651    -0.216442016918    31.972071174400
         C            0.305625974661    -1.301224293349     0.440791983082    12.000000000000
         C           -1.074977025339    -1.208488293349    -0.142337016918    12.000000000000
         C           -1.726086025339    -0.025434293349    -0.161384016918    12.000000000000
         C           -1.065721025339     1.221045706651     0.185679983082    12.000000000000
         C            0.282438974661     1.354687706651     0.122343983082    12.000000000000
         H            0.280865974661    -1.214478293349     1.534453983082     1.007825032230
         H            0.792632974661    -2.244412293349     0.182186983082     1.007825032230
         H           -1.558878025339    -2.119129293349    -0.486684016918     1.007825032230
         H           -2.828542925339    -0.008716493349    -0.282105816918     1.007825032230
         H           -1.666633025339     2.103473706651     0.391033983082     1.007825032230
         H            0.766669974661     2.321283706651     0.227815983082     1.007825032230

  Basis Set: AUG-CC-PVTZ
    Blend: AUG-CC-PVTZ
  Basis Set: (AUG-CC-PVTZ AUX)
    Blend: AUG-CC-PVTZ-JKFIT
	 Reference Energy          =    -590.4017946084508139 [Eh]
	 Singles Energy            =      -0.0000000000000000 [Eh]
	 Same-Spin Energy          =      -0.2680497559135581 [Eh]
	 Opposite-Spin Energy      =      -0.8630919008766282 [Eh]
	 Correlation Energy        =      -1.1311416567901862 [Eh]
	 Total Energy              =    -591.5329362652410055 [Eh]

	 ================> DF-SCS-MP2 Energies <==================
	-----------------------------------------------------------
	 SCS Same-Spin Scale       =       0.3333333333333333 [-]
	 SCS Opposite-Spin Scale   =       1.2000000000000000 [-]
	 SCS Same-Spin Energy      =      -0.0893499186378527 [Eh]
	 SCS Opposite-Spin Energy  =      -1.0357102810519538 [Eh]
	 SCS Correlation Energy    =      -1.1250601996898064 [Eh]
	 SCS Total Energy          =    -591.5268548081405697 [Eh]
	-----------------------------------------------------------

  Dipole Moment: [D]
     X:    -0.8785      Y:    -0.4050      Z:     0.6536     Total:     1.1674

*** Psi4 exiting successfully. Buy a developer a beer!
