                               Psi4 1.3.2 release

  ==> Input File <==

--------------------------------------------------------------------------
#psi4
#
memory 32 gb

molecule  {
0 1
  S        1.4017960     0.0318670    -0.2267910
  C        0.3439980    -1.2907520     0.4304430
  C       -1.0366050    -1.1980160    -0.1526860
  C       -1.6877140    -0.0149620    -0.1717330
  C       -1.0273490     1.2315180     0.1753310
  C        0.3208110     1.3651600     0.1119950
  H        0.3192380    -1.2040060     1.5241050
  H        0.8310050    -2.2339400     0.1718380
  H       -1.5205060    -2.1086570    -0.4970330
  H       -2.7141090     0.0333350    -0.5285000
  H       -1.6282610     2.1139460     0.3806850
  H        0.7813306     2.3825330    -0.0772523
units angstrom
no_reorient  #important for SAPT in psi4, default
symmetry c1  #important for SAPT in psi4, default
}

set PROPERTIES_ORIGIN ["COM"]
properties('MP2/aug-cc-pvtz', properties = ['dipole'])
--------------------------------------------------------------------------

    Molecular point group: c1
  Charge       = 0
  Multiplicity = 1
  Basis Set: AUG-CC-PVTZ
    Blend: AUG-CC-PVTZ
  Basis Set: (AUG-CC-PVTZ AUX)
    Blend: AUG-CC-PVTZ-JKFIT

    Orbital Energies [Eh]
    ---------------------

    Doubly Occupied:

       1A    -91.963818     2A    -11.274325     3A    -11.267922
       4A    -11.242596     5A    -11.241733     6A    -11.240122
       7A     -8.964251     8A     -6.645460     9A     -6.644491
      10A     -6.643656    11A     -1.141905    12A     -1.025700
      13A     -1.019369    14A     -0.860119    15A     -0.814008
      16A     -0.689688    17A     -0.678231    18A     -0.607388
      19A     -0.600868    20A     -0.581912    21A     -0.535072
      22A     -0.479577    23A     -0.464106    24A     -0.452239
      25A     -0.365994    26A     -0.295189

  @DF-RHF Final Energy:  -590.39903377049802

   => Energetics <=

    Nuclear Repulsion Energy =            272.0158684953600527
    One-Electron Energy =               -1349.3503286504419520
    Two-Electron Energy =                 486.9354263845838204
    Total Energy =                       -590.3990337704980220
  Basis Set: (AUG-CC-PVTZ AUX)
    Blend: AUG-CC-PVTZ-RI
    Molecular point group: c1

    Geometry (in Angstrom), charge = 0, multiplicity = 1:

       Center              X                  Y                   Z               Mass
    ------------   -----------------  -----------------  -----------------  -----------------
         S            1.362885710316     0.020547925703    -0.210984731772    31.972071174400
         C            0.305087710316    -1.302071074297     0.446249268228    12.000000000000
         C           -1.075515289684    -1.209335074297    -0.136879731772    12.000000000000
         C           -1.726624289684    -0.026281074297    -0.155926731772    12.000000000000
         C           -1.066259289684     1.220198925703     0.191137268228    12.000000000000
         C            0.281900710316     1.353840925703     0.127801268228    12.000000000000
         H            0.280327710316    -1.215325074297     1.539911268228     1.007825032230
         H            0.792094710316    -2.245259074297     0.187644268228     1.007825032230
         H           -1.559416289684    -2.119976074297    -0.481226731772     1.007825032230
         H           -2.753019289684     0.022015925703    -0.512693731772     1.007825032230
         H           -1.667171289684     2.102626925703     0.396491268228     1.007825032230
         H            0.742420310316     2.371213925703    -0.061446031772     1.007825032230

  Basis Set: AUG-CC-PVTZ
    Blend: AUG-CC-PVTZ
  Basis Set: (AUG-CC-PVTZ AUX)
    Blend: AUG-CC-PVTZ-JKFIT
	 Reference Energy          =    -590.3990337704980220 [Eh]
	 Singles Energy            =      -0.0000000000000000 [Eh]
	 Same-Spin Energy          =      -0.2686253056201404 [Eh]
	 Opposite-Spin Energy      =      -0.8637534740853743 [Eh]
	 Correlation Energy        =      -1.1323787797055147 [Eh]
	 Total Energy              =    -591.5314125502035267 [Eh]

	 ================> DF-SCS-MP2 Energies <==================
	-----------------------------------------------------------
	 SCS Same-Spin Scale       =       0.3333333333333333 [-]
	 SCS Opposite-Spin Scale   =       1.2000000000000000 [-]
	 SCS Same-Spin Energy      =      -0.0895417685400468 [Eh]
	 SCS Opposite-Spin Energy  =      -1.0365041689024490 [Eh]
	 SCS Correlation Energy    =      -1.1260459374424958 [Eh]
	 SCS Total Energy          =    -591.5250797079405629 [Eh]
	-----------------------------------------------------------

  Dipole Moment: [D]
     X:    -0.8424      Y:    -0.3574      Z:     0.2926     Total:     0.9607

*** Psi4 exiting successfully. Buy a developer a beer!
