                               Psi4 1.3.2 release

  ==> Input File <==

--------------------------------------------------------------------------
#psi4
#
memory 32 gb

molecule  {
0 1
  F        0.7457720     1.2439030     0.0993580
  O        1.5750600    -0.7893450    -0.3055120
  C       -0.7198440    -0.5585240     0.4986260
  C       -1.8269480     0.0738180    -0.3493740
  C        0.6303866    -0.3239208     0.0503857
  H       -0.8366380    -0.2608540     1.5463680
  H       -0.7457930    -1.6486690     0.4487620
  H       -1.7160630    -0.2005380    -1.4014460
  H       -2.8039020    -0.2761050    -0.0088100
  H       -1.7996360     1.1613730    -0.2701860
units angstrom
no_reorient  #important for SAPT in psi4, default
symmetry c1  #important for SAPT in psi4, default
}

set PROPERTIES_ORIGIN ["COM"]
properties('MP2/aug-cc-pvtz', properties = ['dipole'])
--------------------------------------------------------------------------

    Molecular point group: c1
  Charge       = 0
  Multiplicity = 1
  Basis Set: AUG-CC-PVTZ
    Blend: AUG-CC-PVTZ
  Basis Set: (AUG-CC-PVTZ AUX)
    Blend: AUG-CC-PVTZ-JKFIT

    Orbital Energies [Eh]
    ---------------------

    Doubly Occupied:

       1A    -26.233504     2A    -20.619449     3A    -11.423796
       4A    -11.282562     5A    -11.252509     6A     -1.548188
       7A     -1.481972     8A     -1.109366     9A     -0.939051
      10A     -0.789711    11A     -0.724305    12A     -0.715029
      13A     -0.672979    14A     -0.639837    15A     -0.578977
      16A     -0.574970    17A     -0.564262    18A     -0.543927
      19A     -0.530804    20A     -0.492932

  @DF-RHF Final Energy:  -290.91357395611459

   => Energetics <=

    Nuclear Repulsion Energy =            175.6663749333364137
    One-Electron Energy =                -747.7236373228462298
    Two-Electron Energy =                 281.1436884333951980
    Total Energy =                       -290.9135739561145897
  Basis Set: (AUG-CC-PVTZ AUX)
    Blend: AUG-CC-PVTZ-RI
    Molecular point group: c1

    Geometry (in Angstrom), charge = 0, multiplicity = 1:

       Center              X                  Y                   Z               Mass
    ------------   -----------------  -----------------  -----------------  -----------------
         F            0.635283679963     1.242998568134     0.103122079635    18.998403162730
         O            1.464571679963    -0.790249431866    -0.301747920365    15.994914619570
         C           -0.830332320037    -0.559428431866     0.502390079635    12.000000000000
         C           -1.937436320037     0.072913568134    -0.345609920365    12.000000000000
         C            0.519898279963    -0.324825231866     0.054149779635    12.000000000000
         H           -0.947126320037    -0.261758431866     1.550132079635     1.007825032230
         H           -0.856281320037    -1.649573431866     0.452526079635     1.007825032230
         H           -1.826551320037    -0.201442431866    -1.397681920365     1.007825032230
         H           -2.914390320037    -0.277009431866    -0.005045920365     1.007825032230
         H           -1.910124320037     1.160468568134    -0.266421920365     1.007825032230

  Basis Set: AUG-CC-PVTZ
    Blend: AUG-CC-PVTZ
  Basis Set: (AUG-CC-PVTZ AUX)
    Blend: AUG-CC-PVTZ-JKFIT
	 Reference Energy          =    -290.9135739561145897 [Eh]
	 Singles Energy            =      -0.0000000000000000 [Eh]
	 Same-Spin Energy          =      -0.2629157306860834 [Eh]
	 Opposite-Spin Energy      =      -0.8299952630868241 [Eh]
	 Correlation Energy        =      -1.0929109937729076 [Eh]
	 Total Energy              =    -292.0064849498875219 [Eh]

	 ================> DF-SCS-MP2 Energies <==================
	-----------------------------------------------------------
	 SCS Same-Spin Scale       =       0.3333333333333333 [-]
	 SCS Opposite-Spin Scale   =       1.2000000000000000 [-]
	 SCS Same-Spin Energy      =      -0.0876385768953611 [Eh]
	 SCS Opposite-Spin Energy  =      -0.9959943157041889 [Eh]
	 SCS Correlation Energy    =      -1.0836328925995500 [Eh]
	 SCS Total Energy          =    -291.9972068487141428 [Eh]
	-----------------------------------------------------------

  Dipole Moment: [D]
     X:    -3.0049      Y:    -2.1332      Z:     0.6847     Total:     3.7482

*** Psi4 exiting successfully. Buy a developer a beer!
