                               Psi4 1.3.2 release

  ==> Input File <==

--------------------------------------------------------------------------
#psi4
#
memory 32 gb

molecule  {
0 1
  F        0.6098185     1.2449110     0.1458798
  O        1.5750600    -0.7893450    -0.3055120
  C       -0.7198440    -0.5585240     0.4986260
  C       -1.8269480     0.0738180    -0.3493740
  C        0.6450590    -0.1245570     0.0566130
  H       -0.8366380    -0.2608540     1.5463680
  H       -0.7457930    -1.6486690     0.4487620
  H       -1.7160630    -0.2005380    -1.4014460
  H       -2.8039020    -0.2761050    -0.0088100
  H       -1.7996360     1.1613730    -0.2701860
units angstrom
no_reorient  #important for SAPT in psi4, default
symmetry c1  #important for SAPT in psi4, default
}

set PROPERTIES_ORIGIN ["COM"]
properties('MP2/aug-cc-pvtz', properties = ['dipole'])
--------------------------------------------------------------------------

    Molecular point group: c1
  Charge       = 0
  Multiplicity = 1
  Basis Set: AUG-CC-PVTZ
    Blend: AUG-CC-PVTZ
  Basis Set: (AUG-CC-PVTZ AUX)
    Blend: AUG-CC-PVTZ-JKFIT

    Orbital Energies [Eh]
    ---------------------

    Doubly Occupied:

       1A    -26.329646     2A    -20.590509     3A    -11.429552
       4A    -11.264694     5A    -11.243948     6A     -1.647976
       7A     -1.426889     8A     -1.086518     9A     -0.926055
      10A     -0.832225    11A     -0.736123    12A     -0.723448
      13A     -0.707592    14A     -0.643623    15A     -0.607124
      16A     -0.581043    17A     -0.555857    18A     -0.527033
      19A     -0.520023    20A     -0.481112

  @DF-RHF Final Energy:  -290.93833335142432

   => Energetics <=

    Nuclear Repulsion Energy =            176.7612844378922716
    One-Electron Energy =                -749.6772548755006937
    Two-Electron Energy =                 281.9776370861840746
    Total Energy =                       -290.9383333514243191
  Basis Set: (AUG-CC-PVTZ AUX)
    Blend: AUG-CC-PVTZ-RI
    Molecular point group: c1

    Geometry (in Angstrom), charge = 0, multiplicity = 1:

       Center              X                  Y                   Z               Mass
    ------------   -----------------  -----------------  -----------------  -----------------
         F            0.530985490660     1.212289633928     0.137036531046    18.998403162730
         O            1.496226990660    -0.821966366072    -0.314355268954    15.994914619570
         C           -0.798677009340    -0.591145366072     0.489782731046    12.000000000000
         C           -1.905781009340     0.041196633928    -0.358217268954    12.000000000000
         C            0.566225990660    -0.157178366072     0.047769731046    12.000000000000
         H           -0.915471009340    -0.293475366072     1.537524731046     1.007825032230
         H           -0.824626009340    -1.681290366072     0.439918731046     1.007825032230
         H           -1.794896009340    -0.233159366072    -1.410289268954     1.007825032230
         H           -2.882735009340    -0.308726366072    -0.017653268954     1.007825032230
         H           -1.878469009340     1.128751633928    -0.279029268954     1.007825032230

  Basis Set: AUG-CC-PVTZ
    Blend: AUG-CC-PVTZ
  Basis Set: (AUG-CC-PVTZ AUX)
    Blend: AUG-CC-PVTZ-JKFIT
	 Reference Energy          =    -290.9383333514243191 [Eh]
	 Singles Energy            =      -0.0000000000000000 [Eh]
	 Same-Spin Energy          =      -0.2624224472110369 [Eh]
	 Opposite-Spin Energy      =      -0.8288651334729686 [Eh]
	 Correlation Energy        =      -1.0912875806840057 [Eh]
	 Total Energy              =    -292.0296209321083438 [Eh]

	 ================> DF-SCS-MP2 Energies <==================
	-----------------------------------------------------------
	 SCS Same-Spin Scale       =       0.3333333333333333 [-]
	 SCS Opposite-Spin Scale   =       1.2000000000000000 [-]
	 SCS Same-Spin Energy      =      -0.0874741490703456 [Eh]
	 SCS Opposite-Spin Energy  =      -0.9946381601675623 [Eh]
	 SCS Correlation Energy    =      -1.0821123092379079 [Eh]
	 SCS Total Energy          =    -292.0204456606622330 [Eh]
	-----------------------------------------------------------

  Dipole Moment: [D]
     X:    -2.6721      Y:    -0.3471      Z:     0.7490     Total:     2.7967

*** Psi4 exiting successfully. Buy a developer a beer!
