                               Psi4 1.3.2 release

  ==> Input File <==

--------------------------------------------------------------------------
#psi4
#
memory 32 gb

molecule  {
0 1
  F        0.7457720     1.2439030     0.0993580
  O        1.5750600    -0.7893450    -0.3055120
  C       -0.7198440    -0.5585240     0.4986260
  C       -1.8269480     0.0738180    -0.3493740
  C        0.7361201    -0.0956044     0.0271236
  H       -0.8366380    -0.2608540     1.5463680
  H       -0.7457930    -1.6486690     0.4487620
  H       -1.7160630    -0.2005380    -1.4014460
  H       -2.8039020    -0.2761050    -0.0088100
  H       -1.7996360     1.1613730    -0.2701860
units angstrom
no_reorient  #important for SAPT in psi4, default
symmetry c1  #important for SAPT in psi4, default
}

set PROPERTIES_ORIGIN ["COM"]
properties('MP2/aug-cc-pvtz', properties = ['dipole'])
--------------------------------------------------------------------------

    Molecular point group: c1
  Charge       = 0
  Multiplicity = 1
  Basis Set: AUG-CC-PVTZ
    Blend: AUG-CC-PVTZ
  Basis Set: (AUG-CC-PVTZ AUX)
    Blend: AUG-CC-PVTZ-JKFIT

    Orbital Energies [Eh]
    ---------------------

    Doubly Occupied:

       1A    -26.333927     2A    -20.587080     3A    -11.417890
       4A    -11.263720     5A    -11.238851     6A     -1.662118
       7A     -1.467844     8A     -1.064919     9A     -0.909024
      10A     -0.840902    11A     -0.742296    12A     -0.730489
      13A     -0.720343    14A     -0.640975    15A     -0.607277
      16A     -0.583566    17A     -0.564537    18A     -0.529255
      19A     -0.518546    20A     -0.464429

  @DF-RHF Final Energy:  -290.93815176624179

   => Energetics <=

    Nuclear Repulsion Energy =            176.4536316371346913
    One-Electron Energy =                -749.0075916566835303
    Two-Electron Energy =                 281.6158082533070797
    Total Energy =                       -290.9381517662417878
  Basis Set: (AUG-CC-PVTZ AUX)
    Blend: AUG-CC-PVTZ-RI
    Molecular point group: c1

    Geometry (in Angstrom), charge = 0, multiplicity = 1:

       Center              X                  Y                   Z               Mass
    ------------   -----------------  -----------------  -----------------  -----------------
         F            0.618596040439     1.206963992709     0.106793475544    18.998403162730
         O            1.447884040439    -0.826284007291    -0.298076524456    15.994914619570
         C           -0.847019959561    -0.595463007291     0.506061475544    12.000000000000
         C           -1.954123959561     0.036878992709    -0.341938524456    12.000000000000
         C            0.608944140439    -0.132543407291     0.034559075544    12.000000000000
         H           -0.963813959561    -0.297793007291     1.553803475544     1.007825032230
         H           -0.872968959561    -1.685608007291     0.456197475544     1.007825032230
         H           -1.843238959561    -0.237477007291    -1.394010524456     1.007825032230
         H           -2.931077959561    -0.313044007291    -0.001374524456     1.007825032230
         H           -1.926811959561     1.124433992709    -0.262750524456     1.007825032230

  Basis Set: AUG-CC-PVTZ
    Blend: AUG-CC-PVTZ
  Basis Set: (AUG-CC-PVTZ AUX)
    Blend: AUG-CC-PVTZ-JKFIT
	 Reference Energy          =    -290.9381517662417878 [Eh]
	 Singles Energy            =      -0.0000000000000000 [Eh]
	 Same-Spin Energy          =      -0.2597240960291833 [Eh]
	 Opposite-Spin Energy      =      -0.8235985869838949 [Eh]
	 Correlation Energy        =      -1.0833226830130782 [Eh]
	 Total Energy              =    -292.0214744492548675 [Eh]

	 ================> DF-SCS-MP2 Energies <==================
	-----------------------------------------------------------
	 SCS Same-Spin Scale       =       0.3333333333333333 [-]
	 SCS Opposite-Spin Scale   =       1.2000000000000000 [-]
	 SCS Same-Spin Energy      =      -0.0865746986763944 [Eh]
	 SCS Opposite-Spin Energy  =      -0.9883183043806738 [Eh]
	 SCS Correlation Energy    =      -1.0748930030570683 [Eh]
	 SCS Total Energy          =    -292.0130447692988582 [Eh]
	-----------------------------------------------------------

  Dipole Moment: [D]
     X:    -2.3161      Y:    -0.2354      Z:     0.6555     Total:     2.4186

*** Psi4 exiting successfully. Buy a developer a beer!
