                               Psi4 1.3.2 release

  ==> Input File <==

--------------------------------------------------------------------------
#psi4
#
memory 32 gb

molecule  {
0 1
  F        0.7457720     1.2439030     0.0993580
  O        1.6378244    -0.6816527    -0.3202700
  C       -0.7198440    -0.5585240     0.4986260
  C       -1.8269480     0.0738180    -0.3493740
  C        0.6450590    -0.1245570     0.0566130
  H       -0.8366380    -0.2608540     1.5463680
  H       -0.7457930    -1.6486690     0.4487620
  H       -1.7160630    -0.2005380    -1.4014460
  H       -2.8039020    -0.2761050    -0.0088100
  H       -1.7996360     1.1613730    -0.2701860
units angstrom
no_reorient  #important for SAPT in psi4, default
symmetry c1  #important for SAPT in psi4, default
}

set PROPERTIES_ORIGIN ["COM"]
properties('MP2/aug-cc-pvtz', properties = ['dipole'])
--------------------------------------------------------------------------

    Molecular point group: c1
  Charge       = 0
  Multiplicity = 1
  Basis Set: AUG-CC-PVTZ
    Blend: AUG-CC-PVTZ
  Basis Set: (AUG-CC-PVTZ AUX)
    Blend: AUG-CC-PVTZ-JKFIT

    Orbital Energies [Eh]
    ---------------------

    Doubly Occupied:

       1A    -26.315247     2A    -20.580513     3A    -11.424627
       4A    -11.276509     5A    -11.249772     6A     -1.637951
       7A     -1.415770     8A     -1.093818     9A     -0.928345
      10A     -0.828027    11A     -0.731156    12A     -0.714391
      13A     -0.700598    14A     -0.642982    15A     -0.612803
      16A     -0.579271    17A     -0.554987    18A     -0.533077
      19A     -0.517764    20A     -0.482871

  @DF-RHF Final Energy:  -290.94113896466069

   => Energetics <=

    Nuclear Repulsion Energy =            176.2073202056447201
    One-Electron Energy =                -748.6559621726028126
    Two-Electron Energy =                 281.5075030022974261
    Total Energy =                       -290.9411389646606949
  Basis Set: (AUG-CC-PVTZ AUX)
    Blend: AUG-CC-PVTZ-RI
    Molecular point group: c1

    Geometry (in Angstrom), charge = 0, multiplicity = 1:

       Center              X                  Y                   Z               Mass
    ------------   -----------------  -----------------  -----------------  -----------------
         F            0.619764252026     1.188878319141     0.105243875854    18.998403162730
         O            1.511816652026    -0.736677380859    -0.314384124146    15.994914619570
         C           -0.845851747974    -0.613548680859     0.504511875854    12.000000000000
         C           -1.952955747974     0.018793319141    -0.343488124146    12.000000000000
         C            0.519051252026    -0.179581680859     0.062498875854    12.000000000000
         H           -0.962645747974    -0.315878680859     1.552253875854     1.007825032230
         H           -0.871800747974    -1.703693680859     0.454647875854     1.007825032230
         H           -1.842070747974    -0.255562680859    -1.395560124146     1.007825032230
         H           -2.929909747974    -0.331129680859    -0.002924124146     1.007825032230
         H           -1.925643747974     1.106348319141    -0.264300124146     1.007825032230

  Basis Set: AUG-CC-PVTZ
    Blend: AUG-CC-PVTZ
  Basis Set: (AUG-CC-PVTZ AUX)
    Blend: AUG-CC-PVTZ-JKFIT
	 Reference Energy          =    -290.9411389646606949 [Eh]
	 Singles Energy            =      -0.0000000000000000 [Eh]
	 Same-Spin Energy          =      -0.2618284742862314 [Eh]
	 Opposite-Spin Energy      =      -0.8277616019957326 [Eh]
	 Correlation Energy        =      -1.0895900762819639 [Eh]
	 Total Energy              =    -292.0307290409426741 [Eh]

	 ================> DF-SCS-MP2 Energies <==================
	-----------------------------------------------------------
	 SCS Same-Spin Scale       =       0.3333333333333333 [-]
	 SCS Opposite-Spin Scale   =       1.2000000000000000 [-]
	 SCS Same-Spin Energy      =      -0.0872761580954105 [Eh]
	 SCS Opposite-Spin Energy  =      -0.9933139223948790 [Eh]
	 SCS Correlation Energy    =      -1.0805900804902895 [Eh]
	 SCS Total Energy          =    -292.0217290451510053 [Eh]
	-----------------------------------------------------------

  Dipole Moment: [D]
     X:    -3.1779      Y:    -0.6031      Z:     0.8669     Total:     3.3488

*** Psi4 exiting successfully. Buy a developer a beer!
