                               Psi4 1.3.2 release

  ==> Input File <==

--------------------------------------------------------------------------
#psi4
#
memory 32 gb

molecule  {
0 1
  F        0.7457720     1.2439030     0.0993580
  O        1.5750600    -0.7893450    -0.3055120
  C       -0.7198440    -0.5585240     0.4986260
  C       -1.8269480     0.0738180    -0.3493740
  C        0.6781089    -0.2766880     0.0371508
  H       -0.8366380    -0.2608540     1.5463680
  H       -0.7457930    -1.6486690     0.4487620
  H       -1.7160630    -0.2005380    -1.4014460
  H       -2.8039020    -0.2761050    -0.0088100
  H       -1.7996360     1.1613730    -0.2701860
units angstrom
no_reorient  #important for SAPT in psi4, default
symmetry c1  #important for SAPT in psi4, default
}

set PROPERTIES_ORIGIN ["COM"]
properties('MP2/aug-cc-pvtz', properties = ['dipole'])
--------------------------------------------------------------------------

    Molecular point group: c1
  Charge       = 0
  Multiplicity = 1
  Basis Set: AUG-CC-PVTZ
    Blend: AUG-CC-PVTZ
  Basis Set: (AUG-CC-PVTZ AUX)
    Blend: AUG-CC-PVTZ-JKFIT

    Orbital Energies [Eh]
    ---------------------

    Doubly Occupied:

       1A    -26.252167     2A    -20.613650     3A    -11.415441
       4A    -11.278007     5A    -11.247278     6A     -1.567809
       7A     -1.501621     8A     -1.090598     9A     -0.925422
      10A     -0.794429    11A     -0.731510    12A     -0.714755
      13A     -0.680571    14A     -0.642660    15A     -0.585206
      16A     -0.579700    17A     -0.576465    18A     -0.542141
      19A     -0.526599    20A     -0.489460

  @DF-RHF Final Energy:  -290.91964702908382

   => Energetics <=

    Nuclear Repulsion Energy =            176.0123236047835746
    One-Electron Energy =                -748.3529618880234011
    Two-Electron Energy =                 281.4209912541560357
    Total Energy =                       -290.9196470290838192
  Basis Set: (AUG-CC-PVTZ AUX)
    Blend: AUG-CC-PVTZ-RI
    Molecular point group: c1

    Geometry (in Angstrom), charge = 0, multiplicity = 1:

       Center              X                  Y                   Z               Mass
    ------------   -----------------  -----------------  -----------------  -----------------
         F            0.627751795181     1.235543939846     0.105210909006    18.998403162730
         O            1.457039795181    -0.797704060154    -0.299659090994    15.994914619570
         C           -0.837864204819    -0.566883060154     0.504478909006    12.000000000000
         C           -1.944968204819     0.065458939846    -0.343521090994    12.000000000000
         C            0.560088695181    -0.285047060154     0.043003709006    12.000000000000
         H           -0.954658204819    -0.269213060154     1.552220909006     1.007825032230
         H           -0.863813204819    -1.657028060154     0.454614909006     1.007825032230
         H           -1.834083204819    -0.208897060154    -1.395593090994     1.007825032230
         H           -2.921922204819    -0.284464060154    -0.002957090994     1.007825032230
         H           -1.917656204819     1.153013939846    -0.264333090994     1.007825032230

  Basis Set: AUG-CC-PVTZ
    Blend: AUG-CC-PVTZ
  Basis Set: (AUG-CC-PVTZ AUX)
    Blend: AUG-CC-PVTZ-JKFIT
	 Reference Energy          =    -290.9196470290838192 [Eh]
	 Singles Energy            =      -0.0000000000000000 [Eh]
	 Same-Spin Energy          =      -0.2610509037660260 [Eh]
	 Opposite-Spin Energy      =      -0.8265013444062341 [Eh]
	 Correlation Energy        =      -1.0875522481722601 [Eh]
	 Total Energy              =    -292.0071992772560634 [Eh]

	 ================> DF-SCS-MP2 Energies <==================
	-----------------------------------------------------------
	 SCS Same-Spin Scale       =       0.3333333333333333 [-]
	 SCS Opposite-Spin Scale   =       1.2000000000000000 [-]
	 SCS Same-Spin Energy      =      -0.0870169679220087 [Eh]
	 SCS Opposite-Spin Energy  =      -0.9918016132874810 [Eh]
	 SCS Correlation Energy    =      -1.0788185812094897 [Eh]
	 SCS Total Energy          =    -291.9984656102932945 [Eh]
	-----------------------------------------------------------

  Dipole Moment: [D]
     X:    -2.6851      Y:    -1.7809      Z:     0.6263     Total:     3.2824

*** Psi4 exiting successfully. Buy a developer a beer!
