                               Psi4 1.3.2 release

  ==> Input File <==

--------------------------------------------------------------------------
#psi4
#
memory 32 gb

molecule  {
0 1
  F        0.7457720     1.2439030     0.0993580
  O        1.5750600    -0.7893450    -0.3055120
  C       -0.7198440    -0.5585240     0.4986260
  C       -1.8269480     0.0738180    -0.3493740
  C        0.6377228    -0.2242389     0.0534994
  H       -0.8366380    -0.2608540     1.5463680
  H       -0.7457930    -1.6486690     0.4487620
  H       -1.7160630    -0.2005380    -1.4014460
  H       -2.8039020    -0.2761050    -0.0088100
  H       -1.7996360     1.1613730    -0.2701860
units angstrom
no_reorient  #important for SAPT in psi4, default
symmetry c1  #important for SAPT in psi4, default
}

set PROPERTIES_ORIGIN ["COM"]
properties('MP2/aug-cc-pvtz', properties = ['dipole'])
--------------------------------------------------------------------------

    Molecular point group: c1
  Charge       = 0
  Multiplicity = 1
  Basis Set: AUG-CC-PVTZ
    Blend: AUG-CC-PVTZ
  Basis Set: (AUG-CC-PVTZ AUX)
    Blend: AUG-CC-PVTZ-JKFIT

    Orbital Energies [Eh]
    ---------------------

    Doubly Occupied:

       1A    -26.281185     2A    -20.600509     3A    -11.423864
       4A    -11.275408     5A    -11.249575     6A     -1.583554
       7A     -1.461661     8A     -1.098891     9A     -0.931383
      10A     -0.801694    11A     -0.720306    12A     -0.713145
      13A     -0.679558    14A     -0.644242    15A     -0.599618
      16A     -0.585584    17A     -0.565800    18A     -0.536005
      19A     -0.528585    20A     -0.492996

  @DF-RHF Final Energy:  -290.93502005874637

   => Energetics <=

    Nuclear Repulsion Energy =            175.8434361956871896
    One-Electron Energy =                -748.0097810436906229
    Two-Electron Energy =                 281.2313247892570303
    Total Energy =                       -290.9350200587463746
  Basis Set: (AUG-CC-PVTZ AUX)
    Blend: AUG-CC-PVTZ-RI
    Molecular point group: c1

    Geometry (in Angstrom), charge = 0, multiplicity = 1:

       Center              X                  Y                   Z               Mass
    ------------   -----------------  -----------------  -----------------  -----------------
         F            0.634125826860     1.227266036682     0.102630652574    18.998403162730
         O            1.463413826860    -0.805981963318    -0.302239347426    15.994914619570
         C           -0.831490173140    -0.575160963318     0.501898652574    12.000000000000
         C           -1.938594173140     0.057181036682    -0.346101347426    12.000000000000
         C            0.526076626860    -0.240875863318     0.056772052574    12.000000000000
         H           -0.948284173140    -0.277490963318     1.549640652574     1.007825032230
         H           -0.857439173140    -1.665305963318     0.452034652574     1.007825032230
         H           -1.827709173140    -0.217174963318    -1.398173347426     1.007825032230
         H           -2.915548173140    -0.292741963318    -0.005537347426     1.007825032230
         H           -1.911282173140     1.144736036682    -0.266913347426     1.007825032230

  Basis Set: AUG-CC-PVTZ
    Blend: AUG-CC-PVTZ
  Basis Set: (AUG-CC-PVTZ AUX)
    Blend: AUG-CC-PVTZ-JKFIT
	 Reference Energy          =    -290.9350200587463746 [Eh]
	 Singles Energy            =      -0.0000000000000000 [Eh]
	 Same-Spin Energy          =      -0.2623386262192238 [Eh]
	 Opposite-Spin Energy      =      -0.8289870410771891 [Eh]
	 Correlation Energy        =      -1.0913256672964129 [Eh]
	 Total Energy              =    -292.0263457260427913 [Eh]

	 ================> DF-SCS-MP2 Energies <==================
	-----------------------------------------------------------
	 SCS Same-Spin Scale       =       0.3333333333333333 [-]
	 SCS Opposite-Spin Scale   =       1.2000000000000000 [-]
	 SCS Same-Spin Energy      =      -0.0874462087397413 [Eh]
	 SCS Opposite-Spin Energy  =      -0.9947844492926269 [Eh]
	 SCS Correlation Energy    =      -1.0822306580323682 [Eh]
	 SCS Total Energy          =    -292.0172507167787330 [Eh]
	-----------------------------------------------------------

  Dipole Moment: [D]
     X:    -2.9749      Y:    -1.2356      Z:     0.7549     Total:     3.3085

*** Psi4 exiting successfully. Buy a developer a beer!
