                               Psi4 1.3.2 release

  ==> Input File <==

--------------------------------------------------------------------------
#psi4
#
memory 32 gb

molecule  {
0 1
  F        0.7457720     1.2439030     0.0993580
  O        1.5971499    -0.7542001    -0.3108811
  C       -0.7198440    -0.5585240     0.4986260
  C       -1.8269480     0.0738180    -0.3493740
  C        0.6450590    -0.1245570     0.0566130
  H       -0.8366380    -0.2608540     1.5463680
  H       -0.7457930    -1.6486690     0.4487620
  H       -1.7160630    -0.2005380    -1.4014460
  H       -2.8039020    -0.2761050    -0.0088100
  H       -1.7996360     1.1613730    -0.2701860
units angstrom
no_reorient  #important for SAPT in psi4, default
symmetry c1  #important for SAPT in psi4, default
}

set PROPERTIES_ORIGIN ["COM"]
properties('MP2/aug-cc-pvtz', properties = ['dipole'])
--------------------------------------------------------------------------

    Molecular point group: c1
  Charge       = 0
  Multiplicity = 1
  Basis Set: AUG-CC-PVTZ
    Blend: AUG-CC-PVTZ
  Basis Set: (AUG-CC-PVTZ AUX)
    Blend: AUG-CC-PVTZ-JKFIT

    Orbital Energies [Eh]
    ---------------------

    Doubly Occupied:

       1A    -26.322505     2A    -20.582620     3A    -11.425795
       4A    -11.272562     5A    -11.247979     6A     -1.641877
       7A     -1.419311     8A     -1.091037     9A     -0.926875
      10A     -0.830733    11A     -0.732407    12A     -0.717549
      13A     -0.703683    14A     -0.642499    15A     -0.613588
      16A     -0.580057    17A     -0.554987    18A     -0.531728
      19A     -0.518214    20A     -0.482118

  @DF-RHF Final Energy:  -290.94321335770144

   => Energetics <=

    Nuclear Repulsion Energy =            176.0975034884812374
    One-Electron Energy =                -748.4051859805102822
    Two-Electron Energy =                 281.3644691343275781
    Total Energy =                       -290.9432133577014383
  Basis Set: (AUG-CC-PVTZ AUX)
    Blend: AUG-CC-PVTZ-RI
    Molecular point group: c1

    Geometry (in Angstrom), charge = 0, multiplicity = 1:

       Center              X                  Y                   Z               Mass
    ------------   -----------------  -----------------  -----------------  -----------------
         F            0.628320930327     1.204140086670     0.103268736715    18.998403162730
         O            1.479698830327    -0.793963013330    -0.306970363285    15.994914619570
         C           -0.837295069673    -0.598286913330     0.502536736715    12.000000000000
         C           -1.944399069673     0.034055086670    -0.345463263285    12.000000000000
         C            0.527607930327    -0.164319913330     0.060523736715    12.000000000000
         H           -0.954089069673    -0.300616913330     1.550278736715     1.007825032230
         H           -0.863244069673    -1.688431913330     0.452672736715     1.007825032230
         H           -1.833514069673    -0.240300913330    -1.397535263285     1.007825032230
         H           -2.921353069673    -0.315867913330    -0.004899263285     1.007825032230
         H           -1.917087069673     1.121610086670    -0.266275263285     1.007825032230

  Basis Set: AUG-CC-PVTZ
    Blend: AUG-CC-PVTZ
  Basis Set: (AUG-CC-PVTZ AUX)
    Blend: AUG-CC-PVTZ-JKFIT
	 Reference Energy          =    -290.9432133577014383 [Eh]
	 Singles Energy            =      -0.0000000000000000 [Eh]
	 Same-Spin Energy          =      -0.2618431236248090 [Eh]
	 Opposite-Spin Energy      =      -0.8278266414590089 [Eh]
	 Correlation Energy        =      -1.0896697650838179 [Eh]
	 Total Energy              =    -292.0328831227852788 [Eh]

	 ================> DF-SCS-MP2 Energies <==================
	-----------------------------------------------------------
	 SCS Same-Spin Scale       =       0.3333333333333333 [-]
	 SCS Opposite-Spin Scale   =       1.2000000000000000 [-]
	 SCS Same-Spin Energy      =      -0.0872810412082697 [Eh]
	 SCS Opposite-Spin Energy  =      -0.9933919697508106 [Eh]
	 SCS Correlation Energy    =      -1.0806730109590803 [Eh]
	 SCS Total Energy          =    -292.0238863686604986 [Eh]
	-----------------------------------------------------------

  Dipole Moment: [D]
     X:    -3.0306      Y:    -0.4579      Z:     0.8383     Total:     3.1776

*** Psi4 exiting successfully. Buy a developer a beer!
