                               Psi4 1.3.2 release

  ==> Input File <==

--------------------------------------------------------------------------
#psi4
#
memory 32 gb

molecule  {
0 1
  F        0.7457720     1.2439030     0.0993580
  O        1.5750600    -0.7893450    -0.3055120
  C       -0.7198440    -0.5585240     0.4986260
  C       -1.8083516     0.0865411    -0.3637440
  C        0.6450590    -0.1245570     0.0566130
  H       -0.8366380    -0.2608540     1.5463680
  H       -0.7457930    -1.6486690     0.4487620
  H       -1.7160630    -0.2005380    -1.4014460
  H       -2.8039020    -0.2761050    -0.0088100
  H       -1.7996360     1.1613730    -0.2701860
units angstrom
no_reorient  #important for SAPT in psi4, default
symmetry c1  #important for SAPT in psi4, default
}

set PROPERTIES_ORIGIN ["COM"]
properties('MP2/aug-cc-pvtz', properties = ['dipole'])
--------------------------------------------------------------------------

    Molecular point group: c1
  Charge       = 0
  Multiplicity = 1
  Basis Set: AUG-CC-PVTZ
    Blend: AUG-CC-PVTZ
  Basis Set: (AUG-CC-PVTZ AUX)
    Blend: AUG-CC-PVTZ-JKFIT

    Orbital Energies [Eh]
    ---------------------

    Doubly Occupied:

       1A    -26.325849     2A    -20.583117     3A    -11.425789
       4A    -11.270735     5A    -11.247183     6A     -1.643777
       7A     -1.420636     8A     -1.089990     9A     -0.925633
      10A     -0.832183    11A     -0.733013    12A     -0.719035
      13A     -0.705034    14A     -0.644342    15A     -0.612799
      16A     -0.577292    17A     -0.553848    18A     -0.534763
      19A     -0.519188    20A     -0.479362

  @DF-RHF Final Energy:  -290.94248574087129

   => Energetics <=

    Nuclear Repulsion Energy =            176.2038279347628702
    One-Electron Energy =                -748.6054889837714654
    Two-Electron Energy =                 281.4591753081372758
    Total Energy =                       -290.9424857408712910
  Basis Set: (AUG-CC-PVTZ AUX)
    Blend: AUG-CC-PVTZ-RI
    Molecular point group: c1

    Geometry (in Angstrom), charge = 0, multiplicity = 1:

       Center              X                  Y                   Z               Mass
    ------------   -----------------  -----------------  -----------------  -----------------
         F            0.630032952977     1.209525451903     0.104407220506    18.998403162730
         O            1.459320952977    -0.823722548097    -0.300462779494    15.994914619570
         C           -0.835583047023    -0.592901548097     0.503675220506    12.000000000000
         C           -1.924090647023     0.052163551903    -0.358694779494    12.000000000000
         C            0.529319952977    -0.158934548097     0.061662220506    12.000000000000
         H           -0.952377047023    -0.295231548097     1.551417220506     1.007825032230
         H           -0.861532047023    -1.683046548097     0.453811220506     1.007825032230
         H           -1.831802047023    -0.234915548097    -1.396396779494     1.007825032230
         H           -2.919641047023    -0.310482548097    -0.003760779494     1.007825032230
         H           -1.915375047023     1.126995451903    -0.265136779494     1.007825032230

  Basis Set: AUG-CC-PVTZ
    Blend: AUG-CC-PVTZ
  Basis Set: (AUG-CC-PVTZ AUX)
    Blend: AUG-CC-PVTZ-JKFIT
	 Reference Energy          =    -290.9424857408712910 [Eh]
	 Singles Energy            =      -0.0000000000000000 [Eh]
	 Same-Spin Energy          =      -0.2619052368712410 [Eh]
	 Opposite-Spin Energy      =      -0.8279514155322254 [Eh]
	 Correlation Energy        =      -1.0898566524034663 [Eh]
	 Total Energy              =    -292.0323423932747460 [Eh]

	 ================> DF-SCS-MP2 Energies <==================
	-----------------------------------------------------------
	 SCS Same-Spin Scale       =       0.3333333333333333 [-]
	 SCS Opposite-Spin Scale   =       1.2000000000000000 [-]
	 SCS Same-Spin Energy      =      -0.0873017456237470 [Eh]
	 SCS Opposite-Spin Energy  =      -0.9935416986386705 [Eh]
	 SCS Correlation Energy    =      -1.0808434442624175 [Eh]
	 SCS Total Energy          =    -292.0233291851337185 [Eh]
	-----------------------------------------------------------

  Dipole Moment: [D]
     X:    -2.9520      Y:    -0.3853      Z:     0.8206     Total:     3.0880

*** Psi4 exiting successfully. Buy a developer a beer!
