                               Psi4 1.3.2 release

  ==> Input File <==

--------------------------------------------------------------------------
#psi4
#
memory 32 gb

molecule  {
0 1
  F        0.7457720     1.2439030     0.0993580
  O        1.5750600    -0.7893450    -0.3055120
  C       -0.7198440    -0.5585240     0.4986260
  C       -1.8269480     0.0738180    -0.3493740
  C        0.8001680    -0.2354328    -0.0037836
  H       -0.8366380    -0.2608540     1.5463680
  H       -0.7457930    -1.6486690     0.4487620
  H       -1.7160630    -0.2005380    -1.4014460
  H       -2.8039020    -0.2761050    -0.0088100
  H       -1.7996360     1.1613730    -0.2701860
units angstrom
no_reorient  #important for SAPT in psi4, default
symmetry c1  #important for SAPT in psi4, default
}

set PROPERTIES_ORIGIN ["COM"]
properties('MP2/aug-cc-pvtz', properties = ['dipole'])
--------------------------------------------------------------------------

    Molecular point group: c1
  Charge       = 0
  Multiplicity = 1
  Basis Set: AUG-CC-PVTZ
    Blend: AUG-CC-PVTZ
  Basis Set: (AUG-CC-PVTZ AUX)
    Blend: AUG-CC-PVTZ-JKFIT

    Orbital Energies [Eh]
    ---------------------

    Doubly Occupied:

       1A    -26.259930     2A    -20.615921     3A    -11.396308
       4A    -11.268835     5A    -11.236381     6A     -1.619635
       7A     -1.541205     8A     -1.057971     9A     -0.896398
      10A     -0.804981    11A     -0.761099    12A     -0.727728
      13A     -0.713718    14A     -0.640475    15A     -0.600375
      16A     -0.590488    17A     -0.575143    18A     -0.534671
      19A     -0.515699    20A     -0.459275

  @DF-RHF Final Energy:  -290.85787642512054

   => Energetics <=

    Nuclear Repulsion Energy =            176.9862416919441159
    One-Electron Energy =                -750.0557653844498418
    Two-Electron Energy =                 282.2116472673852172
    Total Energy =                       -290.8578764251205371
  Basis Set: (AUG-CC-PVTZ AUX)
    Blend: AUG-CC-PVTZ-RI
    Molecular point group: c1

    Geometry (in Angstrom), charge = 0, multiplicity = 1:

       Center              X                  Y                   Z               Mass
    ------------   -----------------  -----------------  -----------------  -----------------
         F            0.608487529253     1.229032740405     0.111671477429    18.998403162730
         O            1.437775529253    -0.804215259595    -0.293198522571    15.994914619570
         C           -0.857128470747    -0.573394259595     0.510939477429    12.000000000000
         C           -1.964232470747     0.058947740405    -0.337060522571    12.000000000000
         C            0.662883529253    -0.250303059595     0.008529877429    12.000000000000
         H           -0.973922470747    -0.275724259595     1.558681477429     1.007825032230
         H           -0.883077470747    -1.663539259595     0.461075477429     1.007825032230
         H           -1.853347470747    -0.215408259595    -1.389132522571     1.007825032230
         H           -2.941186470747    -0.290975259595     0.003503477429     1.007825032230
         H           -1.936920470747     1.146502740405    -0.257872522571     1.007825032230

  Basis Set: AUG-CC-PVTZ
    Blend: AUG-CC-PVTZ
  Basis Set: (AUG-CC-PVTZ AUX)
    Blend: AUG-CC-PVTZ-JKFIT
	 Reference Energy          =    -290.8578764251205371 [Eh]
	 Singles Energy            =      -0.0000000000000000 [Eh]
	 Same-Spin Energy          =      -0.2579555132149530 [Eh]
	 Opposite-Spin Energy      =      -0.8204965983013083 [Eh]
	 Correlation Energy        =      -1.0784521115162613 [Eh]
	 Total Energy              =    -291.9363285366367791 [Eh]

	 ================> DF-SCS-MP2 Energies <==================
	-----------------------------------------------------------
	 SCS Same-Spin Scale       =       0.3333333333333333 [-]
	 SCS Opposite-Spin Scale   =       1.2000000000000000 [-]
	 SCS Same-Spin Energy      =      -0.0859851710716510 [Eh]
	 SCS Opposite-Spin Energy  =      -0.9845959179615699 [Eh]
	 SCS Correlation Energy    =      -1.0705810890332208 [Eh]
	 SCS Total Energy          =    -291.9284575141537630 [Eh]
	-----------------------------------------------------------

  Dipole Moment: [D]
     X:    -1.8028      Y:    -1.6305      Z:     0.3847     Total:     2.4610

*** Psi4 exiting successfully. Buy a developer a beer!
