                               Psi4 1.3.2 release

  ==> Input File <==

--------------------------------------------------------------------------
#psi4
#
memory 32 gb

molecule  {
0 1
  F        0.7457720     1.2439030     0.0993580
  O        1.6180799    -0.7182881    -0.3158024
  C       -0.7198440    -0.5585240     0.4986260
  C       -1.8269480     0.0738180    -0.3493740
  C        0.6450590    -0.1245570     0.0566130
  H       -0.8366380    -0.2608540     1.5463680
  H       -0.7457930    -1.6486690     0.4487620
  H       -1.7160630    -0.2005380    -1.4014460
  H       -2.8039020    -0.2761050    -0.0088100
  H       -1.7996360     1.1613730    -0.2701860
units angstrom
no_reorient  #important for SAPT in psi4, default
symmetry c1  #important for SAPT in psi4, default
}

set PROPERTIES_ORIGIN ["COM"]
properties('MP2/aug-cc-pvtz', properties = ['dipole'])
--------------------------------------------------------------------------

    Molecular point group: c1
  Charge       = 0
  Multiplicity = 1
  Basis Set: AUG-CC-PVTZ
    Blend: AUG-CC-PVTZ
  Basis Set: (AUG-CC-PVTZ AUX)
    Blend: AUG-CC-PVTZ-JKFIT

    Orbital Energies [Eh]
    ---------------------

    Doubly Occupied:

       1A    -26.318927     2A    -20.581598     3A    -11.425205
       4A    -11.274556     5A    -11.248893     6A     -1.639899
       7A     -1.417573     8A     -1.092451     9A     -0.927618
      10A     -0.829395    11A     -0.731750    12A     -0.715983
      13A     -0.702163    14A     -0.642751    15A     -0.613228
      16A     -0.579658    17A     -0.554990    18A     -0.532413
      19A     -0.518070    20A     -0.482673

  @DF-RHF Final Energy:  -290.94251763138755

   => Energetics <=

    Nuclear Repulsion Energy =            176.1437144494512665
    One-Electron Energy =                -748.5128700575917264
    Two-Electron Energy =                 281.4266379767528861
    Total Energy =                       -290.9425176313875454
  Basis Set: (AUG-CC-PVTZ AUX)
    Blend: AUG-CC-PVTZ-RI
    Molecular point group: c1

    Geometry (in Angstrom), charge = 0, multiplicity = 1:

       Center              X                  Y                   Z               Mass
    ------------   -----------------  -----------------  -----------------  -----------------
         F            0.623917894596     1.196585293589     0.104304028628    18.998403162730
         O            1.496225794596    -0.765605806411    -0.310856371372    15.994914619570
         C           -0.841698105404    -0.605841706411     0.503572028628    12.000000000000
         C           -1.948802105404     0.026500293589    -0.344427971372    12.000000000000
         C            0.523204894596    -0.171874706411     0.061559028628    12.000000000000
         H           -0.958492105404    -0.308171706411     1.551314028628     1.007825032230
         H           -0.867647105404    -1.695986706411     0.453708028628     1.007825032230
         H           -1.837917105404    -0.247855706411    -1.396499971372     1.007825032230
         H           -2.925756105404    -0.323422706411    -0.003863971372     1.007825032230
         H           -1.921490105404     1.114055293589    -0.265239971372     1.007825032230

  Basis Set: AUG-CC-PVTZ
    Blend: AUG-CC-PVTZ
  Basis Set: (AUG-CC-PVTZ AUX)
    Blend: AUG-CC-PVTZ-JKFIT
	 Reference Energy          =    -290.9425176313875454 [Eh]
	 Singles Energy            =      -0.0000000000000000 [Eh]
	 Same-Spin Energy          =      -0.2618256712134978 [Eh]
	 Opposite-Spin Energy      =      -0.8277723670001567 [Eh]
	 Correlation Energy        =      -1.0895980382136545 [Eh]
	 Total Energy              =    -292.0321156696011826 [Eh]

	 ================> DF-SCS-MP2 Energies <==================
	-----------------------------------------------------------
	 SCS Same-Spin Scale       =       0.3333333333333333 [-]
	 SCS Opposite-Spin Scale   =       1.2000000000000000 [-]
	 SCS Same-Spin Energy      =      -0.0872752237378326 [Eh]
	 SCS Opposite-Spin Energy  =      -0.9933268404001879 [Eh]
	 SCS Correlation Energy    =      -1.0806020641380205 [Eh]
	 SCS Total Energy          =    -292.0231196955255655 [Eh]
	-----------------------------------------------------------

  Dipole Moment: [D]
     X:    -3.1058      Y:    -0.5297      Z:     0.8531     Total:     3.2641

*** Psi4 exiting successfully. Buy a developer a beer!
