                               Psi4 1.4a3.dev225

  ==> Input File <==

--------------------------------------------------------------------------
#psi4
#
memory 32 gb

molecule  {
0 1
  F        0.7457770     1.2438890     0.0993500
  O        1.5749420    -0.7893990    -0.3055700
  C       -0.7198600    -0.5584570     0.4987450
  C       -1.8268110     0.0738080    -0.3494590
  C        0.6062667    -0.0968325     0.0717896
  H       -0.8367390    -0.2606700     1.5464390
  H       -0.7458570    -1.6486110     0.4490110
  H       -1.7161610    -0.2011590    -1.4014030
  H       -2.8038590    -0.2755580    -0.0085930
  H       -1.7991210     1.1614070    -0.2708750
units angstrom
no_reorient  #important for SAPT in psi4, default
symmetry c1  #important for SAPT in psi4, default
}

set PROPERTIES_ORIGIN ["COM"]
properties('MP2/aug-cc-pvtz', properties = ['dipole'])
--------------------------------------------------------------------------

    Molecular point group: c1
  Charge       = 0
  Multiplicity = 1
  Basis Set: AUG-CC-PVTZ
    Blend: AUG-CC-PVTZ
  Basis Set: (AUG-CC-PVTZ AUX)
    Blend: AUG-CC-PVTZ-JKFIT

    Orbital Energies [Eh]
    ---------------------

    Doubly Occupied:

       1A    -26.339582     2A    -20.575386     3A    -11.431940
       4A    -11.271318     5A    -11.249973     6A     -1.662357
       7A     -1.383270     8A     -1.099004     9A     -0.933391
      10A     -0.842934    11A     -0.742602    12A     -0.726567
      13A     -0.703005    14A     -0.639976    15A     -0.618475
      16A     -0.576019    17A     -0.552737    18A     -0.534948
      19A     -0.500265    20A     -0.477014

  @DF-RHF Final Energy:  -290.93440573456365

   => Energetics <=

    Nuclear Repulsion Energy =            176.0589203995904484
    One-Electron Energy =                -748.2651208180868707
    Two-Electron Energy =                 281.2717946839327965
    Total Energy =                       -290.9344057345636543
  Basis Set: (AUG-CC-PVTZ AUX)
    Blend: AUG-CC-PVTZ-RI
    Molecular point group: c1

    Geometry (in Angstrom), charge = 0, multiplicity = 1:

       Center              X                  Y                   Z               Mass
    ------------   -----------------  -----------------  -----------------  -----------------
         F            0.639096027042     1.207147004955     0.099746237634    18.998403162730
         O            1.468261027042    -0.826140995045    -0.305173762366    15.994914619570
         C           -0.826540972958    -0.595198995045     0.499141237634    12.000000000000
         C           -1.933491972958     0.037066004955    -0.349062762366    12.000000000000
         C            0.499585727042    -0.133574495045     0.072185837634    12.000000000000
         H           -0.943419972958    -0.297411995045     1.546835237634     1.007825032230
         H           -0.852537972958    -1.685352995045     0.449407237634     1.007825032230
         H           -1.822841972958    -0.237900995045    -1.401006762366     1.007825032230
         H           -2.910539972958    -0.312299995045    -0.008196762366     1.007825032230
         H           -1.905801972958     1.124665004955    -0.270478762366     1.007825032230

  Basis Set: AUG-CC-PVTZ
    Blend: AUG-CC-PVTZ
  Basis Set: (AUG-CC-PVTZ AUX)
    Blend: AUG-CC-PVTZ-JKFIT
	 Reference Energy          =    -290.9344057345636543 [Eh]
	 Singles Energy            =      -0.0000000000000000 [Eh]
	 Same-Spin Energy          =      -0.2631024497744401 [Eh]
	 Opposite-Spin Energy      =      -0.8302530105196515 [Eh]
	 Correlation Energy        =      -1.0933554602940916 [Eh]
	 Total Energy              =    -292.0277611948577601 [Eh]

	 ================> DF-SCS-MP2 Energies <==================
	-----------------------------------------------------------
	 SCS Same-Spin Scale       =       0.3333333333333333 [-]
	 SCS Opposite-Spin Scale   =       1.2000000000000000 [-]
	 SCS Same-Spin Energy      =      -0.0877008165914800 [Eh]
	 SCS Opposite-Spin Energy  =      -0.9963036126235818 [Eh]
	 SCS Correlation Energy    =      -1.0840044292150619 [Eh]
	 SCS Total Energy          =    -292.0184101637786966 [Eh]
	-----------------------------------------------------------

  Dipole Moment: [D]
     X:    -3.2131      Y:    -0.1338      Z:     0.9180     Total:     3.3443

*** Psi4 exiting successfully. Buy a developer a beer!
