                               Psi4 1.4a3.dev225

  ==> Input File <==

--------------------------------------------------------------------------
#psi4
#
memory 32 gb

molecule  {
0 1
  F        0.7457770     1.2438890     0.0993500
  O        1.5749420    -0.7893990    -0.3055700
  C       -0.7198600    -0.5584570     0.4987450
  C       -1.8268110     0.0738080    -0.3494590
  C        0.6838133    -0.1522755     0.0415804
  H       -0.8367390    -0.2606700     1.5464390
  H       -0.7458570    -1.6486110     0.4490110
  H       -1.7161610    -0.2011590    -1.4014030
  H       -2.8038590    -0.2755580    -0.0085930
  H       -1.7991210     1.1614070    -0.2708750
units angstrom
no_reorient  #important for SAPT in psi4, default
symmetry c1  #important for SAPT in psi4, default
}

set PROPERTIES_ORIGIN ["COM"]
properties('MP2/aug-cc-pvtz', properties = ['dipole'])
--------------------------------------------------------------------------

    Molecular point group: c1
  Charge       = 0
  Multiplicity = 1
  Basis Set: AUG-CC-PVTZ
    Blend: AUG-CC-PVTZ
  Basis Set: (AUG-CC-PVTZ AUX)
    Blend: AUG-CC-PVTZ-JKFIT

    Orbital Energies [Eh]
    ---------------------

    Doubly Occupied:

       1A    -26.311267     2A    -20.591612     3A    -11.420039
       4A    -11.269815     5A    -11.244188     6A     -1.625476
       7A     -1.460958     8A     -1.080685     9A     -0.918575
      10A     -0.821793    11A     -0.725509    12A     -0.722897
      13A     -0.701213    14A     -0.644587    15A     -0.607274
      16A     -0.584933    17A     -0.563885    18A     -0.532486
      19A     -0.523907    20A     -0.481494

  @DF-RHF Final Energy:  -290.94311044882090

   => Energetics <=

    Nuclear Repulsion Energy =            176.1560574602880251
    One-Electron Energy =                -748.5331473838660941
    Two-Electron Energy =                 281.4339794747571659
    Total Energy =                       -290.9431104488209030
  Basis Set: (AUG-CC-PVTZ AUX)
    Blend: AUG-CC-PVTZ-RI
    Molecular point group: c1

    Geometry (in Angstrom), charge = 0, multiplicity = 1:

       Center              X                  Y                   Z               Mass
    ------------   -----------------  -----------------  -----------------  -----------------
         F            0.626857051626     1.215897427462     0.104514076019    18.998403162730
         O            1.456022051626    -0.817390572538    -0.300405923981    15.994914619570
         C           -0.838779948374    -0.586448572538     0.503909076019    12.000000000000
         C           -1.945730948374     0.045816427462    -0.344294923981    12.000000000000
         C            0.564893351626    -0.180267072538     0.046744476019    12.000000000000
         H           -0.955658948374    -0.288661572538     1.551603076019     1.007825032230
         H           -0.864776948374    -1.676602572538     0.454175076019     1.007825032230
         H           -1.835080948374    -0.229150572538    -1.396238923981     1.007825032230
         H           -2.922778948374    -0.303549572538    -0.003428923981     1.007825032230
         H           -1.918040948374     1.133415427462    -0.265710923981     1.007825032230

  Basis Set: AUG-CC-PVTZ
    Blend: AUG-CC-PVTZ
  Basis Set: (AUG-CC-PVTZ AUX)
    Blend: AUG-CC-PVTZ-JKFIT
	 Reference Energy          =    -290.9431104488209030 [Eh]
	 Singles Energy            =      -0.0000000000000000 [Eh]
	 Same-Spin Energy          =      -0.2607917074115215 [Eh]
	 Opposite-Spin Energy      =      -0.8258472831015582 [Eh]
	 Correlation Energy        =      -1.0866389905130798 [Eh]
	 Total Energy              =    -292.0297494393339548 [Eh]

	 ================> DF-SCS-MP2 Energies <==================
	-----------------------------------------------------------
	 SCS Same-Spin Scale       =       0.3333333333333333 [-]
	 SCS Opposite-Spin Scale   =       1.2000000000000000 [-]
	 SCS Same-Spin Energy      =      -0.0869305691371738 [Eh]
	 SCS Opposite-Spin Energy  =      -0.9910167397218698 [Eh]
	 SCS Correlation Energy    =      -1.0779473088590437 [Eh]
	 SCS Total Energy          =    -292.0210577576799551 [Eh]
	-----------------------------------------------------------

  Dipole Moment: [D]
     X:    -2.6758      Y:    -0.6657      Z:     0.7204     Total:     2.8500

*** Psi4 exiting successfully. Buy a developer a beer!
