                               Psi4 1.3.2 release

  ==> Input File <==

--------------------------------------------------------------------------
#psi4
#
memory 32 gb

molecule  {
0 1
  F        0.8806221     1.2279019     0.0523679
  O        1.5750600    -0.7893450    -0.3055120
  C       -0.7198440    -0.5585240     0.4986260
  C       -1.8269480     0.0738180    -0.3493740
  C        0.6450590    -0.1245570     0.0566130
  H       -0.8366380    -0.2608540     1.5463680
  H       -0.7457930    -1.6486690     0.4487620
  H       -1.7160630    -0.2005380    -1.4014460
  H       -2.8039020    -0.2761050    -0.0088100
  H       -1.7996360     1.1613730    -0.2701860
units angstrom
no_reorient  #important for SAPT in psi4, default
symmetry c1  #important for SAPT in psi4, default
}

set PROPERTIES_ORIGIN ["COM"]
properties('MP2/aug-cc-pvtz', properties = ['dipole'])
--------------------------------------------------------------------------

    Molecular point group: c1
  Charge       = 0
  Multiplicity = 1
  Basis Set: AUG-CC-PVTZ
    Blend: AUG-CC-PVTZ
  Basis Set: (AUG-CC-PVTZ AUX)
    Blend: AUG-CC-PVTZ-JKFIT

    Orbital Energies [Eh]
    ---------------------

    Doubly Occupied:

       1A    -26.321114     2A    -20.576351     3A    -11.423272
       4A    -11.276125     5A    -11.249810     6A     -1.640136
       7A     -1.414563     8A     -1.092479     9A     -0.926587
      10A     -0.830806    11A     -0.731580    12A     -0.714231
      13A     -0.701956    14A     -0.641698    15A     -0.618981
      16A     -0.578991    17A     -0.554522    18A     -0.534767
      19A     -0.514732    20A     -0.479429

  @DF-RHF Final Energy:  -290.94138176348912

   => Energetics <=

    Nuclear Repulsion Energy =            175.5933842732466417
    One-Electron Energy =                -747.4252740720166912
    Two-Electron Energy =                 280.8905080352809023
    Total Energy =                       -290.9413817634891188
  Basis Set: (AUG-CC-PVTZ AUX)
    Blend: AUG-CC-PVTZ-RI
    Molecular point group: c1

    Geometry (in Angstrom), charge = 0, multiplicity = 1:

       Center              X                  Y                   Z               Mass
    ------------   -----------------  -----------------  -----------------  -----------------
         F            0.734122765976     1.199530637262     0.066890666753    18.998403162730
         O            1.428560665976    -0.817716262738    -0.290989233247    15.994914619570
         C           -0.866343334024    -0.586895262738     0.513148766753    12.000000000000
         C           -1.973447334024     0.045446737262    -0.334851233247    12.000000000000
         C            0.498559665976    -0.152928262738     0.071135766753    12.000000000000
         H           -0.983137334024    -0.289225262738     1.560890766753     1.007825032230
         H           -0.892292334024    -1.677040262738     0.463284766753     1.007825032230
         H           -1.862562334024    -0.228909262738    -1.386923233247     1.007825032230
         H           -2.950401334024    -0.304476262738     0.005712766753     1.007825032230
         H           -1.946135334024     1.133001737262    -0.255663233247     1.007825032230

  Basis Set: AUG-CC-PVTZ
    Blend: AUG-CC-PVTZ
  Basis Set: (AUG-CC-PVTZ AUX)
    Blend: AUG-CC-PVTZ-JKFIT
	 Reference Energy          =    -290.9413817634891188 [Eh]
	 Singles Energy            =      -0.0000000000000000 [Eh]
	 Same-Spin Energy          =      -0.2615455474750912 [Eh]
	 Opposite-Spin Energy      =      -0.8274109778532726 [Eh]
	 Correlation Energy        =      -1.0889565253283637 [Eh]
	 Total Energy              =    -292.0303382888174610 [Eh]

	 ================> DF-SCS-MP2 Energies <==================
	-----------------------------------------------------------
	 SCS Same-Spin Scale       =       0.3333333333333333 [-]
	 SCS Opposite-Spin Scale   =       1.2000000000000000 [-]
	 SCS Same-Spin Energy      =      -0.0871818491583637 [Eh]
	 SCS Opposite-Spin Energy  =      -0.9928931734239270 [Eh]
	 SCS Correlation Energy    =      -1.0800750225822908 [Eh]
	 SCS Total Energy          =    -292.0214567860713828 [Eh]
	-----------------------------------------------------------

  Dipole Moment: [D]
     X:    -3.2208      Y:    -0.4025      Z:     0.8962     Total:     3.3673

*** Psi4 exiting successfully. Buy a developer a beer!
