                               Psi4 1.3.2 release

  ==> Input File <==

--------------------------------------------------------------------------
#psi4
#
memory 32 gb

molecule  {
0 1
  F        0.7457720     1.2439030     0.0993580
  O        1.5750600    -0.7893450    -0.3055120
  C       -0.7198440    -0.5585240     0.4986260
  C       -1.8269480     0.0738180    -0.3493740
  C        0.6380846    -0.0996197     0.0603341
  H       -0.8366380    -0.2608540     1.5463680
  H       -0.7457930    -1.6486690     0.4487620
  H       -1.7160630    -0.2005380    -1.4014460
  H       -2.8039020    -0.2761050    -0.0088100
  H       -1.7996360     1.1613730    -0.2701860
units angstrom
no_reorient  #important for SAPT in psi4, default
symmetry c1  #important for SAPT in psi4, default
}

set PROPERTIES_ORIGIN ["COM"]
properties('MP2/aug-cc-pvtz', properties = ['dipole'])
--------------------------------------------------------------------------

    Molecular point group: c1
  Charge       = 0
  Multiplicity = 1
  Basis Set: AUG-CC-PVTZ
    Blend: AUG-CC-PVTZ
  Basis Set: (AUG-CC-PVTZ AUX)
    Blend: AUG-CC-PVTZ-JKFIT

    Orbital Energies [Eh]
    ---------------------

    Doubly Occupied:

       1A    -26.337151     2A    -20.578726     3A    -11.428354
       4A    -11.270059     5A    -11.247219     6A     -1.660876
       7A     -1.404438     8A     -1.089916     9A     -0.927389
      10A     -0.841587    11A     -0.741338    12A     -0.725809
      13A     -0.705910    14A     -0.640402    15A     -0.615865
      16A     -0.577352    17A     -0.552356    18A     -0.531680
      19A     -0.510915    20A     -0.477465

  @DF-RHF Final Energy:  -290.94130199023198

   => Energetics <=

    Nuclear Repulsion Energy =            176.1195101293949676
    One-Electron Energy =                -748.3920093963173485
    Two-Electron Energy =                 281.3311972766904319
    Total Energy =                       -290.9413019902319775
  Basis Set: (AUG-CC-PVTZ AUX)
    Blend: AUG-CC-PVTZ-RI
    Molecular point group: c1

    Geometry (in Angstrom), charge = 0, multiplicity = 1:

       Center              X                  Y                   Z               Mass
    ------------   -----------------  -----------------  -----------------  -----------------
         F            0.634068724920     1.207597716921     0.101551949893    18.998403162730
         O            1.463356724920    -0.825650283079    -0.303318050107    15.994914619570
         C           -0.831547275080    -0.594829283079     0.500819949893    12.000000000000
         C           -1.938651275080     0.037512716921    -0.347180050107    12.000000000000
         C            0.526381324920    -0.135924983079     0.062528049893    12.000000000000
         H           -0.948341275080    -0.297159283079     1.548561949893     1.007825032230
         H           -0.857496275080    -1.684974283079     0.450955949893     1.007825032230
         H           -1.827766275080    -0.236843283079    -1.399252050107     1.007825032230
         H           -2.915605275080    -0.312410283079    -0.006616050107     1.007825032230
         H           -1.911339275080     1.125067716921    -0.267992050107     1.007825032230

  Basis Set: AUG-CC-PVTZ
    Blend: AUG-CC-PVTZ
  Basis Set: (AUG-CC-PVTZ AUX)
    Blend: AUG-CC-PVTZ-JKFIT
	 Reference Energy          =    -290.9413019902319775 [Eh]
	 Singles Energy            =      -0.0000000000000000 [Eh]
	 Same-Spin Energy          =      -0.2620876786325737 [Eh]
	 Opposite-Spin Energy      =      -0.8282614819504590 [Eh]
	 Correlation Energy        =      -1.0903491605830327 [Eh]
	 Total Energy              =    -292.0316511508150370 [Eh]

	 ================> DF-SCS-MP2 Energies <==================
	-----------------------------------------------------------
	 SCS Same-Spin Scale       =       0.3333333333333333 [-]
	 SCS Opposite-Spin Scale   =       1.2000000000000000 [-]
	 SCS Same-Spin Energy      =      -0.0873625595441912 [Eh]
	 SCS Opposite-Spin Energy  =      -0.9939137783405507 [Eh]
	 SCS Correlation Energy    =      -1.0812763378847419 [Eh]
	 SCS Total Energy          =    -292.0225783281167082 [Eh]
	-----------------------------------------------------------

  Dipole Moment: [D]
     X:    -3.0061      Y:    -0.1768      Z:     0.8558     Total:     3.1305

*** Psi4 exiting successfully. Buy a developer a beer!
