                               Psi4 1.3.2 release

  ==> Input File <==

--------------------------------------------------------------------------
#psi4
#
memory 32 gb

molecule  {
0 1
  F        0.7457720     1.2439030     0.0993580
  O        1.5518370    -0.8236800    -0.2997017
  C       -0.7198440    -0.5585240     0.4986260
  C       -1.8269480     0.0738180    -0.3493740
  C        0.6450590    -0.1245570     0.0566130
  H       -0.8366380    -0.2608540     1.5463680
  H       -0.7457930    -1.6486690     0.4487620
  H       -1.7160630    -0.2005380    -1.4014460
  H       -2.8039020    -0.2761050    -0.0088100
  H       -1.7996360     1.1613730    -0.2701860
units angstrom
no_reorient  #important for SAPT in psi4, default
symmetry c1  #important for SAPT in psi4, default
}

set PROPERTIES_ORIGIN ["COM"]
properties('MP2/aug-cc-pvtz', properties = ['dipole'])
--------------------------------------------------------------------------

    Molecular point group: c1
  Charge       = 0
  Multiplicity = 1
  Basis Set: AUG-CC-PVTZ
    Blend: AUG-CC-PVTZ
  Basis Set: (AUG-CC-PVTZ AUX)
    Blend: AUG-CC-PVTZ-JKFIT

    Orbital Energies [Eh]
    ---------------------

    Doubly Occupied:

       1A    -26.329364     2A    -20.584478     3A    -11.427009
       4A    -11.268457     5A    -11.246045     6A     -1.645876
       7A     -1.422631     8A     -1.088068     9A     -0.925344
      10A     -0.833308    11A     -0.733889    12A     -0.720604
      13A     -0.706567    14A     -0.641973    15A     -0.614063
      16A     -0.580879    17A     -0.554964    18A     -0.530281
      19A     -0.518042    20A     -0.479999

  @DF-RHF Final Energy:  -290.94261398571933

   => Energetics <=

    Nuclear Repulsion Energy =            176.0565893189228461
    One-Electron Energy =                -748.2947216438739133
    Two-Electron Energy =                 281.2955183392317053
    Total Energy =                       -290.9426139857193334
  Basis Set: (AUG-CC-PVTZ AUX)
    Blend: AUG-CC-PVTZ-RI
    Molecular point group: c1

    Geometry (in Angstrom), charge = 0, multiplicity = 1:

       Center              X                  Y                   Z               Mass
    ------------   -----------------  -----------------  -----------------  -----------------
         F            0.637853386981     1.218756545450     0.100916930807    18.998403162730
         O            1.443918386981    -0.848826454550    -0.298142769193    15.994914619570
         C           -0.827762613019    -0.583670454550     0.500184930807    12.000000000000
         C           -1.934866613019     0.048671545450    -0.347815069193    12.000000000000
         C            0.537140386981    -0.149703454550     0.058171930807    12.000000000000
         H           -0.944556613019    -0.286000454550     1.547926930807     1.007825032230
         H           -0.853711613019    -1.673815454550     0.450320930807     1.007825032230
         H           -1.823981613019    -0.225684454550    -1.399887069193     1.007825032230
         H           -2.911820613019    -0.301251454550    -0.007251069193     1.007825032230
         H           -1.907554613019     1.136226545450    -0.268627069193     1.007825032230

  Basis Set: AUG-CC-PVTZ
    Blend: AUG-CC-PVTZ
  Basis Set: (AUG-CC-PVTZ AUX)
    Blend: AUG-CC-PVTZ-JKFIT
	 Reference Energy          =    -290.9426139857193334 [Eh]
	 Singles Energy            =      -0.0000000000000000 [Eh]
	 Same-Spin Energy          =      -0.2619379410584926 [Eh]
	 Opposite-Spin Energy      =      -0.8280731036470107 [Eh]
	 Correlation Energy        =      -1.0900110447055034 [Eh]
	 Total Energy              =    -292.0326250304248106 [Eh]

	 ================> DF-SCS-MP2 Energies <==================
	-----------------------------------------------------------
	 SCS Same-Spin Scale       =       0.3333333333333333 [-]
	 SCS Opposite-Spin Scale   =       1.2000000000000000 [-]
	 SCS Same-Spin Energy      =      -0.0873126470194975 [Eh]
	 SCS Opposite-Spin Energy  =      -0.9936877243764128 [Eh]
	 SCS Correlation Energy    =      -1.0810003713959104 [Eh]
	 SCS Total Energy          =    -292.0236143571152638 [Eh]
	-----------------------------------------------------------

  Dipole Moment: [D]
     X:    -2.8712      Y:    -0.3198      Z:     0.8058     Total:     2.9992

*** Psi4 exiting successfully. Buy a developer a beer!
