                               Psi4 1.3.2 release

  ==> Input File <==

--------------------------------------------------------------------------
#psi4
#
memory 32 gb

molecule  {
0 1
  F        0.7457720     1.2439030     0.0993580
  O        1.5750600    -0.7893450    -0.3055120
  C       -0.7198440    -0.5585240     0.4986260
  C       -1.8269480     0.0738180    -0.3493740
  C        0.5539979    -0.1535096     0.0861024
  H       -0.8366380    -0.2608540     1.5463680
  H       -0.7457930    -1.6486690     0.4487620
  H       -1.7160630    -0.2005380    -1.4014460
  H       -2.8039020    -0.2761050    -0.0088100
  H       -1.7996360     1.1613730    -0.2701860
units angstrom
no_reorient  #important for SAPT in psi4, default
symmetry c1  #important for SAPT in psi4, default
}

set PROPERTIES_ORIGIN ["COM"]
properties('MP2/aug-cc-pvtz', properties = ['dipole'])
--------------------------------------------------------------------------

    Molecular point group: c1
  Charge       = 0
  Multiplicity = 1
  Basis Set: AUG-CC-PVTZ
    Blend: AUG-CC-PVTZ
  Basis Set: (AUG-CC-PVTZ AUX)
    Blend: AUG-CC-PVTZ-JKFIT

    Orbital Energies [Eh]
    ---------------------

    Doubly Occupied:

       1A    -26.317231     2A    -20.580278     3A    -11.435956
       4A    -11.274209     5A    -11.255889     6A     -1.623343
       7A     -1.376120     8A     -1.120802     9A     -0.945274
      10A     -0.821680    11A     -0.726713    12A     -0.713033
      13A     -0.691468    14A     -0.639265    15A     -0.620168
      16A     -0.581982    17A     -0.558673    18A     -0.539615
      19A     -0.496717    20A     -0.482774

  @DF-RHF Final Energy:  -290.91795952039189

   => Energetics <=

    Nuclear Repulsion Energy =            175.7790351212514395
    One-Electron Energy =                -747.7916053848580304
    Two-Electron Energy =                 281.0946107432146732
    Total Energy =                       -290.9179595203918893
  Basis Set: (AUG-CC-PVTZ AUX)
    Blend: AUG-CC-PVTZ-RI
    Molecular point group: c1

    Geometry (in Angstrom), charge = 0, multiplicity = 1:

       Center              X                  Y                   Z               Mass
    ------------   -----------------  -----------------  -----------------  -----------------
         F            0.647339907075     1.216103017750     0.097485007046    18.998403162730
         O            1.476627907075    -0.817144982250    -0.307384992954    15.994914619570
         C           -0.818276092925    -0.586323982250     0.496753007046    12.000000000000
         C           -1.925380092925     0.046018017750    -0.351246992954    12.000000000000
         C            0.455565807075    -0.181309582250     0.084229407046    12.000000000000
         H           -0.935070092925    -0.288653982250     1.544495007046     1.007825032230
         H           -0.844225092925    -1.676468982250     0.446889007046     1.007825032230
         H           -1.814495092925    -0.228337982250    -1.403318992954     1.007825032230
         H           -2.902334092925    -0.303904982250    -0.010682992954     1.007825032230
         H           -1.898068092925     1.133573017750    -0.272058992954     1.007825032230

  Basis Set: AUG-CC-PVTZ
    Blend: AUG-CC-PVTZ
  Basis Set: (AUG-CC-PVTZ AUX)
    Blend: AUG-CC-PVTZ-JKFIT
	 Reference Energy          =    -290.9179595203918893 [Eh]
	 Singles Energy            =      -0.0000000000000000 [Eh]
	 Same-Spin Energy          =      -0.2651924004850165 [Eh]
	 Opposite-Spin Energy      =      -0.8345258180273230 [Eh]
	 Correlation Energy        =      -1.0997182185123395 [Eh]
	 Total Energy              =    -292.0176777389042400 [Eh]

	 ================> DF-SCS-MP2 Energies <==================
	-----------------------------------------------------------
	 SCS Same-Spin Scale       =       0.3333333333333333 [-]
	 SCS Opposite-Spin Scale   =       1.2000000000000000 [-]
	 SCS Same-Spin Energy      =      -0.0883974668283388 [Eh]
	 SCS Opposite-Spin Energy  =      -1.0014309816327875 [Eh]
	 SCS Correlation Energy    =      -1.0898284484611263 [Eh]
	 SCS Total Energy          =    -292.0077879688529947 [Eh]
	-----------------------------------------------------------

  Dipole Moment: [D]
     X:    -3.5387      Y:    -0.5571      Z:     0.9702     Total:     3.7113

*** Psi4 exiting successfully. Buy a developer a beer!
