                               Psi4 1.4a3.dev225

  ==> Input File <==

--------------------------------------------------------------------------
#psi4
#
memory 32 gb

molecule  {
0 1
  F        0.7457770     1.2438890     0.0993500
  O        1.5749420    -0.7893990    -0.3055700
  C       -0.7198600    -0.5584570     0.4987450
  C       -1.8268110     0.0738080    -0.3494590
  C        0.6605493    -0.1356426     0.0506431
  H       -0.8367390    -0.2606700     1.5464390
  H       -0.7458570    -1.6486110     0.4490110
  H       -1.7161610    -0.2011590    -1.4014030
  H       -2.8038590    -0.2755580    -0.0085930
  H       -1.7991210     1.1614070    -0.2708750
units angstrom
no_reorient  #important for SAPT in psi4, default
symmetry c1  #important for SAPT in psi4, default
}

set PROPERTIES_ORIGIN ["COM"]
properties('MP2/aug-cc-pvtz', properties = ['dipole'])
--------------------------------------------------------------------------

    Molecular point group: c1
  Charge       = 0
  Multiplicity = 1
  Basis Set: AUG-CC-PVTZ
    Blend: AUG-CC-PVTZ
  Basis Set: (AUG-CC-PVTZ AUX)
    Blend: AUG-CC-PVTZ-JKFIT

    Orbital Energies [Eh]
    ---------------------

    Doubly Occupied:

       1A    -26.320242     2A    -20.586800     3A    -11.423951
       4A    -11.270229     5A    -11.245878     6A     -1.636474
       7A     -1.436764     8A     -1.085956     9A     -0.923120
      10A     -0.827843    11A     -0.729768    12A     -0.719133
      13A     -0.704416    14A     -0.643344    15A     -0.611267
      16A     -0.582238    17A     -0.557586    18A     -0.530318
      19A     -0.522844    20A     -0.481841

  @DF-RHF Final Energy:  -290.94439081785077

   => Energetics <=

    Nuclear Repulsion Energy =            176.0956824831456515
    One-Electron Energy =                -748.4001244794509375
    Two-Electron Energy =                 281.3600511784545120
    Total Energy =                       -290.9443908178507741
  Basis Set: (AUG-CC-PVTZ AUX)
    Blend: AUG-CC-PVTZ-RI
    Molecular point group: c1

    Geometry (in Angstrom), charge = 0, multiplicity = 1:

       Center              X                  Y                   Z               Mass
    ------------   -----------------  -----------------  -----------------  -----------------
         F            0.630528747408     1.213272300710     0.103083733973    18.998403162730
         O            1.459693747408    -0.820015699290    -0.301836266027    15.994914619570
         C           -0.835108252592    -0.589073699290     0.502478733973    12.000000000000
         C           -1.942059252592     0.043191300710    -0.345725266027    12.000000000000
         C            0.545301047408    -0.166259299290     0.054376833973    12.000000000000
         H           -0.951987252592    -0.291286699290     1.550172733973     1.007825032230
         H           -0.861105252592    -1.679227699290     0.452744733973     1.007825032230
         H           -1.831409252592    -0.231775699290    -1.397669266027     1.007825032230
         H           -2.919107252592    -0.306174699290    -0.004859266027     1.007825032230
         H           -1.914369252592     1.130790300710    -0.267141266027     1.007825032230

  Basis Set: AUG-CC-PVTZ
    Blend: AUG-CC-PVTZ
  Basis Set: (AUG-CC-PVTZ AUX)
    Blend: AUG-CC-PVTZ-JKFIT
	 Reference Energy          =    -290.9443908178507741 [Eh]
	 Singles Energy            =      -0.0000000000000000 [Eh]
	 Same-Spin Energy          =      -0.2614305681640660 [Eh]
	 Opposite-Spin Energy      =      -0.8270656247725698 [Eh]
	 Correlation Energy        =      -1.0884961929366357 [Eh]
	 Total Energy              =    -292.0328870107874195 [Eh]

	 ================> DF-SCS-MP2 Energies <==================
	-----------------------------------------------------------
	 SCS Same-Spin Scale       =       0.3333333333333333 [-]
	 SCS Opposite-Spin Scale   =       1.2000000000000000 [-]
	 SCS Same-Spin Energy      =      -0.0871435227213553 [Eh]
	 SCS Opposite-Spin Energy  =      -0.9924787497270837 [Eh]
	 SCS Correlation Energy    =      -1.0796222724484390 [Eh]
	 SCS Total Energy          =    -292.0240130902992064 [Eh]
	-----------------------------------------------------------

  Dipole Moment: [D]
     X:    -2.8433      Y:    -0.4960      Z:     0.7826     Total:     2.9905

*** Psi4 exiting successfully. Buy a developer a beer!
