                               Psi4 1.3.2 release

  ==> Input File <==

--------------------------------------------------------------------------
#psi4
#
memory 32 gb

molecule  {
0 1
  F        0.7683154     1.2422826     0.0914047
  O        1.5750600    -0.7893450    -0.3055120
  C       -0.7198440    -0.5585240     0.4986260
  C       -1.8269480     0.0738180    -0.3493740
  C        0.6450590    -0.1245570     0.0566130
  H       -0.8366380    -0.2608540     1.5463680
  H       -0.7457930    -1.6486690     0.4487620
  H       -1.7160630    -0.2005380    -1.4014460
  H       -2.8039020    -0.2761050    -0.0088100
  H       -1.7996360     1.1613730    -0.2701860
units angstrom
no_reorient  #important for SAPT in psi4, default
symmetry c1  #important for SAPT in psi4, default
}

set PROPERTIES_ORIGIN ["COM"]
properties('MP2/aug-cc-pvtz', properties = ['dipole'])
--------------------------------------------------------------------------

    Molecular point group: c1
  Charge       = 0
  Multiplicity = 1
  Basis Set: AUG-CC-PVTZ
    Blend: AUG-CC-PVTZ
  Basis Set: (AUG-CC-PVTZ AUX)
    Blend: AUG-CC-PVTZ-JKFIT

    Orbital Energies [Eh]
    ---------------------

    Doubly Occupied:

       1A    -26.325256     2A    -20.582397     3A    -11.425874
       4A    -11.271480     5A    -11.247513     6A     -1.643225
       7A     -1.419962     8A     -1.090072     9A     -0.926170
      10A     -0.831906    11A     -0.732768    12A     -0.718309
      13A     -0.704680    14A     -0.642082    15A     -0.614845
      16A     -0.580266    17A     -0.554877    18A     -0.531677
      19A     -0.517720    20A     -0.481061

  @DF-RHF Final Energy:  -290.94339588410168

   => Energetics <=

    Nuclear Repulsion Energy =            175.9746615577399496
    One-Electron Energy =                -748.1518373771292545
    Two-Electron Energy =                 281.2337799352876004
    Total Energy =                       -290.9433958841016761
  Basis Set: (AUG-CC-PVTZ AUX)
    Blend: AUG-CC-PVTZ-RI
    Molecular point group: c1

    Geometry (in Angstrom), charge = 0, multiplicity = 1:

       Center              X                  Y                   Z               Mass
    ------------   -----------------  -----------------  -----------------  -----------------
         F            0.649878402025     1.210317998342     0.096173250844    18.998403162730
         O            1.456623002025    -0.821309601658    -0.300743449156    15.994914619570
         C           -0.838280997975    -0.590488601658     0.503394550844    12.000000000000
         C           -1.945384997975     0.041853398342    -0.344605449156    12.000000000000
         C            0.526622002025    -0.156521601658     0.061381550844    12.000000000000
         H           -0.955074997975    -0.292818601658     1.551136550844     1.007825032230
         H           -0.864229997975    -1.680633601658     0.453530550844     1.007825032230
         H           -1.834499997975    -0.232502601658    -1.396677449156     1.007825032230
         H           -2.922338997975    -0.308069601658    -0.004041449156     1.007825032230
         H           -1.918072997975     1.129408398342    -0.265417449156     1.007825032230

  Basis Set: AUG-CC-PVTZ
    Blend: AUG-CC-PVTZ
  Basis Set: (AUG-CC-PVTZ AUX)
    Blend: AUG-CC-PVTZ-JKFIT
	 Reference Energy          =    -290.9433958841016761 [Eh]
	 Singles Energy            =      -0.0000000000000000 [Eh]
	 Same-Spin Energy          =      -0.2618107925205930 [Eh]
	 Opposite-Spin Energy      =      -0.8278110573527905 [Eh]
	 Correlation Energy        =      -1.0896218498733834 [Eh]
	 Total Energy              =    -292.0330177339750435 [Eh]

	 ================> DF-SCS-MP2 Energies <==================
	-----------------------------------------------------------
	 SCS Same-Spin Scale       =       0.3333333333333333 [-]
	 SCS Opposite-Spin Scale   =       1.2000000000000000 [-]
	 SCS Same-Spin Energy      =      -0.0872702641735310 [Eh]
	 SCS Opposite-Spin Energy  =      -0.9933732688233485 [Eh]
	 SCS Correlation Energy    =      -1.0806435329968795 [Eh]
	 SCS Total Energy          =    -292.0240394170985496 [Eh]
	-----------------------------------------------------------

  Dipole Moment: [D]
     X:    -2.9979      Y:    -0.3921      Z:     0.8349     Total:     3.1366

*** Psi4 exiting successfully. Buy a developer a beer!
