                               Psi4 1.3.2 release

  ==> Input File <==

--------------------------------------------------------------------------
#psi4
#
memory 32 gb

molecule  {
0 1
  F        0.7457720     1.2439030     0.0993580
  O        1.5750600    -0.7893450    -0.3055120
  C       -0.7198440    -0.5585240     0.4986260
  C       -1.8269480     0.0738180    -0.3493740
  C        0.5675045    -0.0691191     0.0868113
  H       -0.8366380    -0.2608540     1.5463680
  H       -0.7457930    -1.6486690     0.4487620
  H       -1.7160630    -0.2005380    -1.4014460
  H       -2.8039020    -0.2761050    -0.0088100
  H       -1.7996360     1.1613730    -0.2701860
units angstrom
no_reorient  #important for SAPT in psi4, default
symmetry c1  #important for SAPT in psi4, default
}

set PROPERTIES_ORIGIN ["COM"]
properties('MP2/aug-cc-pvtz', properties = ['dipole'])
--------------------------------------------------------------------------

    Molecular point group: c1
  Charge       = 0
  Multiplicity = 1
  Basis Set: AUG-CC-PVTZ
    Blend: AUG-CC-PVTZ
  Basis Set: (AUG-CC-PVTZ AUX)
    Blend: AUG-CC-PVTZ-JKFIT

    Orbital Energies [Eh]
    ---------------------

    Doubly Occupied:

       1A    -26.352167     2A    -20.566867     3A    -11.436760
       4A    -11.272214     5A    -11.253062     6A     -1.680466
       7A     -1.348302     8A     -1.108820     9A     -0.940335
      10A     -0.854171    11A     -0.752818    12A     -0.737274
      13A     -0.702046    14A     -0.642235    15A     -0.617256
      16A     -0.571225    17A     -0.553506    18A     -0.538315
      19A     -0.480091    20A     -0.469791

  @DF-RHF Final Energy:  -290.91843592789422

   => Energetics <=

    Nuclear Repulsion Energy =            176.1043284251363445
    One-Electron Energy =                -748.2900837218649031
    Two-Electron Energy =                 281.2673193688343076
    Total Energy =                       -290.9184359278942225
  Basis Set: (AUG-CC-PVTZ AUX)
    Blend: AUG-CC-PVTZ-RI
    Molecular point group: c1

    Geometry (in Angstrom), charge = 0, multiplicity = 1:

       Center              X                  Y                   Z               Mass
    ------------   -----------------  -----------------  -----------------  -----------------
         F            0.645208196009     1.202783887642     0.097373123228    18.998403162730
         O            1.474496196009    -0.830464112358    -0.307496876772    15.994914619570
         C           -0.820407803991    -0.599643112358     0.496641123228    12.000000000000
         C           -1.927511803991     0.032698887642    -0.351358876772    12.000000000000
         C            0.466940696009    -0.110238212358     0.084826423228    12.000000000000
         H           -0.937201803991    -0.301973112358     1.544383123228     1.007825032230
         H           -0.846356803991    -1.689788112358     0.446777123228     1.007825032230
         H           -1.816626803991    -0.241657112358    -1.403430876772     1.007825032230
         H           -2.904465803991    -0.317224112358    -0.010794876772     1.007825032230
         H           -1.900199803991     1.120253887642    -0.272170876772     1.007825032230

  Basis Set: AUG-CC-PVTZ
    Blend: AUG-CC-PVTZ
  Basis Set: (AUG-CC-PVTZ AUX)
    Blend: AUG-CC-PVTZ-JKFIT
	 Reference Energy          =    -290.9184359278942225 [Eh]
	 Singles Energy            =      -0.0000000000000000 [Eh]
	 Same-Spin Energy          =      -0.2644647606265771 [Eh]
	 Opposite-Spin Energy      =      -0.8328232329764225 [Eh]
	 Correlation Energy        =      -1.0972879936029996 [Eh]
	 Total Energy              =    -292.0157239214972265 [Eh]

	 ================> DF-SCS-MP2 Energies <==================
	-----------------------------------------------------------
	 SCS Same-Spin Scale       =       0.3333333333333333 [-]
	 SCS Opposite-Spin Scale   =       1.2000000000000000 [-]
	 SCS Same-Spin Energy      =      -0.0881549202088590 [Eh]
	 SCS Opposite-Spin Energy  =      -0.9993878795717069 [Eh]
	 SCS Correlation Energy    =      -1.0875427997805660 [Eh]
	 SCS Total Energy          =    -292.0059787276748011 [Eh]
	-----------------------------------------------------------

  Dipole Moment: [D]
     X:    -3.4570      Y:     0.0961      Z:     1.0054     Total:     3.6015

*** Psi4 exiting successfully. Buy a developer a beer!
