                               Psi4 1.3.2 release

  ==> Input File <==

--------------------------------------------------------------------------
#psi4
#
memory 32 gb

molecule  {
0 1
  F        0.7457720     1.2439030     0.0993580
  O        1.5750600    -0.7893450    -0.3055120
  C       -0.7198440    -0.5585240     0.4986260
  C       -1.8269480     0.0738180    -0.3493740
  C        0.8271812    -0.0666518    -0.0023658
  H       -0.8366380    -0.2608540     1.5463680
  H       -0.7457930    -1.6486690     0.4487620
  H       -1.7160630    -0.2005380    -1.4014460
  H       -2.8039020    -0.2761050    -0.0088100
  H       -1.7996360     1.1613730    -0.2701860
units angstrom
no_reorient  #important for SAPT in psi4, default
symmetry c1  #important for SAPT in psi4, default
}

set PROPERTIES_ORIGIN ["COM"]
properties('MP2/aug-cc-pvtz', properties = ['dipole'])
--------------------------------------------------------------------------

    Molecular point group: c1
  Charge       = 0
  Multiplicity = 1
  Basis Set: AUG-CC-PVTZ
    Blend: AUG-CC-PVTZ
  Basis Set: (AUG-CC-PVTZ AUX)
    Blend: AUG-CC-PVTZ-JKFIT

    Orbital Energies [Eh]
    ---------------------

    Doubly Occupied:

       1A    -26.342612     2A    -20.593591     3A    -11.414070
       4A    -11.252542     5A    -11.230443     6A     -1.678630
       7A     -1.516494     8A     -1.044701     9A     -0.896992
      10A     -0.846318    11A     -0.753525    12A     -0.745621
      13A     -0.736965    14A     -0.642356    15A     -0.607446
      16A     -0.594542    17A     -0.574201    18A     -0.523553
      19A     -0.508589    20A     -0.433984

  @DF-RHF Final Energy:  -290.90430156947735

   => Energetics <=

    Nuclear Repulsion Energy =            176.8647929806262766
    One-Electron Energy =                -749.6638418827124042
    Two-Electron Energy =                 281.8947473326088016
    Total Energy =                       -290.9043015694773544
  Basis Set: (AUG-CC-PVTZ AUX)
    Blend: AUG-CC-PVTZ-RI
    Molecular point group: c1

    Geometry (in Angstrom), charge = 0, multiplicity = 1:

       Center              X                  Y                   Z               Mass
    ------------   -----------------  -----------------  -----------------  -----------------
         F            0.604224107121     1.202394480188     0.111447709793    18.998403162730
         O            1.433512107121    -0.830853519812    -0.293422290207    15.994914619570
         C           -0.861391892879    -0.600032519812     0.510715709793    12.000000000000
         C           -1.968495892879     0.032309480188    -0.337284290207    12.000000000000
         C            0.685633307121    -0.108160319812     0.009723909793    12.000000000000
         H           -0.978185892879    -0.302362519812     1.558457709793     1.007825032230
         H           -0.887340892879    -1.690177519812     0.460851709793     1.007825032230
         H           -1.857610892879    -0.242046519812    -1.389356290207     1.007825032230
         H           -2.945449892879    -0.317613519812     0.003279709793     1.007825032230
         H           -1.941183892879     1.119864480188    -0.258096290207     1.007825032230

  Basis Set: AUG-CC-PVTZ
    Blend: AUG-CC-PVTZ
  Basis Set: (AUG-CC-PVTZ AUX)
    Blend: AUG-CC-PVTZ-JKFIT
	 Reference Energy          =    -290.9043015694773544 [Eh]
	 Singles Energy            =      -0.0000000000000000 [Eh]
	 Same-Spin Energy          =      -0.2587326119529448 [Eh]
	 Opposite-Spin Energy      =      -0.8216027631554743 [Eh]
	 Correlation Energy        =      -1.0803353751084190 [Eh]
	 Total Energy              =    -291.9846369445857590 [Eh]

	 ================> DF-SCS-MP2 Energies <==================
	-----------------------------------------------------------
	 SCS Same-Spin Scale       =       0.3333333333333333 [-]
	 SCS Opposite-Spin Scale   =       1.2000000000000000 [-]
	 SCS Same-Spin Energy      =      -0.0862442039843149 [Eh]
	 SCS Opposite-Spin Energy  =      -0.9859233157865691 [Eh]
	 SCS Correlation Energy    =      -1.0721675197708840 [Eh]
	 SCS Total Energy          =    -291.9764690892482122 [Eh]
	-----------------------------------------------------------

  Dipole Moment: [D]
     X:    -1.5795      Y:    -0.0864      Z:     0.4570     Total:     1.6465

*** Psi4 exiting successfully. Buy a developer a beer!
