                               Psi4 1.3.2 release

  ==> Input File <==

--------------------------------------------------------------------------
#psi4
#
memory 32 gb

molecule  {
0 1
  F        0.7457720     1.2439030     0.0993580
  O        1.5750600    -0.7893450    -0.3055120
  C       -0.7198440    -0.5585240     0.4986260
  C       -1.8269480     0.0738180    -0.3493740
  C        0.6146887    -0.0256769     0.0722936
  H       -0.8366380    -0.2608540     1.5463680
  H       -0.7457930    -1.6486690     0.4487620
  H       -1.7160630    -0.2005380    -1.4014460
  H       -2.8039020    -0.2761050    -0.0088100
  H       -1.7996360     1.1613730    -0.2701860
units angstrom
no_reorient  #important for SAPT in psi4, default
symmetry c1  #important for SAPT in psi4, default
}

set PROPERTIES_ORIGIN ["COM"]
properties('MP2/aug-cc-pvtz', properties = ['dipole'])
--------------------------------------------------------------------------

    Molecular point group: c1
  Charge       = 0
  Multiplicity = 1
  Basis Set: AUG-CC-PVTZ
    Blend: AUG-CC-PVTZ
  Basis Set: (AUG-CC-PVTZ AUX)
    Blend: AUG-CC-PVTZ-JKFIT

    Orbital Energies [Eh]
    ---------------------

    Doubly Occupied:

       1A    -26.369233     2A    -20.563708     3A    -11.434253
       4A    -11.269764     5A    -11.248156     6A     -1.715288
       7A     -1.355252     8A     -1.091745     9A     -0.935131
      10A     -0.870892    11A     -0.770580    12A     -0.758139
      13A     -0.701580    14A     -0.639950    15A     -0.612686
      16A     -0.565748    17A     -0.547532    18A     -0.533997
      19A     -0.484120    20A     -0.463697

  @DF-RHF Final Energy:  -290.92487283574656

   => Energetics <=

    Nuclear Repulsion Energy =            176.3640871980200870
    One-Electron Energy =                -748.7150197850396580
    Two-Electron Energy =                 281.4260597512729873
    Total Energy =                       -290.9248728357465552
  Basis Set: (AUG-CC-PVTZ AUX)
    Blend: AUG-CC-PVTZ-RI
    Molecular point group: c1

    Geometry (in Angstrom), charge = 0, multiplicity = 1:

       Center              X                  Y                   Z               Mass
    ------------   -----------------  -----------------  -----------------  -----------------
         F            0.637761238131     1.195927519757     0.099664413541    18.998403162730
         O            1.467049238131    -0.837320480243    -0.305205586459    15.994914619570
         C           -0.827854761869    -0.606499480243     0.498932413541    12.000000000000
         C           -1.934958761869     0.025842519757    -0.349067586459    12.000000000000
         C            0.506677938131    -0.073652380243     0.072600013541    12.000000000000
         H           -0.944648761869    -0.308829480243     1.546674413541     1.007825032230
         H           -0.853803761869    -1.696644480243     0.449068413541     1.007825032230
         H           -1.824073761869    -0.248513480243    -1.401139586459     1.007825032230
         H           -2.911912761869    -0.324080480243    -0.008503586459     1.007825032230
         H           -1.907646761869     1.113397519757    -0.269879586459     1.007825032230

  Basis Set: AUG-CC-PVTZ
    Blend: AUG-CC-PVTZ
  Basis Set: (AUG-CC-PVTZ AUX)
    Blend: AUG-CC-PVTZ-JKFIT
	 Reference Energy          =    -290.9248728357465552 [Eh]
	 Singles Energy            =      -0.0000000000000000 [Eh]
	 Same-Spin Energy          =      -0.2629229230633831 [Eh]
	 Opposite-Spin Energy      =      -0.8296230184409862 [Eh]
	 Correlation Energy        =      -1.0925459415043692 [Eh]
	 Total Energy              =    -292.0174187772509526 [Eh]

	 ================> DF-SCS-MP2 Energies <==================
	-----------------------------------------------------------
	 SCS Same-Spin Scale       =       0.3333333333333333 [-]
	 SCS Opposite-Spin Scale   =       1.2000000000000000 [-]
	 SCS Same-Spin Energy      =      -0.0876409743544610 [Eh]
	 SCS Opposite-Spin Energy  =      -0.9955476221291834 [Eh]
	 SCS Correlation Energy    =      -1.0831885964836443 [Eh]
	 SCS Total Energy          =    -292.0080614322301926 [Eh]
	-----------------------------------------------------------

  Dipole Moment: [D]
     X:    -3.1770      Y:     0.4221      Z:     0.9553     Total:     3.3442

*** Psi4 exiting successfully. Buy a developer a beer!
