                               Psi4 1.3.2 release

  ==> Input File <==

--------------------------------------------------------------------------
#psi4
#
memory 32 gb

molecule  {
0 1
  F        0.7457720     1.2439030     0.0993580
  O        1.5750600    -0.7893450    -0.3055120
  C       -0.7198440    -0.5585240     0.4986260
  C       -1.8269480     0.0738180    -0.3493740
  C        0.4899500    -0.0136812     0.1170096
  H       -0.8366380    -0.2608540     1.5463680
  H       -0.7457930    -1.6486690     0.4487620
  H       -1.7160630    -0.2005380    -1.4014460
  H       -2.8039020    -0.2761050    -0.0088100
  H       -1.7996360     1.1613730    -0.2701860
units angstrom
no_reorient  #important for SAPT in psi4, default
symmetry c1  #important for SAPT in psi4, default
}

set PROPERTIES_ORIGIN ["COM"]
properties('MP2/aug-cc-pvtz', properties = ['dipole'])
--------------------------------------------------------------------------

    Molecular point group: c1
  Charge       = 0
  Multiplicity = 1
  Basis Set: AUG-CC-PVTZ
    Blend: AUG-CC-PVTZ
  Basis Set: (AUG-CC-PVTZ AUX)
    Blend: AUG-CC-PVTZ-JKFIT

    Orbital Energies [Eh]
    ---------------------

    Doubly Occupied:

       1A    -26.374873     2A    -20.548263     3A    -11.444502
       4A    -11.274463     5A    -11.259766     6A     -1.714986
       7A     -1.287460     8A     -1.128745     9A     -0.953035
      10A     -0.877112    11A     -0.773553    12A     -0.759543
      13A     -0.708358    14A     -0.655582    15A     -0.608907
      16A     -0.565606    17A     -0.556616    18A     -0.531809
      19A     -0.449811    20A     -0.441629

  @DF-RHF Final Energy:  -290.87011202871497

   => Energetics <=

    Nuclear Repulsion Energy =            176.3362004458445824
    One-Electron Energy =                -748.5833895182133801
    Two-Electron Energy =                 281.3770770436537987
    Total Energy =                       -290.8701120287149706
  Basis Set: (AUG-CC-PVTZ AUX)
    Blend: AUG-CC-PVTZ-RI
    Molecular point group: c1

    Geometry (in Angstrom), charge = 0, multiplicity = 1:

       Center              X                  Y                   Z               Mass
    ------------   -----------------  -----------------  -----------------  -----------------
         F            0.657448418262     1.194034270054     0.092607005161    18.998403162730
         O            1.486736418262    -0.839213729946    -0.312262994839    15.994914619570
         C           -0.808167581738    -0.608392729946     0.491875005161    12.000000000000
         C           -1.915271581738     0.023949270054    -0.356124994839    12.000000000000
         C            0.401626418262    -0.063549929946     0.110258605161    12.000000000000
         H           -0.924961581738    -0.310722729946     1.539617005161     1.007825032230
         H           -0.834116581738    -1.698537729946     0.442011005161     1.007825032230
         H           -1.804386581738    -0.250406729946    -1.408196994839     1.007825032230
         H           -2.892225581738    -0.325973729946    -0.015560994839     1.007825032230
         H           -1.887959581738     1.111504270054    -0.276936994839     1.007825032230

  Basis Set: AUG-CC-PVTZ
    Blend: AUG-CC-PVTZ
  Basis Set: (AUG-CC-PVTZ AUX)
    Blend: AUG-CC-PVTZ-JKFIT
	 Reference Energy          =    -290.8701120287149706 [Eh]
	 Singles Energy            =      -0.0000000000000000 [Eh]
	 Same-Spin Energy          =      -0.2675147175040860 [Eh]
	 Opposite-Spin Energy      =      -0.8384287530616238 [Eh]
	 Correlation Energy        =      -1.1059434705657099 [Eh]
	 Total Energy              =    -291.9760554992806760 [Eh]

	 ================> DF-SCS-MP2 Energies <==================
	-----------------------------------------------------------
	 SCS Same-Spin Scale       =       0.3333333333333333 [-]
	 SCS Opposite-Spin Scale   =       1.2000000000000000 [-]
	 SCS Same-Spin Energy      =      -0.0891715725013620 [Eh]
	 SCS Opposite-Spin Energy  =      -1.0061145036739485 [Eh]
	 SCS Correlation Energy    =      -1.0952860761753105 [Eh]
	 SCS Total Energy          =    -291.9653981048902551 [Eh]
	-----------------------------------------------------------

  Dipole Moment: [D]
     X:    -3.8995      Y:     0.4965      Z:     1.1605     Total:     4.0987

*** Psi4 exiting successfully. Buy a developer a beer!
