                               Psi4 1.3.2 release

  ==> Input File <==

--------------------------------------------------------------------------
#psi4
#
memory 32 gb

molecule  {
0 1
  F        0.6551670     1.2462450     0.1304562
  O        1.5750600    -0.7893450    -0.3055120
  C       -0.7198440    -0.5585240     0.4986260
  C       -1.8269480     0.0738180    -0.3493740
  C        0.6450590    -0.1245570     0.0566130
  H       -0.8366380    -0.2608540     1.5463680
  H       -0.7457930    -1.6486690     0.4487620
  H       -1.7160630    -0.2005380    -1.4014460
  H       -2.8039020    -0.2761050    -0.0088100
  H       -1.7996360     1.1613730    -0.2701860
units angstrom
no_reorient  #important for SAPT in psi4, default
symmetry c1  #important for SAPT in psi4, default
}

set PROPERTIES_ORIGIN ["COM"]
properties('MP2/aug-cc-pvtz', properties = ['dipole'])
--------------------------------------------------------------------------

    Molecular point group: c1
  Charge       = 0
  Multiplicity = 1
  Basis Set: AUG-CC-PVTZ
    Blend: AUG-CC-PVTZ
  Basis Set: (AUG-CC-PVTZ AUX)
    Blend: AUG-CC-PVTZ-JKFIT

    Orbital Energies [Eh]
    ---------------------

    Doubly Occupied:

       1A    -26.328556     2A    -20.588228     3A    -11.428497
       4A    -11.266660     5A    -11.245010     6A     -1.646564
       7A     -1.424977     8A     -1.087553     9A     -0.926020
      10A     -0.832276    11A     -0.734958    12A     -0.722052
      13A     -0.706846    14A     -0.643081    15A     -0.609520
      16A     -0.580988    17A     -0.555508    18A     -0.528335
      19A     -0.519654    20A     -0.481352

  @DF-RHF Final Energy:  -290.94074224106049

   => Energetics <=

    Nuclear Repulsion Energy =            176.5057218547135847
    One-Electron Energy =                -749.1796584724119157
    Two-Electron Energy =                 281.7331943766378686
    Total Energy =                       -290.9407422410604909
  Basis Set: (AUG-CC-PVTZ AUX)
    Blend: AUG-CC-PVTZ-RI
    Molecular point group: c1

    Geometry (in Angstrom), charge = 0, multiplicity = 1:

       Center              X                  Y                   Z               Mass
    ------------   -----------------  -----------------  -----------------  -----------------
         F            0.565002655608     1.213290304248     0.125466861811    18.998403162730
         O            1.484895655608    -0.822299695752    -0.310501338189    15.994914619570
         C           -0.810008344392    -0.591478695752     0.493636661811    12.000000000000
         C           -1.917112344392     0.040863304248    -0.354363338189    12.000000000000
         C            0.554894655608    -0.157511695752     0.051623661811    12.000000000000
         H           -0.926802344392    -0.293808695752     1.541378661811     1.007825032230
         H           -0.835957344392    -1.681623695752     0.443772661811     1.007825032230
         H           -1.806227344392    -0.233492695752    -1.406435338189     1.007825032230
         H           -2.894066344392    -0.309059695752    -0.013799338189     1.007825032230
         H           -1.889800344392     1.128418304248    -0.275175338189     1.007825032230

  Basis Set: AUG-CC-PVTZ
    Blend: AUG-CC-PVTZ
  Basis Set: (AUG-CC-PVTZ AUX)
    Blend: AUG-CC-PVTZ-JKFIT
	 Reference Energy          =    -290.9407422410604909 [Eh]
	 Singles Energy            =      -0.0000000000000000 [Eh]
	 Same-Spin Energy          =      -0.2622179351306616 [Eh]
	 Opposite-Spin Energy      =      -0.8285043145759631 [Eh]
	 Correlation Energy        =      -1.0907222497066247 [Eh]
	 Total Energy              =    -292.0314644907671209 [Eh]

	 ================> DF-SCS-MP2 Energies <==================
	-----------------------------------------------------------
	 SCS Same-Spin Scale       =       0.3333333333333333 [-]
	 SCS Opposite-Spin Scale   =       1.2000000000000000 [-]
	 SCS Same-Spin Energy      =      -0.0874059783768872 [Eh]
	 SCS Opposite-Spin Energy  =      -0.9942051774911557 [Eh]
	 SCS Correlation Energy    =      -1.0816111558680428 [Eh]
	 SCS Total Energy          =    -292.0223533969285086 [Eh]
	-----------------------------------------------------------

  Dipole Moment: [D]
     X:    -2.7667      Y:    -0.3637      Z:     0.7734     Total:     2.8957

*** Psi4 exiting successfully. Buy a developer a beer!
