                               Psi4 1.3.2 release

  ==> Input File <==

--------------------------------------------------------------------------
#psi4
#
memory 32 gb

molecule  {
0 1
  F        0.7006001     1.2458929     0.1152230
  O        1.5750600    -0.7893450    -0.3055120
  C       -0.7198440    -0.5585240     0.4986260
  C       -1.8269480     0.0738180    -0.3493740
  C        0.6450590    -0.1245570     0.0566130
  H       -0.8366380    -0.2608540     1.5463680
  H       -0.7457930    -1.6486690     0.4487620
  H       -1.7160630    -0.2005380    -1.4014460
  H       -2.8039020    -0.2761050    -0.0088100
  H       -1.7996360     1.1613730    -0.2701860
units angstrom
no_reorient  #important for SAPT in psi4, default
symmetry c1  #important for SAPT in psi4, default
}

set PROPERTIES_ORIGIN ["COM"]
properties('MP2/aug-cc-pvtz', properties = ['dipole'])
--------------------------------------------------------------------------

    Molecular point group: c1
  Charge       = 0
  Multiplicity = 1
  Basis Set: AUG-CC-PVTZ
    Blend: AUG-CC-PVTZ
  Basis Set: (AUG-CC-PVTZ AUX)
    Blend: AUG-CC-PVTZ-JKFIT

    Orbital Energies [Eh]
    ---------------------

    Doubly Occupied:

       1A    -26.327336     2A    -20.585919     3A    -11.427445
       4A    -11.268607     5A    -11.246038     6A     -1.645197
       7A     -1.423013     8A     -1.088573     9A     -0.926044
      10A     -0.832214    11A     -0.733955    12A     -0.720601
      13A     -0.706037    14A     -0.642615    15A     -0.611781
      16A     -0.580787    17A     -0.555217    18A     -0.529679
      19A     -0.519032    20A     -0.481389

  @DF-RHF Final Energy:  -290.94237250477266

   => Energetics <=

    Nuclear Repulsion Energy =            176.2743004780319040
    One-Electron Energy =                -748.7303895459549494
    Two-Electron Energy =                 281.5137165631503535
    Total Energy =                       -290.9423725047726634
  Basis Set: (AUG-CC-PVTZ AUX)
    Blend: AUG-CC-PVTZ-RI
    Molecular point group: c1

    Geometry (in Angstrom), charge = 0, multiplicity = 1:

       Center              X                  Y                   Z               Mass
    ------------   -----------------  -----------------  -----------------  -----------------
         F            0.599083281357     1.213026184293     0.114040016886    18.998403162730
         O            1.473543181357    -0.822211715707    -0.306694983114    15.994914619570
         C           -0.821360818643    -0.591390715707     0.497443016886    12.000000000000
         C           -1.928464818643     0.040951284293    -0.350556983114    12.000000000000
         C            0.543542181357    -0.157423715707     0.055430016886    12.000000000000
         H           -0.938154818643    -0.293720715707     1.545185016886     1.007825032230
         H           -0.847309818643    -1.681535715707     0.447579016886     1.007825032230
         H           -1.817579818643    -0.233404715707    -1.402628983114     1.007825032230
         H           -2.905418818643    -0.308971715707    -0.009992983114     1.007825032230
         H           -1.901152818643     1.128506284293    -0.271368983114     1.007825032230

  Basis Set: AUG-CC-PVTZ
    Blend: AUG-CC-PVTZ
  Basis Set: (AUG-CC-PVTZ AUX)
    Blend: AUG-CC-PVTZ-JKFIT
	 Reference Energy          =    -290.9423725047726634 [Eh]
	 Singles Energy            =      -0.0000000000000000 [Eh]
	 Same-Spin Energy          =      -0.2620373711638666 [Eh]
	 Opposite-Spin Energy      =      -0.8281915952477518 [Eh]
	 Correlation Energy        =      -1.0902289664116183 [Eh]
	 Total Energy              =    -292.0326014711843072 [Eh]

	 ================> DF-SCS-MP2 Energies <==================
	-----------------------------------------------------------
	 SCS Same-Spin Scale       =       0.3333333333333333 [-]
	 SCS Opposite-Spin Scale   =       1.2000000000000000 [-]
	 SCS Same-Spin Energy      =      -0.0873457903879555 [Eh]
	 SCS Opposite-Spin Energy  =      -0.9938299142973021 [Eh]
	 SCS Correlation Energy    =      -1.0811757046852575 [Eh]
	 SCS Total Energy          =    -292.0235482094579424 [Eh]
	-----------------------------------------------------------

  Dipole Moment: [D]
     X:    -2.8603      Y:    -0.3773      Z:     0.7977     Total:     2.9933

*** Psi4 exiting successfully. Buy a developer a beer!
