                               Psi4 1.4a3.dev225

  ==> Input File <==

--------------------------------------------------------------------------
#psi4
#
memory 32 gb

molecule  {
0 1
  F        0.7457770     1.2438890     0.0993500
  O        1.5749420    -0.7893990    -0.3055700
  C       -0.7198600    -0.5584570     0.4987450
  C       -1.8268110     0.0738080    -0.3494590
  C        0.6905707    -0.1100798     0.0419387
  H       -0.8367390    -0.2606700     1.5464390
  H       -0.7458570    -1.6486110     0.4490110
  H       -1.7161610    -0.2011590    -1.4014030
  H       -2.8038590    -0.2755580    -0.0085930
  H       -1.7991210     1.1614070    -0.2708750
units angstrom
no_reorient  #important for SAPT in psi4, default
symmetry c1  #important for SAPT in psi4, default
}

set PROPERTIES_ORIGIN ["COM"]
properties('MP2/aug-cc-pvtz', properties = ['dipole'])
--------------------------------------------------------------------------

    Molecular point group: c1
  Charge       = 0
  Multiplicity = 1
  Basis Set: AUG-CC-PVTZ
    Blend: AUG-CC-PVTZ
  Basis Set: (AUG-CC-PVTZ AUX)
    Blend: AUG-CC-PVTZ-JKFIT

    Orbital Energies [Eh]
    ---------------------

    Doubly Occupied:

       1A    -26.329970     2A    -20.585128     3A    -11.421780
       4A    -11.267589     5A    -11.242911     6A     -1.653266
       7A     -1.444186     8A     -1.076546     9A     -0.917150
      10A     -0.836761    11A     -0.737465    12A     -0.724265
      13A     -0.712542    14A     -0.641838    15A     -0.610193
      16A     -0.581397    17A     -0.557793    18A     -0.529010
      19A     -0.521906    20A     -0.474779

  @DF-RHF Final Energy:  -290.94440578596470

   => Energetics <=

    Nuclear Repulsion Energy =            176.2559674808195496
    One-Electron Energy =                -748.6677968883873291
    Two-Electron Energy =                 281.4674236216030749
    Total Energy =                       -290.9444057859647046
  Basis Set: (AUG-CC-PVTZ AUX)
    Blend: AUG-CC-PVTZ-RI
    Molecular point group: c1

    Geometry (in Angstrom), charge = 0, multiplicity = 1:

       Center              X                  Y                   Z               Mass
    ------------   -----------------  -----------------  -----------------  -----------------
         F            0.625790549001     1.209237791386     0.104457526475    18.998403162730
         O            1.454955549001    -0.824050208614    -0.300462473525    15.994914619570
         C           -0.839846450999    -0.593108208614     0.503852526475    12.000000000000
         C           -1.946797450999     0.039156791386    -0.344351473525    12.000000000000
         C            0.570584249001    -0.144731008614     0.047046226475    12.000000000000
         H           -0.956725450999    -0.295321208614     1.551546526475     1.007825032230
         H           -0.865843450999    -1.683262208614     0.454118526475     1.007825032230
         H           -1.836147450999    -0.235810208614    -1.396295473525     1.007825032230
         H           -2.923845450999    -0.310209208614    -0.003485473525     1.007825032230
         H           -1.919107450999     1.126755791386    -0.265767473525     1.007825032230

  Basis Set: AUG-CC-PVTZ
    Blend: AUG-CC-PVTZ
  Basis Set: (AUG-CC-PVTZ AUX)
    Blend: AUG-CC-PVTZ-JKFIT
	 Reference Energy          =    -290.9444057859647046 [Eh]
	 Singles Energy            =      -0.0000000000000000 [Eh]
	 Same-Spin Energy          =      -0.2606551784297552 [Eh]
	 Opposite-Spin Energy      =      -0.8254665500361774 [Eh]
	 Correlation Energy        =      -1.0861217284659326 [Eh]
	 Total Energy              =    -292.0305275144306165 [Eh]

	 ================> DF-SCS-MP2 Energies <==================
	-----------------------------------------------------------
	 SCS Same-Spin Scale       =       0.3333333333333333 [-]
	 SCS Opposite-Spin Scale   =       1.2000000000000000 [-]
	 SCS Same-Spin Energy      =      -0.0868850594765850 [Eh]
	 SCS Opposite-Spin Energy  =      -0.9905598600434129 [Eh]
	 SCS Correlation Energy    =      -1.0774449195199980 [Eh]
	 SCS Total Energy          =    -292.0218507054847237 [Eh]
	-----------------------------------------------------------

  Dipole Moment: [D]
     X:    -2.6435      Y:    -0.3102      Z:     0.7424     Total:     2.7633

*** Psi4 exiting successfully. Buy a developer a beer!
