                               Psi4 1.3.2 release

  ==> Input File <==

--------------------------------------------------------------------------
#psi4
#
memory 32 gb

molecule  {
0 1
  F        0.7457720     1.2439030     0.0993580
  O        1.5750600    -0.7893450    -0.3055120
  C       -0.7198440    -0.5585240     0.4986260
  C       -1.7505960     0.1235162    -0.4052606
  C        0.6450590    -0.1245570     0.0566130
  H       -0.8366380    -0.2608540     1.5463680
  H       -0.7457930    -1.6486690     0.4487620
  H       -1.7160630    -0.2005380    -1.4014460
  H       -2.8039020    -0.2761050    -0.0088100
  H       -1.7996360     1.1613730    -0.2701860
units angstrom
no_reorient  #important for SAPT in psi4, default
symmetry c1  #important for SAPT in psi4, default
}

set PROPERTIES_ORIGIN ["COM"]
properties('MP2/aug-cc-pvtz', properties = ['dipole'])
--------------------------------------------------------------------------

    Molecular point group: c1
  Charge       = 0
  Multiplicity = 1
  Basis Set: AUG-CC-PVTZ
    Blend: AUG-CC-PVTZ
  Basis Set: (AUG-CC-PVTZ AUX)
    Blend: AUG-CC-PVTZ-JKFIT

    Orbital Energies [Eh]
    ---------------------

    Doubly Occupied:

       1A    -26.325683     2A    -20.581953     3A    -11.424284
       4A    -11.272025     5A    -11.249076     6A     -1.643749
       7A     -1.419784     8A     -1.091843     9A     -0.925349
      10A     -0.832937    11A     -0.732848    12A     -0.719237
      13A     -0.705016    14A     -0.652328    15A     -0.610939
      16A     -0.577381    17A     -0.553041    18A     -0.534065
      19A     -0.520554    20A     -0.471664

  @DF-RHF Final Energy:  -290.93202554098895

   => Energetics <=

    Nuclear Repulsion Energy =            176.6291015272284142
    One-Electron Energy =                -749.4347365400144554
    Two-Electron Energy =                 281.8736094717971241
    Total Energy =                       -290.9320255409889455
  Basis Set: (AUG-CC-PVTZ AUX)
    Blend: AUG-CC-PVTZ-RI
    Molecular point group: c1

    Geometry (in Angstrom), charge = 0, multiplicity = 1:

       Center              X                  Y                   Z               Mass
    ------------   -----------------  -----------------  -----------------  -----------------
         F            0.620917538910     1.203689769360     0.110959676020    18.998403162730
         O            1.450205538910    -0.829558230640    -0.293910323980    15.994914619570
         C           -0.844698461090    -0.598737230640     0.510227676020    12.000000000000
         C           -1.875450461090     0.083302969360    -0.393658923980    12.000000000000
         C            0.520204538910    -0.164770230640     0.068214676020    12.000000000000
         H           -0.961492461090    -0.301067230640     1.557969676020     1.007825032230
         H           -0.870647461090    -1.688882230640     0.460363676020     1.007825032230
         H           -1.840917461090    -0.240751230640    -1.389844323980     1.007825032230
         H           -2.928756461090    -0.316318230640     0.002791676020     1.007825032230
         H           -1.924490461090     1.121159769360    -0.258584323980     1.007825032230

  Basis Set: AUG-CC-PVTZ
    Blend: AUG-CC-PVTZ
  Basis Set: (AUG-CC-PVTZ AUX)
    Blend: AUG-CC-PVTZ-JKFIT
	 Reference Energy          =    -290.9320255409889455 [Eh]
	 Singles Energy            =      -0.0000000000000000 [Eh]
	 Same-Spin Energy          =      -0.2621228659432202 [Eh]
	 Opposite-Spin Energy      =      -0.8284600159980826 [Eh]
	 Correlation Energy        =      -1.0905828819413028 [Eh]
	 Total Energy              =    -292.0226084229302614 [Eh]

	 ================> DF-SCS-MP2 Energies <==================
	-----------------------------------------------------------
	 SCS Same-Spin Scale       =       0.3333333333333333 [-]
	 SCS Opposite-Spin Scale   =       1.2000000000000000 [-]
	 SCS Same-Spin Energy      =      -0.0873742886477401 [Eh]
	 SCS Opposite-Spin Energy  =      -0.9941520191976991 [Eh]
	 SCS Correlation Energy    =      -1.0815263078454391 [Eh]
	 SCS Total Energy          =    -292.0135518488343678 [Eh]
	-----------------------------------------------------------

  Dipole Moment: [D]
     X:    -2.9364      Y:    -0.3778      Z:     0.8179     Total:     3.0715

*** Psi4 exiting successfully. Buy a developer a beer!
