                               Psi4 1.3.2 release

  ==> Input File <==

--------------------------------------------------------------------------
#psi4
#
memory 32 gb

molecule  {
0 1
  F        0.7457720     1.2439030     0.0993580
  O        1.5750600    -0.7893450    -0.3055120
  C       -0.7198440    -0.5585240     0.4986260
  C       -1.8269480     0.0738180    -0.3493740
  C        0.4629368    -0.1824622     0.1155918
  H       -0.8366380    -0.2608540     1.5463680
  H       -0.7457930    -1.6486690     0.4487620
  H       -1.7160630    -0.2005380    -1.4014460
  H       -2.8039020    -0.2761050    -0.0088100
  H       -1.7996360     1.1613730    -0.2701860
units angstrom
no_reorient  #important for SAPT in psi4, default
symmetry c1  #important for SAPT in psi4, default
}

set PROPERTIES_ORIGIN ["COM"]
properties('MP2/aug-cc-pvtz', properties = ['dipole'])
--------------------------------------------------------------------------

    Molecular point group: c1
  Charge       = 0
  Multiplicity = 1
  Basis Set: AUG-CC-PVTZ
    Blend: AUG-CC-PVTZ
  Basis Set: (AUG-CC-PVTZ AUX)
    Blend: AUG-CC-PVTZ-JKFIT

    Orbital Energies [Eh]
    ---------------------

    Doubly Occupied:

       1A    -26.306280     2A    -20.574522     3A    -11.443103
       4A    -11.276024     5A    -11.266435     6A     -1.600227
       7A     -1.333813     8A     -1.158744     9A     -0.964706
      10A     -0.811629    11A     -0.726537    12A     -0.711403
      13A     -0.678776    14A     -0.633580    15A     -0.620716
      16A     -0.583282    17A     -0.568243    18A     -0.545905
      19A     -0.473239    20A     -0.470918

  @DF-RHF Final Energy:  -290.86008942133179

   => Energetics <=

    Nuclear Repulsion Energy =            175.6504492862415816
    One-Electron Energy =                -747.5249136598806672
    Two-Electron Energy =                 281.0143749523072643
    Total Energy =                       -290.8600894213317929
  Basis Set: (AUG-CC-PVTZ AUX)
    Blend: AUG-CC-PVTZ-RI
    Molecular point group: c1

    Geometry (in Angstrom), charge = 0, multiplicity = 1:

       Center              X                  Y                   Z               Mass
    ------------   -----------------  -----------------  -----------------  -----------------
         F            0.661711840394     1.220672530271     0.092830772796    18.998403162730
         O            1.490999840394    -0.812575469729    -0.312039227204    15.994914619570
         C           -0.803904159606    -0.581754469729     0.492098772796    12.000000000000
         C           -1.911008159606     0.050587530271    -0.355901227204    12.000000000000
         C            0.378876640394    -0.205692669729     0.109064572796    12.000000000000
         H           -0.920698159606    -0.284084469729     1.539840772796     1.007825032230
         H           -0.829853159606    -1.671899469729     0.442234772796     1.007825032230
         H           -1.800123159606    -0.223768469729    -1.407973227204     1.007825032230
         H           -2.887962159606    -0.299335469729    -0.015337227204     1.007825032230
         H           -1.883696159606     1.138142530271    -0.276713227204     1.007825032230

  Basis Set: AUG-CC-PVTZ
    Blend: AUG-CC-PVTZ
  Basis Set: (AUG-CC-PVTZ AUX)
    Blend: AUG-CC-PVTZ-JKFIT
	 Reference Energy          =    -290.8600894213317929 [Eh]
	 Singles Energy            =      -0.0000000000000000 [Eh]
	 Same-Spin Energy          =      -0.2695187560441860 [Eh]
	 Opposite-Spin Energy      =      -0.8429439379777799 [Eh]
	 Correlation Energy        =      -1.1124626940219660 [Eh]
	 Total Energy              =    -291.9725521153537784 [Eh]

	 ================> DF-SCS-MP2 Energies <==================
	-----------------------------------------------------------
	 SCS Same-Spin Scale       =       0.3333333333333333 [-]
	 SCS Opposite-Spin Scale   =       1.2000000000000000 [-]
	 SCS Same-Spin Energy      =      -0.0898395853480620 [Eh]
	 SCS Opposite-Spin Energy  =      -1.0115327255733357 [Eh]
	 SCS Correlation Energy    =      -1.1013723109213978 [Eh]
	 SCS Total Energy          =    -291.9614617322532126 [Eh]
	-----------------------------------------------------------

  Dipole Moment: [D]
     X:    -4.1211      Y:    -0.7553      Z:     1.1093     Total:     4.3341

*** Psi4 exiting successfully. Buy a developer a beer!
