                               Psi4 1.3.2 release

  ==> Input File <==

--------------------------------------------------------------------------
#psi4
#
memory 32 gb

molecule  {
0 1
  F        0.7457720     1.2439030     0.0993580
  O        1.5750600    -0.7893450    -0.3055120
  C       -0.7198440    -0.5585240     0.4986260
  C       -1.8979063     0.0210391    -0.2893560
  C        0.6450590    -0.1245570     0.0566130
  H       -0.8366380    -0.2608540     1.5463680
  H       -0.7457930    -1.6486690     0.4487620
  H       -1.7160630    -0.2005380    -1.4014460
  H       -2.8039020    -0.2761050    -0.0088100
  H       -1.7996360     1.1613730    -0.2701860
units angstrom
no_reorient  #important for SAPT in psi4, default
symmetry c1  #important for SAPT in psi4, default
}

set PROPERTIES_ORIGIN ["COM"]
properties('MP2/aug-cc-pvtz', properties = ['dipole'])
--------------------------------------------------------------------------

    Molecular point group: c1
  Charge       = 0
  Multiplicity = 1
  Basis Set: AUG-CC-PVTZ
    Blend: AUG-CC-PVTZ
  Basis Set: (AUG-CC-PVTZ AUX)
    Blend: AUG-CC-PVTZ-JKFIT

    Orbital Energies [Eh]
    ---------------------

    Doubly Occupied:

       1A    -26.326914     2A    -20.585808     3A    -11.429352
       4A    -11.270929     5A    -11.248727     6A     -1.644682
       7A     -1.422804     8A     -1.088999     9A     -0.930677
      10A     -0.832312    11A     -0.733681    12A     -0.719842
      13A     -0.706546    14A     -0.637871    15A     -0.623758
      16A     -0.598273    17A     -0.552112    18A     -0.516801
      19A     -0.507933    20A     -0.485624

  @DF-RHF Final Energy:  -290.92925513538620

   => Energetics <=

    Nuclear Repulsion Energy =            175.5682727129566558
    One-Electron Energy =                -747.2677618428891719
    Two-Electron Energy =                 280.7702339945463450
    Total Energy =                       -290.9292551353861995
  Basis Set: (AUG-CC-PVTZ AUX)
    Blend: AUG-CC-PVTZ-RI
    Molecular point group: c1

    Geometry (in Angstrom), charge = 0, multiplicity = 1:

       Center              X                  Y                   Z               Mass
    ------------   -----------------  -----------------  -----------------  -----------------
         F            0.644167135155     1.219863459858     0.092666758600    18.998403162730
         O            1.473455135155    -0.813384540142    -0.312203241400    15.994914619570
         C           -0.821448864845    -0.582563540142     0.491934758600    12.000000000000
         C           -1.999511164845    -0.003000440142    -0.296047241400    12.000000000000
         C            0.543454135155    -0.148596540142     0.049921758600    12.000000000000
         H           -0.938242864845    -0.284893540142     1.539676758600     1.007825032230
         H           -0.847397864845    -1.672708540142     0.442070758600     1.007825032230
         H           -1.817667864845    -0.224577540142    -1.408137241400     1.007825032230
         H           -2.905506864845    -0.300144540142    -0.015501241400     1.007825032230
         H           -1.901240864845     1.137333459858    -0.276877241400     1.007825032230

  Basis Set: AUG-CC-PVTZ
    Blend: AUG-CC-PVTZ
  Basis Set: (AUG-CC-PVTZ AUX)
    Blend: AUG-CC-PVTZ-JKFIT
	 Reference Energy          =    -290.9292551353861995 [Eh]
	 Singles Energy            =      -0.0000000000000000 [Eh]
	 Same-Spin Energy          =      -0.2620327170047068 [Eh]
	 Opposite-Spin Energy      =      -0.8286119282671293 [Eh]
	 Correlation Energy        =      -1.0906446452718361 [Eh]
	 Total Energy              =    -292.0198997806580223 [Eh]

	 ================> DF-SCS-MP2 Energies <==================
	-----------------------------------------------------------
	 SCS Same-Spin Scale       =       0.3333333333333333 [-]
	 SCS Opposite-Spin Scale   =       1.2000000000000000 [-]
	 SCS Same-Spin Energy      =      -0.0873442390015689 [Eh]
	 SCS Opposite-Spin Energy  =      -0.9943343139205550 [Eh]
	 SCS Correlation Energy    =      -1.0816785529221240 [Eh]
	 SCS Total Energy          =    -292.0109336883083415 [Eh]
	-----------------------------------------------------------

  Dipole Moment: [D]
     X:    -2.9252      Y:    -0.3992      Z:     0.8359     Total:     3.0683

*** Psi4 exiting successfully. Buy a developer a beer!
