                               Psi4 1.3.2 release

  ==> Input File <==

--------------------------------------------------------------------------
#psi4
#
memory 32 gb

molecule  {
0 1
  F        0.8356928     1.2349258     0.0674911
  O        1.5750600    -0.7893450    -0.3055120
  C       -0.7198440    -0.5585240     0.4986260
  C       -1.8269480     0.0738180    -0.3493740
  C        0.6450590    -0.1245570     0.0566130
  H       -0.8366380    -0.2608540     1.5463680
  H       -0.7457930    -1.6486690     0.4487620
  H       -1.7160630    -0.2005380    -1.4014460
  H       -2.8039020    -0.2761050    -0.0088100
  H       -1.7996360     1.1613730    -0.2701860
units angstrom
no_reorient  #important for SAPT in psi4, default
symmetry c1  #important for SAPT in psi4, default
}

set PROPERTIES_ORIGIN ["COM"]
properties('MP2/aug-cc-pvtz', properties = ['dipole'])
--------------------------------------------------------------------------

    Molecular point group: c1
  Charge       = 0
  Multiplicity = 1
  Basis Set: AUG-CC-PVTZ
    Blend: AUG-CC-PVTZ
  Basis Set: (AUG-CC-PVTZ AUX)
    Blend: AUG-CC-PVTZ-JKFIT

    Orbital Energies [Eh]
    ---------------------

    Doubly Occupied:

       1A    -26.322873     2A    -20.578798     3A    -11.424311
       4A    -11.274290     5A    -11.248914     6A     -1.641341
       7A     -1.416773     8A     -1.091530     9A     -0.926392
      10A     -0.831334    11A     -0.731944    12A     -0.715891
      13A     -0.703121    14A     -0.641774    15A     -0.617473
      16A     -0.579549    17A     -0.554636    18A     -0.533578
      19A     -0.516036    20A     -0.480253

  @DF-RHF Final Energy:  -290.94274448311950

   => Energetics <=

    Nuclear Repulsion Energy =            175.7290158647358282
    One-Electron Energy =                -747.6819006438364568
    Two-Electron Energy =                 281.0101402959811026
    Total Energy =                       -290.9427444831194975
  Basis Set: (AUG-CC-PVTZ AUX)
    Blend: AUG-CC-PVTZ-RI
    Molecular point group: c1

    Geometry (in Angstrom), charge = 0, multiplicity = 1:

       Center              X                  Y                   Z               Mass
    ------------   -----------------  -----------------  -----------------  -----------------
         F            0.700420054550     1.204799459050     0.078234997634    18.998403162730
         O            1.439787254550    -0.819471340950    -0.294768102366    15.994914619570
         C           -0.855116745450    -0.588650340950     0.509369897634    12.000000000000
         C           -1.962220745450     0.043691659050    -0.338630102366    12.000000000000
         C            0.509786254550    -0.154683340950     0.067356897634    12.000000000000
         H           -0.971910745450    -0.290980340950     1.557111897634     1.007825032230
         H           -0.881065745450    -1.678795340950     0.459505897634     1.007825032230
         H           -1.851335745450    -0.230664340950    -1.390702102366     1.007825032230
         H           -2.939174745450    -0.306231340950     0.001933897634     1.007825032230
         H           -1.934908745450     1.131246659050    -0.259442102366     1.007825032230

  Basis Set: AUG-CC-PVTZ
    Blend: AUG-CC-PVTZ
  Basis Set: (AUG-CC-PVTZ AUX)
    Blend: AUG-CC-PVTZ-JKFIT
	 Reference Energy          =    -290.9427444831194975 [Eh]
	 Singles Energy            =      -0.0000000000000000 [Eh]
	 Same-Spin Energy          =      -0.2616351975140270 [Eh]
	 Opposite-Spin Energy      =      -0.8275356048717475 [Eh]
	 Correlation Energy        =      -1.0891708023857745 [Eh]
	 Total Energy              =    -292.0319152855052494 [Eh]

	 ================> DF-SCS-MP2 Energies <==================
	-----------------------------------------------------------
	 SCS Same-Spin Scale       =       0.3333333333333333 [-]
	 SCS Opposite-Spin Scale   =       1.2000000000000000 [-]
	 SCS Same-Spin Energy      =      -0.0872117325046757 [Eh]
	 SCS Opposite-Spin Energy  =      -0.9930427258460970 [Eh]
	 SCS Correlation Energy    =      -1.0802544583507727 [Eh]
	 SCS Total Energy          =    -292.0229989414702914 [Eh]
	-----------------------------------------------------------

  Dipole Moment: [D]
     X:    -3.1326      Y:    -0.4004      Z:     0.8722     Total:     3.2763

*** Psi4 exiting successfully. Buy a developer a beer!
