                               Psi4 1.4a3.dev225

  ==> Input File <==

--------------------------------------------------------------------------
#psi4
#
memory 32 gb

molecule  {
0 1
  F        0.7457770     1.2438890     0.0993500
  O        1.5749420    -0.7893990    -0.3055700
  C       -0.7198600    -0.5584570     0.4987450
  C       -1.8268110     0.0738080    -0.3494590
  C        0.5995093    -0.1390282     0.0714313
  H       -0.8367390    -0.2606700     1.5464390
  H       -0.7458570    -1.6486110     0.4490110
  H       -1.7161610    -0.2011590    -1.4014030
  H       -2.8038590    -0.2755580    -0.0085930
  H       -1.7991210     1.1614070    -0.2708750
units angstrom
no_reorient  #important for SAPT in psi4, default
symmetry c1  #important for SAPT in psi4, default
}

set PROPERTIES_ORIGIN ["COM"]
properties('MP2/aug-cc-pvtz', properties = ['dipole'])
--------------------------------------------------------------------------

    Molecular point group: c1
  Charge       = 0
  Multiplicity = 1
  Basis Set: AUG-CC-PVTZ
    Blend: AUG-CC-PVTZ
  Basis Set: (AUG-CC-PVTZ AUX)
    Blend: AUG-CC-PVTZ-JKFIT

    Orbital Energies [Eh]
    ---------------------

    Doubly Occupied:

       1A    -26.321804     2A    -20.582073     3A    -11.431266
       4A    -11.272675     5A    -11.251308     6A     -1.633929
       7A     -1.398297     8A     -1.104291     9A     -0.935570
      10A     -0.826957    11A     -0.729451    12A     -0.715281
      13A     -0.698174    14A     -0.641445    15A     -0.617446
      16A     -0.580805    17A     -0.555730    18A     -0.535314
      19A     -0.508504    20A     -0.483733

  @DF-RHF Final Energy:  -290.93449596049038

   => Energetics <=

    Nuclear Repulsion Energy =            175.9103486257579902
    One-Electron Energy =                -748.0415765930932821
    Two-Electron Energy =                 281.1967320068448544
    Total Energy =                       -290.9344959604903806
  Basis Set: (AUG-CC-PVTZ AUX)
    Blend: AUG-CC-PVTZ-RI
    Molecular point group: c1

    Geometry (in Angstrom), charge = 0, multiplicity = 1:

       Center              X                  Y                   Z               Mass
    ------------   -----------------  -----------------  -----------------  -----------------
         F            0.640162529667     1.213806641032     0.099802787178    18.998403162730
         O            1.469327529667    -0.819481358968    -0.305117212822    15.994914619570
         C           -0.825474470333    -0.588539358968     0.499197787178    12.000000000000
         C           -1.932425470333     0.043725641032    -0.349006212822    12.000000000000
         C            0.493894829667    -0.169110558968     0.071884087178    12.000000000000
         H           -0.942353470333    -0.290752358968     1.546891787178     1.007825032230
         H           -0.851471470333    -1.678693358968     0.449463787178     1.007825032230
         H           -1.821775470333    -0.231241358968    -1.400950212822     1.007825032230
         H           -2.909473470333    -0.305640358968    -0.008140212822     1.007825032230
         H           -1.904735470333     1.131324641032    -0.270422212822     1.007825032230

  Basis Set: AUG-CC-PVTZ
    Blend: AUG-CC-PVTZ
  Basis Set: (AUG-CC-PVTZ AUX)
    Blend: AUG-CC-PVTZ-JKFIT
	 Reference Energy          =    -290.9344959604903806 [Eh]
	 Singles Energy            =      -0.0000000000000000 [Eh]
	 Same-Spin Energy          =      -0.2633971294893026 [Eh]
	 Opposite-Spin Energy      =      -0.8309584852970071 [Eh]
	 Correlation Energy        =      -1.0943556147863096 [Eh]
	 Total Energy              =    -292.0288515752766898 [Eh]

	 ================> DF-SCS-MP2 Energies <==================
	-----------------------------------------------------------
	 SCS Same-Spin Scale       =       0.3333333333333333 [-]
	 SCS Opposite-Spin Scale   =       1.2000000000000000 [-]
	 SCS Same-Spin Energy      =      -0.0877990431631009 [Eh]
	 SCS Opposite-Spin Energy  =      -0.9971501823564085 [Eh]
	 SCS Correlation Energy    =      -1.0849492255195095 [Eh]
	 SCS Total Energy          =    -292.0194451860098752 [Eh]
	-----------------------------------------------------------

  Dipole Moment: [D]
     X:    -3.2484      Y:    -0.4693      Z:     0.8982     Total:     3.4028

*** Psi4 exiting successfully. Buy a developer a beer!
