                               Psi4 1.3.2 release

  ==> Input File <==

--------------------------------------------------------------------------
#psi4
#
memory 32 gb

molecule  {
0 1
  F        0.7457720     1.2439030     0.0993580
  O        1.5750600    -0.7893450    -0.3055120
  C       -0.7198440    -0.5585240     0.4986260
  C       -1.8269480     0.0738180    -0.3493740
  C        0.6306966    -0.0748223     0.0641886
  H       -0.8366380    -0.2608540     1.5463680
  H       -0.7457930    -1.6486690     0.4487620
  H       -1.7160630    -0.2005380    -1.4014460
  H       -2.8039020    -0.2761050    -0.0088100
  H       -1.7996360     1.1613730    -0.2701860
units angstrom
no_reorient  #important for SAPT in psi4, default
symmetry c1  #important for SAPT in psi4, default
}

set PROPERTIES_ORIGIN ["COM"]
properties('MP2/aug-cc-pvtz', properties = ['dipole'])
--------------------------------------------------------------------------

    Molecular point group: c1
  Charge       = 0
  Multiplicity = 1
  Basis Set: AUG-CC-PVTZ
    Blend: AUG-CC-PVTZ
  Basis Set: (AUG-CC-PVTZ AUX)
    Blend: AUG-CC-PVTZ-JKFIT

    Orbital Energies [Eh]
    ---------------------

    Doubly Occupied:

       1A    -26.348051     2A    -20.573824     3A    -11.430322
       4A    -11.269783     5A    -11.247472     6A     -1.678449
       7A     -1.387906     8A     -1.090393     9A     -0.929201
      10A     -0.851426    11A     -0.750433    12A     -0.735612
      13A     -0.704563    14A     -0.639199    15A     -0.616362
      16A     -0.573812    17A     -0.550413    18A     -0.532518
      19A     -0.502539    20A     -0.473258

  @DF-RHF Final Energy:  -290.93760996596751

   => Energetics <=

    Nuclear Repulsion Energy =            176.1853280675057647
    One-Electron Energy =                -748.4748088427098764
    Two-Electron Energy =                 281.3518708092365728
    Total Energy =                       -290.9376099659675106
  Basis Set: (AUG-CC-PVTZ AUX)
    Blend: AUG-CC-PVTZ-RI
    Molecular point group: c1

    Geometry (in Angstrom), charge = 0, multiplicity = 1:

       Center              X                  Y                   Z               Mass
    ------------   -----------------  -----------------  -----------------  -----------------
         F            0.635234753481     1.203684008661     0.100943604321    18.998403162730
         O            1.464522753481    -0.829563991339    -0.303926395679    15.994914619570
         C           -0.830381246519    -0.598742991339     0.500211604321    12.000000000000
         C           -1.937485246519     0.033599008661    -0.347788395679    12.000000000000
         C            0.520159353481    -0.115041291339     0.065774204321    12.000000000000
         H           -0.947175246519    -0.301072991339     1.547953604321     1.007825032230
         H           -0.856330246519    -1.688887991339     0.450347604321     1.007825032230
         H           -1.826600246519    -0.240756991339    -1.399860395679     1.007825032230
         H           -2.914439246519    -0.316323991339    -0.007224395679     1.007825032230
         H           -1.910173246519     1.121154008661    -0.268600395679     1.007825032230

  Basis Set: AUG-CC-PVTZ
    Blend: AUG-CC-PVTZ
  Basis Set: (AUG-CC-PVTZ AUX)
    Blend: AUG-CC-PVTZ-JKFIT
	 Reference Energy          =    -290.9376099659675106 [Eh]
	 Singles Energy            =      -0.0000000000000000 [Eh]
	 Same-Spin Energy          =      -0.2623304206165710 [Eh]
	 Opposite-Spin Energy      =      -0.8286556987999473 [Eh]
	 Correlation Energy        =      -1.0909861194165182 [Eh]
	 Total Energy              =    -292.0285960853840379 [Eh]

	 ================> DF-SCS-MP2 Energies <==================
	-----------------------------------------------------------
	 SCS Same-Spin Scale       =       0.3333333333333333 [-]
	 SCS Opposite-Spin Scale   =       1.2000000000000000 [-]
	 SCS Same-Spin Energy      =      -0.0874434735388570 [Eh]
	 SCS Opposite-Spin Energy  =      -0.9943868385599367 [Eh]
	 SCS Correlation Energy    =      -1.0818303120987938 [Eh]
	 SCS Total Energy          =    -292.0194402780663268 [Eh]
	-----------------------------------------------------------

  Dipole Moment: [D]
     X:    -3.0615      Y:     0.0283      Z:     0.8890     Total:     3.1881

*** Psi4 exiting successfully. Buy a developer a beer!
