                               Psi4 1.3.2 release

  ==> Input File <==

--------------------------------------------------------------------------
#psi4
#
memory 32 gb

molecule  {
0 1
  F        0.7231495     1.2451145     0.1071580
  O        1.5750600    -0.7893450    -0.3055120
  C       -0.7198440    -0.5585240     0.4986260
  C       -1.8269480     0.0738180    -0.3493740
  C        0.6450590    -0.1245570     0.0566130
  H       -0.8366380    -0.2608540     1.5463680
  H       -0.7457930    -1.6486690     0.4487620
  H       -1.7160630    -0.2005380    -1.4014460
  H       -2.8039020    -0.2761050    -0.0088100
  H       -1.7996360     1.1613730    -0.2701860
units angstrom
no_reorient  #important for SAPT in psi4, default
symmetry c1  #important for SAPT in psi4, default
}

set PROPERTIES_ORIGIN ["COM"]
properties('MP2/aug-cc-pvtz', properties = ['dipole'])
--------------------------------------------------------------------------

    Molecular point group: c1
  Charge       = 0
  Multiplicity = 1
  Basis Set: AUG-CC-PVTZ
    Blend: AUG-CC-PVTZ
  Basis Set: (AUG-CC-PVTZ AUX)
    Blend: AUG-CC-PVTZ-JKFIT

    Orbital Energies [Eh]
    ---------------------

    Doubly Occupied:

       1A    -26.326676     2A    -20.584753     3A    -11.426920
       4A    -11.269571     5A    -11.246537     6A     -1.644530
       7A     -1.422010     8A     -1.089077     9A     -0.926074
      10A     -0.832141    11A     -0.733519    12A     -0.719852
      13A     -0.705605    14A     -0.642414    15A     -0.612846
      16A     -0.580638    17A     -0.555091    18A     -0.530353
      19A     -0.518639    20A     -0.481331

  @DF-RHF Final Energy:  -290.94290085692978

   => Energetics <=

    Nuclear Repulsion Energy =            176.1686728761770553
    One-Electron Energy =                -748.5259916207555762
    Two-Electron Energy =                 281.4144178876487103
    Total Energy =                       -290.9429008569297821
  Basis Set: (AUG-CC-PVTZ AUX)
    Blend: AUG-CC-PVTZ-RI
    Molecular point group: c1

    Geometry (in Angstrom), charge = 0, multiplicity = 1:

       Center              X                  Y                   Z               Mass
    ------------   -----------------  -----------------  -----------------  -----------------
         F            0.615998210391     1.212442284910     0.107990237173    18.998403162730
         O            1.467908710391    -0.822017215090    -0.304679762827    15.994914619570
         C           -0.826995289609    -0.591196215090     0.499458237173    12.000000000000
         C           -1.934099289609     0.041145784910    -0.348541762827    12.000000000000
         C            0.537907710391    -0.157229215090     0.057445237173    12.000000000000
         H           -0.943789289609    -0.293526215090     1.547200237173     1.007825032230
         H           -0.852944289609    -1.681341215090     0.449594237173     1.007825032230
         H           -1.823214289609    -0.233210215090    -1.400613762827     1.007825032230
         H           -2.911053289609    -0.308777215090    -0.007977762827     1.007825032230
         H           -1.906787289609     1.128700784910    -0.269353762827     1.007825032230

  Basis Set: AUG-CC-PVTZ
    Blend: AUG-CC-PVTZ
  Basis Set: (AUG-CC-PVTZ AUX)
    Blend: AUG-CC-PVTZ-JKFIT
	 Reference Energy          =    -290.9429008569297821 [Eh]
	 Singles Energy            =      -0.0000000000000000 [Eh]
	 Same-Spin Energy          =      -0.2619561711738428 [Eh]
	 Opposite-Spin Energy      =      -0.8280531357005660 [Eh]
	 Correlation Energy        =      -1.0900093068744088 [Eh]
	 Total Energy              =    -292.0329101638042175 [Eh]

	 ================> DF-SCS-MP2 Energies <==================
	-----------------------------------------------------------
	 SCS Same-Spin Scale       =       0.3333333333333333 [-]
	 SCS Opposite-Spin Scale   =       1.2000000000000000 [-]
	 SCS Same-Spin Energy      =      -0.0873187237246143 [Eh]
	 SCS Opposite-Spin Energy  =      -0.9936637628406793 [Eh]
	 SCS Correlation Energy    =      -1.0809824865652935 [Eh]
	 SCS Total Energy          =    -292.0238833434950720 [Eh]
	-----------------------------------------------------------

  Dipole Moment: [D]
     X:    -2.9065      Y:    -0.3830      Z:     0.8102     Total:     3.0415

*** Psi4 exiting successfully. Buy a developer a beer!
