                               Psi4 1.3.2 release

  ==> Input File <==

--------------------------------------------------------------------------
#psi4
#
memory 32 gb

molecule  {
0 1
  F        0.7909180     1.2402299     0.0837213
  O        1.5750600    -0.7893450    -0.3055120
  C       -0.7198440    -0.5585240     0.4986260
  C       -1.8269480     0.0738180    -0.3493740
  C        0.6450590    -0.1245570     0.0566130
  H       -0.8366380    -0.2608540     1.5463680
  H       -0.7457930    -1.6486690     0.4487620
  H       -1.7160630    -0.2005380    -1.4014460
  H       -2.8039020    -0.2761050    -0.0088100
  H       -1.7996360     1.1613730    -0.2701860
units angstrom
no_reorient  #important for SAPT in psi4, default
symmetry c1  #important for SAPT in psi4, default
}

set PROPERTIES_ORIGIN ["COM"]
properties('MP2/aug-cc-pvtz', properties = ['dipole'])
--------------------------------------------------------------------------

    Molecular point group: c1
  Charge       = 0
  Multiplicity = 1
  Basis Set: AUG-CC-PVTZ
    Blend: AUG-CC-PVTZ
  Basis Set: (AUG-CC-PVTZ AUX)
    Blend: AUG-CC-PVTZ-JKFIT

    Orbital Energies [Eh]
    ---------------------

    Doubly Occupied:

       1A    -26.324496     2A    -20.581206     3A    -11.425352
       4A    -11.272424     5A    -11.247989     6A     -1.642587
       7A     -1.418915     8A     -1.090563     9A     -0.926235
      10A     -0.831744    11A     -0.732453    12A     -0.717515
      13A     -0.704185    14A     -0.641953    15A     -0.615774
      16A     -0.580046    17A     -0.554787    18A     -0.532322
      19A     -0.517199    20A     -0.480847

  @DF-RHF Final Energy:  -290.94336456122869

   => Energetics <=

    Nuclear Repulsion Energy =            175.8862528858234953
    One-Electron Energy =                -747.9820489683514779
    Two-Electron Energy =                 281.1524315212992633
    Total Energy =                       -290.9433645612286909
  Basis Set: (AUG-CC-PVTZ AUX)
    Blend: AUG-CC-PVTZ-RI
    Molecular point group: c1

    Geometry (in Angstrom), charge = 0, multiplicity = 1:

       Center              X                  Y                   Z               Mass
    ------------   -----------------  -----------------  -----------------  -----------------
         F            0.666833237851     1.208778211260     0.090409719852    18.998403162730
         O            1.450975237851    -0.820796688740    -0.298823580148    15.994914619570
         C           -0.843928762149    -0.589975688740     0.505314419852    12.000000000000
         C           -1.951032762149     0.042366311260    -0.342685580148    12.000000000000
         C            0.520974237851    -0.156008688740     0.063301419852    12.000000000000
         H           -0.960722762149    -0.292305688740     1.553056419852     1.007825032230
         H           -0.869877762149    -1.680120688740     0.455450419852     1.007825032230
         H           -1.840147762149    -0.231989688740    -1.394757580148     1.007825032230
         H           -2.927986762149    -0.307556688740    -0.002121580148     1.007825032230
         H           -1.923720762149     1.129921311260    -0.263497580148     1.007825032230

  Basis Set: AUG-CC-PVTZ
    Blend: AUG-CC-PVTZ
  Basis Set: (AUG-CC-PVTZ AUX)
    Blend: AUG-CC-PVTZ-JKFIT
	 Reference Energy          =    -290.9433645612286909 [Eh]
	 Singles Energy            =      -0.0000000000000000 [Eh]
	 Same-Spin Energy          =      -0.2617465133107980 [Eh]
	 Opposite-Spin Energy      =      -0.8277074303212795 [Eh]
	 Correlation Energy        =      -1.0894539436320774 [Eh]
	 Total Energy              =    -292.0328185048607565 [Eh]

	 ================> DF-SCS-MP2 Energies <==================
	-----------------------------------------------------------
	 SCS Same-Spin Scale       =       0.3333333333333333 [-]
	 SCS Opposite-Spin Scale   =       1.2000000000000000 [-]
	 SCS Same-Spin Energy      =      -0.0872488377702660 [Eh]
	 SCS Opposite-Spin Energy  =      -0.9932489163855354 [Eh]
	 SCS Correlation Energy    =      -1.0804977541558014 [Eh]
	 SCS Total Energy          =    -292.0238623153845197 [Eh]
	-----------------------------------------------------------

  Dipole Moment: [D]
     X:    -3.0433      Y:    -0.3956      Z:     0.8471     Total:     3.1836

*** Psi4 exiting successfully. Buy a developer a beer!
