                               Psi4 1.3.2 release

  ==> Input File <==

--------------------------------------------------------------------------
#psi4
#
memory 32 gb

molecule  {
0 1
  F        0.7457720     1.2439030     0.0993580
  O        1.5750600    -0.7893450    -0.3055120
  C       -0.7198440    -0.5585240     0.4986260
  C       -1.8269480     0.0738180    -0.3493740
  C        0.6516176    -0.1496264     0.0530266
  H       -0.8366380    -0.2608540     1.5463680
  H       -0.7457930    -1.6486690     0.4487620
  H       -1.7160630    -0.2005380    -1.4014460
  H       -2.8039020    -0.2761050    -0.0088100
  H       -1.7996360     1.1613730    -0.2701860
units angstrom
no_reorient  #important for SAPT in psi4, default
symmetry c1  #important for SAPT in psi4, default
}

set PROPERTIES_ORIGIN ["COM"]
properties('MP2/aug-cc-pvtz', properties = ['dipole'])
--------------------------------------------------------------------------

    Molecular point group: c1
  Charge       = 0
  Multiplicity = 1
  Basis Set: AUG-CC-PVTZ
    Blend: AUG-CC-PVTZ
  Basis Set: (AUG-CC-PVTZ AUX)
    Blend: AUG-CC-PVTZ-JKFIT

    Orbital Energies [Eh]
    ---------------------

    Doubly Occupied:

       1A    -26.314509     2A    -20.588423     3A    -11.424457
       4A    -11.271207     5A    -11.246904     6A     -1.627477
       7A     -1.437444     8A     -1.089378     9A     -0.925274
      10A     -0.823018    11A     -0.726041    12A     -0.718053
      13A     -0.699833    14A     -0.644008    15A     -0.610754
      16A     -0.583082    17A     -0.558444    18A     -0.531060
      19A     -0.523624    20A     -0.484459

  @DF-RHF Final Energy:  -290.94345183982057

   => Energetics <=

    Nuclear Repulsion Energy =            176.0314349105817371
    One-Electron Energy =                -748.2948775431233344
    Two-Electron Energy =                 281.3199907927210006
    Total Energy =                       -290.9434518398205682
  Basis Set: (AUG-CC-PVTZ AUX)
    Blend: AUG-CC-PVTZ-RI
    Molecular point group: c1

    Geometry (in Angstrom), charge = 0, multiplicity = 1:

       Center              X                  Y                   Z               Mass
    ------------   -----------------  -----------------  -----------------  -----------------
         F            0.631932847212     1.215490142533     0.102705273351    18.998403162730
         O            1.461220847212    -0.817757857467    -0.302164726649    15.994914619570
         C           -0.833683152788    -0.586936857467     0.501973273351    12.000000000000
         C           -1.940787152788     0.045405142533    -0.346026726649    12.000000000000
         C            0.537778447212    -0.178039257467     0.056373873351    12.000000000000
         H           -0.950477152788    -0.289266857467     1.549715273351     1.007825032230
         H           -0.859632152788    -1.677081857467     0.452109273351     1.007825032230
         H           -1.829902152788    -0.228950857467    -1.398098726649     1.007825032230
         H           -2.917741152788    -0.304517857467    -0.005462726649     1.007825032230
         H           -1.913475152788     1.132960142533    -0.266838726649     1.007825032230

  Basis Set: AUG-CC-PVTZ
    Blend: AUG-CC-PVTZ
  Basis Set: (AUG-CC-PVTZ AUX)
    Blend: AUG-CC-PVTZ-JKFIT
	 Reference Energy          =    -290.9434518398205682 [Eh]
	 Singles Energy            =      -0.0000000000000000 [Eh]
	 Same-Spin Energy          =      -0.2617058573272996 [Eh]
	 Opposite-Spin Energy      =      -0.8276434904648908 [Eh]
	 Correlation Energy        =      -1.0893493477921905 [Eh]
	 Total Energy              =    -292.0328011876127334 [Eh]

	 ================> DF-SCS-MP2 Energies <==================
	-----------------------------------------------------------
	 SCS Same-Spin Scale       =       0.3333333333333333 [-]
	 SCS Opposite-Spin Scale   =       1.2000000000000000 [-]
	 SCS Same-Spin Energy      =      -0.0872352857757665 [Eh]
	 SCS Opposite-Spin Energy  =      -0.9931721885578689 [Eh]
	 SCS Correlation Energy    =      -1.0804074743336354 [Eh]
	 SCS Total Energy          =    -292.0238593141542083 [Eh]
	-----------------------------------------------------------

  Dipole Moment: [D]
     X:    -2.9006      Y:    -0.6052      Z:     0.7892     Total:     3.0664

*** Psi4 exiting successfully. Buy a developer a beer!
