                               Psi4 1.3.2 release

  ==> Input File <==

--------------------------------------------------------------------------
#psi4
#
memory 32 gb

molecule  {
0 1
  F        0.7231980     1.2451066     0.1072982
  O        1.5750600    -0.7893450    -0.3055120
  C       -0.7198440    -0.5585240     0.4986260
  C       -1.8269480     0.0738180    -0.3493740
  C        0.6450590    -0.1245570     0.0566130
  H       -0.8366380    -0.2608540     1.5463680
  H       -0.7457930    -1.6486690     0.4487620
  H       -1.7160630    -0.2005380    -1.4014460
  H       -2.8039020    -0.2761050    -0.0088100
  H       -1.7996360     1.1613730    -0.2701860
units angstrom
no_reorient  #important for SAPT in psi4, default
symmetry c1  #important for SAPT in psi4, default
}

set PROPERTIES_ORIGIN ["COM"]
properties('MP2/aug-cc-pvtz', properties = ['dipole'])
--------------------------------------------------------------------------

    Molecular point group: c1
  Charge       = 0
  Multiplicity = 1
  Basis Set: AUG-CC-PVTZ
    Blend: AUG-CC-PVTZ
  Basis Set: (AUG-CC-PVTZ AUX)
    Blend: AUG-CC-PVTZ-JKFIT

    Orbital Energies [Eh]
    ---------------------

    Doubly Occupied:

       1A    -26.326676     2A    -20.584753     3A    -11.426920
       4A    -11.269571     5A    -11.246538     6A     -1.644530
       7A     -1.422010     8A     -1.089077     9A     -0.926074
      10A     -0.832140    11A     -0.733518    12A     -0.719852
      13A     -0.705605    14A     -0.642414    15A     -0.612848
      16A     -0.580639    17A     -0.555092    18A     -0.530352
      19A     -0.518640    20A     -0.481331

  @DF-RHF Final Energy:  -290.94290114915424

   => Energetics <=

    Nuclear Repulsion Energy =            176.1683734981982923
    One-Electron Energy =                -748.5253881438685539
    Two-Electron Energy =                 281.4141134965159949
    Total Energy =                       -290.9429011491542383
  Basis Set: (AUG-CC-PVTZ AUX)
    Blend: AUG-CC-PVTZ-RI
    Molecular point group: c1

    Geometry (in Angstrom), charge = 0, multiplicity = 1:

       Center              X                  Y                   Z               Mass
    ------------   -----------------  -----------------  -----------------  -----------------
         F            0.616034591583     1.212436358901     0.108095405074    18.998403162730
         O            1.467896591583    -0.822015241099    -0.304714794926    15.994914619570
         C           -0.827007408417    -0.591194241099     0.499423205074    12.000000000000
         C           -1.934111408417     0.041147758901    -0.348576794926    12.000000000000
         C            0.537895591583    -0.157227241099     0.057410205074    12.000000000000
         H           -0.943801408417    -0.293524241099     1.547165205074     1.007825032230
         H           -0.852956408417    -1.681339241099     0.449559205074     1.007825032230
         H           -1.823226408417    -0.233208241099    -1.400648794926     1.007825032230
         H           -2.911065408417    -0.308775241099    -0.008012794926     1.007825032230
         H           -1.906799408417     1.128702758901    -0.269388794926     1.007825032230

  Basis Set: AUG-CC-PVTZ
    Blend: AUG-CC-PVTZ
  Basis Set: (AUG-CC-PVTZ AUX)
    Blend: AUG-CC-PVTZ-JKFIT
	 Reference Energy          =    -290.9429011491542383 [Eh]
	 Singles Energy            =      -0.0000000000000000 [Eh]
	 Same-Spin Energy          =      -0.2619560893888133 [Eh]
	 Opposite-Spin Energy      =      -0.8280530802484660 [Eh]
	 Correlation Energy        =      -1.0900091696372793 [Eh]
	 Total Energy              =    -292.0329103187914939 [Eh]

	 ================> DF-SCS-MP2 Energies <==================
	-----------------------------------------------------------
	 SCS Same-Spin Scale       =       0.3333333333333333 [-]
	 SCS Opposite-Spin Scale   =       1.2000000000000000 [-]
	 SCS Same-Spin Energy      =      -0.0873186964629378 [Eh]
	 SCS Opposite-Spin Energy  =      -0.9936636962981592 [Eh]
	 SCS Correlation Energy    =      -1.0809823927610971 [Eh]
	 SCS Total Energy          =    -292.0238835419153247 [Eh]
	-----------------------------------------------------------

  Dipole Moment: [D]
     X:    -2.9065      Y:    -0.3830      Z:     0.8101     Total:     3.0415

*** Psi4 exiting successfully. Buy a developer a beer!
