                               Psi4 1.4a3.dev225

  ==> Input File <==

--------------------------------------------------------------------------
#psi4
#
memory 32 gb

molecule  {
0 1
  F        0.7457770     1.2438890     0.0993500
  O        1.5749420    -0.7893990    -0.3055700
  C       -0.7198600    -0.5584570     0.4987450
  C       -1.8268110     0.0738080    -0.3494590
  C        0.6295307    -0.1134654     0.0627269
  H       -0.8367390    -0.2606700     1.5464390
  H       -0.7458570    -1.6486110     0.4490110
  H       -1.7161610    -0.2011590    -1.4014030
  H       -2.8038590    -0.2755580    -0.0085930
  H       -1.7991210     1.1614070    -0.2708750
units angstrom
no_reorient  #important for SAPT in psi4, default
symmetry c1  #important for SAPT in psi4, default
}

set PROPERTIES_ORIGIN ["COM"]
properties('MP2/aug-cc-pvtz', properties = ['dipole'])
--------------------------------------------------------------------------

    Molecular point group: c1
  Charge       = 0
  Multiplicity = 1
  Basis Set: AUG-CC-PVTZ
    Blend: AUG-CC-PVTZ
  Basis Set: (AUG-CC-PVTZ AUX)
    Blend: AUG-CC-PVTZ-JKFIT

    Orbital Energies [Eh]
    ---------------------

    Doubly Occupied:

       1A    -26.331555     2A    -20.580329     3A    -11.428705
       4A    -11.270831     5A    -11.248190     6A     -1.651298
       7A     -1.405597     8A     -1.093295     9A     -0.929059
      10A     -0.836344    11A     -0.736777    12A     -0.721223
      13A     -0.704567    14A     -0.641094    15A     -0.616182
      16A     -0.578700    17A     -0.553509    18A     -0.532484
      19A     -0.511658    20A     -0.479962

  @DF-RHF Final Energy:  -290.94066816952289

   => Energetics <=

    Nuclear Repulsion Energy =            176.0582619984778887
    One-Electron Energy =                -748.2951436666838845
    Two-Electron Energy =                 281.2962134986831302
    Total Energy =                       -290.9406681695228940
  Basis Set: (AUG-CC-PVTZ AUX)
    Blend: AUG-CC-PVTZ-RI
    Molecular point group: c1

    Geometry (in Angstrom), charge = 0, multiplicity = 1:

       Center              X                  Y                   Z               Mass
    ------------   -----------------  -----------------  -----------------  -----------------
         F            0.635424331261     1.209772131707     0.101176579680    18.998403162730
         O            1.464589331261    -0.823515868293    -0.303743420320    15.994914619570
         C           -0.830212668739    -0.592573868293     0.500571579680    12.000000000000
         C           -1.937163668739     0.039691131707    -0.347632420320    12.000000000000
         C            0.519178031261    -0.147582268293     0.064553479680    12.000000000000
         H           -0.947091668739    -0.294786868293     1.548265579680     1.007825032230
         H           -0.856209668739    -1.682727868293     0.450837579680     1.007825032230
         H           -1.826513668739    -0.235275868293    -1.399576420320     1.007825032230
         H           -2.914211668739    -0.309674868293    -0.006766420320     1.007825032230
         H           -1.909473668739     1.127290131707    -0.269048420320     1.007825032230

  Basis Set: AUG-CC-PVTZ
    Blend: AUG-CC-PVTZ
  Basis Set: (AUG-CC-PVTZ AUX)
    Blend: AUG-CC-PVTZ-JKFIT
	 Reference Energy          =    -290.9406681695228940 [Eh]
	 Singles Energy            =      -0.0000000000000000 [Eh]
	 Same-Spin Energy          =      -0.2623525460387959 [Eh]
	 Opposite-Spin Energy      =      -0.8288259222860640 [Eh]
	 Correlation Energy        =      -1.0911784683248600 [Eh]
	 Total Energy              =    -292.0318466378477638 [Eh]

	 ================> DF-SCS-MP2 Energies <==================
	-----------------------------------------------------------
	 SCS Same-Spin Scale       =       0.3333333333333333 [-]
	 SCS Opposite-Spin Scale   =       1.2000000000000000 [-]
	 SCS Same-Spin Energy      =      -0.0874508486795986 [Eh]
	 SCS Opposite-Spin Energy  =      -0.9945911067432768 [Eh]
	 SCS Correlation Energy    =      -1.0820419554228753 [Eh]
	 SCS Total Energy          =    -292.0227101249457746 [Eh]
	-----------------------------------------------------------

  Dipole Moment: [D]
     X:    -3.0585      Y:    -0.2832      Z:     0.8617     Total:     3.1902

*** Psi4 exiting successfully. Buy a developer a beer!
