                               Psi4 1.3.2 release

  ==> Input File <==

--------------------------------------------------------------------------
#psi4
#
memory 32 gb

molecule  {
0 1
  F        0.7457720     1.2439030     0.0993580
  O        1.5275092    -0.8571632    -0.2934574
  C       -0.7198440    -0.5585240     0.4986260
  C       -1.8269480     0.0738180    -0.3493740
  C        0.6450590    -0.1245570     0.0566130
  H       -0.8366380    -0.2608540     1.5463680
  H       -0.7457930    -1.6486690     0.4487620
  H       -1.7160630    -0.2005380    -1.4014460
  H       -2.8039020    -0.2761050    -0.0088100
  H       -1.7996360     1.1613730    -0.2701860
units angstrom
no_reorient  #important for SAPT in psi4, default
symmetry c1  #important for SAPT in psi4, default
}

set PROPERTIES_ORIGIN ["COM"]
properties('MP2/aug-cc-pvtz', properties = ['dipole'])
--------------------------------------------------------------------------

    Molecular point group: c1
  Charge       = 0
  Multiplicity = 1
  Basis Set: AUG-CC-PVTZ
    Blend: AUG-CC-PVTZ
  Basis Set: (AUG-CC-PVTZ AUX)
    Blend: AUG-CC-PVTZ-JKFIT

    Orbital Energies [Eh]
    ---------------------

    Doubly Occupied:

       1A    -26.332650     2A    -20.585319     3A    -11.427634
       4A    -11.266348     5A    -11.245025     6A     -1.647878
       7A     -1.424234     8A     -1.086512     9A     -0.924559
      10A     -0.834542    11A     -0.734701    12A     -0.722100
      13A     -0.707922    14A     -0.641720    15A     -0.614159
      16A     -0.581302    17A     -0.554942    18A     -0.529511
      19A     -0.517744    20A     -0.478458

  @DF-RHF Final Energy:  -290.94133608862762

   => Energetics <=

    Nuclear Repulsion Energy =            176.0616616980868514
    One-Electron Energy =                -748.2914811143476754
    Two-Electron Energy =                 281.2884833276332301
    Total Energy =                       -290.9413360886276223
  Basis Set: (AUG-CC-PVTZ AUX)
    Blend: AUG-CC-PVTZ-RI
    Molecular point group: c1

    Geometry (in Angstrom), charge = 0, multiplicity = 1:

       Center              X                  Y                   Z               Mass
    ------------   -----------------  -----------------  -----------------  -----------------
         F            0.642971216540     1.225800392846     0.099603319913    18.998403162730
         O            1.424708416540    -0.875265807154    -0.293212080087    15.994914619570
         C           -0.822644783460    -0.576626607154     0.498871319913    12.000000000000
         C           -1.929748783460     0.055715392846    -0.349128680087    12.000000000000
         C            0.542258216540    -0.142659607154     0.056858319913    12.000000000000
         H           -0.939438783460    -0.278956607154     1.546613319913     1.007825032230
         H           -0.848593783460    -1.666771607154     0.449007319913     1.007825032230
         H           -1.818863783460    -0.218640607154    -1.401200680087     1.007825032230
         H           -2.906702783460    -0.294207607154    -0.008564680087     1.007825032230
         H           -1.902436783460     1.143270392846    -0.269940680087     1.007825032230

  Basis Set: AUG-CC-PVTZ
    Blend: AUG-CC-PVTZ
  Basis Set: (AUG-CC-PVTZ AUX)
    Blend: AUG-CC-PVTZ-JKFIT
	 Reference Energy          =    -290.9413360886276223 [Eh]
	 Singles Energy            =      -0.0000000000000000 [Eh]
	 Same-Spin Energy          =      -0.2620152481413204 [Eh]
	 Opposite-Spin Energy      =      -0.8282689847811049 [Eh]
	 Correlation Energy        =      -1.0902842329224254 [Eh]
	 Total Energy              =    -292.0316203215500650 [Eh]

	 ================> DF-SCS-MP2 Energies <==================
	-----------------------------------------------------------
	 SCS Same-Spin Scale       =       0.3333333333333333 [-]
	 SCS Opposite-Spin Scale   =       1.2000000000000000 [-]
	 SCS Same-Spin Energy      =      -0.0873384160471068 [Eh]
	 SCS Opposite-Spin Energy  =      -0.9939227817373258 [Eh]
	 SCS Correlation Energy    =      -1.0812611977844326 [Eh]
	 SCS Total Energy          =    -292.0225972864120649 [Eh]
	-----------------------------------------------------------

  Dipole Moment: [D]
     X:    -2.7870      Y:    -0.2538      Z:     0.7881     Total:     2.9074

*** Psi4 exiting successfully. Buy a developer a beer!
