                               Psi4 1.3.2 release

  ==> Input File <==

--------------------------------------------------------------------------
#psi4
#
memory 32 gb

molecule  {
0 1
  F        0.7683638     1.2422746     0.0915450
  O        1.5750600    -0.7893450    -0.3055120
  C       -0.7198440    -0.5585240     0.4986260
  C       -1.8269480     0.0738180    -0.3493740
  C        0.6450590    -0.1245570     0.0566130
  H       -0.8366380    -0.2608540     1.5463680
  H       -0.7457930    -1.6486690     0.4487620
  H       -1.7160630    -0.2005380    -1.4014460
  H       -2.8039020    -0.2761050    -0.0088100
  H       -1.7996360     1.1613730    -0.2701860
units angstrom
no_reorient  #important for SAPT in psi4, default
symmetry c1  #important for SAPT in psi4, default
}

set PROPERTIES_ORIGIN ["COM"]
properties('MP2/aug-cc-pvtz', properties = ['dipole'])
--------------------------------------------------------------------------

    Molecular point group: c1
  Charge       = 0
  Multiplicity = 1
  Basis Set: AUG-CC-PVTZ
    Blend: AUG-CC-PVTZ
  Basis Set: (AUG-CC-PVTZ AUX)
    Blend: AUG-CC-PVTZ-JKFIT

    Orbital Energies [Eh]
    ---------------------

    Doubly Occupied:

       1A    -26.325256     2A    -20.582397     3A    -11.425873
       4A    -11.271480     5A    -11.247514     6A     -1.643225
       7A     -1.419962     8A     -1.090072     9A     -0.926171
      10A     -0.831905    11A     -0.732767    12A     -0.718309
      13A     -0.704680    14A     -0.642082    15A     -0.614846
      16A     -0.580266    17A     -0.554877    18A     -0.531676
      19A     -0.517721    20A     -0.481061

  @DF-RHF Final Energy:  -290.94339612475909

   => Energetics <=

    Nuclear Repulsion Energy =            175.9743764674040278
    One-Electron Energy =                -748.1512622705550939
    Two-Electron Energy =                 281.2334896783920044
    Total Energy =                       -290.9433961247590901
  Basis Set: (AUG-CC-PVTZ AUX)
    Blend: AUG-CC-PVTZ-RI
    Molecular point group: c1

    Geometry (in Angstrom), charge = 0, multiplicity = 1:

       Center              X                  Y                   Z               Mass
    ------------   -----------------  -----------------  -----------------  -----------------
         F            0.649914708204     1.210311997321     0.096278493757    18.998403162730
         O            1.456610908204    -0.821307602679    -0.300778506243    15.994914619570
         C           -0.838293091796    -0.590486602679     0.503359493757    12.000000000000
         C           -1.945397091796     0.041855397321    -0.344640506243    12.000000000000
         C            0.526609908204    -0.156519602679     0.061346493757    12.000000000000
         H           -0.955087091796    -0.292816602679     1.551101493757     1.007825032230
         H           -0.864242091796    -1.680631602679     0.453495493757     1.007825032230
         H           -1.834512091796    -0.232500602679    -1.396712506243     1.007825032230
         H           -2.922351091796    -0.308067602679    -0.004076506243     1.007825032230
         H           -1.918085091796     1.129410397321    -0.265452506243     1.007825032230

  Basis Set: AUG-CC-PVTZ
    Blend: AUG-CC-PVTZ
  Basis Set: (AUG-CC-PVTZ AUX)
    Blend: AUG-CC-PVTZ-JKFIT
	 Reference Energy          =    -290.9433961247590901 [Eh]
	 Singles Energy            =      -0.0000000000000000 [Eh]
	 Same-Spin Energy          =      -0.2618107157152125 [Eh]
	 Opposite-Spin Energy      =      -0.8278110061979612 [Eh]
	 Correlation Energy        =      -1.0896217219131739 [Eh]
	 Total Energy              =    -292.0330178466722373 [Eh]

	 ================> DF-SCS-MP2 Energies <==================
	-----------------------------------------------------------
	 SCS Same-Spin Scale       =       0.3333333333333333 [-]
	 SCS Opposite-Spin Scale   =       1.2000000000000000 [-]
	 SCS Same-Spin Energy      =      -0.0872702385717375 [Eh]
	 SCS Opposite-Spin Energy  =      -0.9933732074375534 [Eh]
	 SCS Correlation Energy    =      -1.0806434460092909 [Eh]
	 SCS Total Energy          =    -292.0240395707683660 [Eh]
	-----------------------------------------------------------

  Dipole Moment: [D]
     X:    -2.9980      Y:    -0.3921      Z:     0.8348     Total:     3.1366

*** Psi4 exiting successfully. Buy a developer a beer!
