                               Psi4 1.3.2 release

  ==> Input File <==

--------------------------------------------------------------------------
#psi4
#
memory 32 gb

molecule  {
0 1
  F        0.7457720     1.2439030     0.0993580
  O        1.5750600    -0.7893450    -0.3055120
  C       -0.7198440    -0.5585240     0.4986260
  C       -1.8269480     0.0738180    -0.3493740
  C        0.5970550     0.0228194     0.0809179
  H       -0.8366380    -0.2608540     1.5463680
  H       -0.7457930    -1.6486690     0.4487620
  H       -1.7160630    -0.2005380    -1.4014460
  H       -2.8039020    -0.2761050    -0.0088100
  H       -1.7996360     1.1613730    -0.2701860
units angstrom
no_reorient  #important for SAPT in psi4, default
symmetry c1  #important for SAPT in psi4, default
}

set PROPERTIES_ORIGIN ["COM"]
properties('MP2/aug-cc-pvtz', properties = ['dipole'])
--------------------------------------------------------------------------

    Molecular point group: c1
  Charge       = 0
  Multiplicity = 1
  Basis Set: AUG-CC-PVTZ
    Blend: AUG-CC-PVTZ
  Basis Set: (AUG-CC-PVTZ AUX)
    Blend: AUG-CC-PVTZ-JKFIT

    Orbital Energies [Eh]
    ---------------------

    Doubly Occupied:

       1A    -26.389915     2A    -20.552949     3A    -11.438137
       4A    -11.270375     5A    -11.249071     6A     -1.754421
       7A     -1.323540     8A     -1.093604     9A     -0.945706
      10A     -0.888012    11A     -0.792715    12A     -0.782472
      13A     -0.700022    14A     -0.643056    15A     -0.606024
      16A     -0.558384    17A     -0.543976    18A     -0.533618
      19A     -0.464967    20A     -0.452825

  @DF-RHF Final Energy:  -290.90479472373613

   => Energetics <=

    Nuclear Repulsion Energy =            176.6084625955382137
    One-Electron Energy =                -749.0589387440340943
    Two-Electron Energy =                 281.5456814247597777
    Total Energy =                       -290.9047947237361313
  Basis Set: (AUG-CC-PVTZ AUX)
    Blend: AUG-CC-PVTZ-RI
    Molecular point group: c1

    Geometry (in Angstrom), charge = 0, multiplicity = 1:

       Center              X                  Y                   Z               Mass
    ------------   -----------------  -----------------  -----------------  -----------------
         F            0.640544318508     1.188273476595     0.098303263011    18.998403162730
         O            1.469832318508    -0.844974523405    -0.306566736989    15.994914619570
         C           -0.825071681492    -0.614153523405     0.497571263011    12.000000000000
         C           -1.932175681492     0.018188476595    -0.350428736989    12.000000000000
         C            0.491827318508    -0.032810123405     0.079863163011    12.000000000000
         H           -0.941865681492    -0.316483523405     1.545313263011     1.007825032230
         H           -0.851020681492    -1.704298523405     0.447707263011     1.007825032230
         H           -1.821290681492    -0.256167523405    -1.402500736989     1.007825032230
         H           -2.909129681492    -0.331734523405    -0.009864736989     1.007825032230
         H           -1.904863681492     1.105743476595    -0.271240736989     1.007825032230

  Basis Set: AUG-CC-PVTZ
    Blend: AUG-CC-PVTZ
  Basis Set: (AUG-CC-PVTZ AUX)
    Blend: AUG-CC-PVTZ-JKFIT
	 Reference Energy          =    -290.9047947237361313 [Eh]
	 Singles Energy            =      -0.0000000000000000 [Eh]
	 Same-Spin Energy          =      -0.2636333351961610 [Eh]
	 Opposite-Spin Energy      =      -0.8307883999419173 [Eh]
	 Correlation Energy        =      -1.0944217351380783 [Eh]
	 Total Energy              =    -291.9992164588742298 [Eh]

	 ================> DF-SCS-MP2 Energies <==================
	-----------------------------------------------------------
	 SCS Same-Spin Scale       =       0.3333333333333333 [-]
	 SCS Opposite-Spin Scale   =       1.2000000000000000 [-]
	 SCS Same-Spin Energy      =      -0.0878777783987203 [Eh]
	 SCS Opposite-Spin Energy  =      -0.9969460799303007 [Eh]
	 SCS Correlation Energy    =      -1.0848238583290211 [Eh]
	 SCS Total Energy          =    -291.9896185820651340 [Eh]
	-----------------------------------------------------------

  Dipole Moment: [D]
     X:    -3.3001      Y:     0.7990      Z:     1.0222     Total:     3.5460

*** Psi4 exiting successfully. Buy a developer a beer!
