                               Psi4 1.3.2 release

  ==> Input File <==

--------------------------------------------------------------------------
#psi4
#
memory 32 gb

molecule  {
0 1
  F        0.8803321     1.2279495     0.0515280
  O        1.5750600    -0.7893450    -0.3055120
  C       -0.7198440    -0.5585240     0.4986260
  C       -1.8269480     0.0738180    -0.3493740
  C        0.6450590    -0.1245570     0.0566130
  H       -0.8366380    -0.2608540     1.5463680
  H       -0.7457930    -1.6486690     0.4487620
  H       -1.7160630    -0.2005380    -1.4014460
  H       -2.8039020    -0.2761050    -0.0088100
  H       -1.7996360     1.1613730    -0.2701860
units angstrom
no_reorient  #important for SAPT in psi4, default
symmetry c1  #important for SAPT in psi4, default
}

set PROPERTIES_ORIGIN ["COM"]
properties('MP2/aug-cc-pvtz', properties = ['dipole'])
--------------------------------------------------------------------------

    Molecular point group: c1
  Charge       = 0
  Multiplicity = 1
  Basis Set: AUG-CC-PVTZ
    Blend: AUG-CC-PVTZ
  Basis Set: (AUG-CC-PVTZ AUX)
    Blend: AUG-CC-PVTZ-JKFIT

    Orbital Energies [Eh]
    ---------------------

    Doubly Occupied:

       1A    -26.321114     2A    -20.576350     3A    -11.423273
       4A    -11.276125     5A    -11.249807     6A     -1.640136
       7A     -1.414563     8A     -1.092478     9A     -0.926584
      10A     -0.830808    11A     -0.731583    12A     -0.714231
      13A     -0.701953    14A     -0.641701    15A     -0.618972
      16A     -0.578989    17A     -0.554520    18A     -0.534770
      19A     -0.514729    20A     -0.479429

  @DF-RHF Final Energy:  -290.94138093664736

   => Energetics <=

    Nuclear Repulsion Energy =            175.5949542621682156
    One-Electron Energy =                -747.4284424533290121
    Two-Electron Energy =                 280.8921072545134052
    Total Energy =                       -290.9413809366473629
  Basis Set: (AUG-CC-PVTZ AUX)
    Blend: AUG-CC-PVTZ-RI
    Molecular point group: c1

    Geometry (in Angstrom), charge = 0, multiplicity = 1:

       Center              X                  Y                   Z               Mass
    ------------   -----------------  -----------------  -----------------  -----------------
         F            0.733905228950     1.199566343339     0.066260634517    18.998403162730
         O            1.428633128950    -0.817728156661    -0.290779365483    15.994914619570
         C           -0.866270871050    -0.586907156661     0.513358634517    12.000000000000
         C           -1.973374871050     0.045434843339    -0.334641365483    12.000000000000
         C            0.498632128950    -0.152940156661     0.071345634517    12.000000000000
         H           -0.983064871050    -0.289237156661     1.561100634517     1.007825032230
         H           -0.892219871050    -1.677052156661     0.463494634517     1.007825032230
         H           -1.862489871050    -0.228921156661    -1.386713365483     1.007825032230
         H           -2.950328871050    -0.304488156661     0.005922634517     1.007825032230
         H           -1.946062871050     1.132989843339    -0.255453365483     1.007825032230

  Basis Set: AUG-CC-PVTZ
    Blend: AUG-CC-PVTZ
  Basis Set: (AUG-CC-PVTZ AUX)
    Blend: AUG-CC-PVTZ-JKFIT
	 Reference Energy          =    -290.9413809366473629 [Eh]
	 Singles Energy            =      -0.0000000000000000 [Eh]
	 Same-Spin Energy          =      -0.2615459274268409 [Eh]
	 Opposite-Spin Energy      =      -0.8274111740639080 [Eh]
	 Correlation Energy        =      -1.0889571014907489 [Eh]
	 Total Energy              =    -292.0303380381380975 [Eh]

	 ================> DF-SCS-MP2 Energies <==================
	-----------------------------------------------------------
	 SCS Same-Spin Scale       =       0.3333333333333333 [-]
	 SCS Opposite-Spin Scale   =       1.2000000000000000 [-]
	 SCS Same-Spin Energy      =      -0.0871819758089469 [Eh]
	 SCS Opposite-Spin Energy  =      -0.9928934088766895 [Eh]
	 SCS Correlation Energy    =      -1.0800753846856366 [Eh]
	 SCS Total Energy          =    -292.0214563213330052 [Eh]
	-----------------------------------------------------------

  Dipole Moment: [D]
     X:    -3.2206      Y:    -0.4025      Z:     0.8969     Total:     3.3673

*** Psi4 exiting successfully. Buy a developer a beer!
