                               Psi4 1.3.2 release

  ==> Input File <==

--------------------------------------------------------------------------
#psi4
#
memory 32 gb

molecule  {
0 1
  F        0.7457720     1.2439030     0.0993580
  O        1.5750600    -0.7893450    -0.3055120
  C       -0.7198440    -0.5585240     0.4986260
  C       -1.8269480     0.0738180    -0.3493740
  C        0.7226135    -0.1799949     0.0264147
  H       -0.8366380    -0.2608540     1.5463680
  H       -0.7457930    -1.6486690     0.4487620
  H       -1.7160630    -0.2005380    -1.4014460
  H       -2.8039020    -0.2761050    -0.0088100
  H       -1.7996360     1.1613730    -0.2701860
units angstrom
no_reorient  #important for SAPT in psi4, default
symmetry c1  #important for SAPT in psi4, default
}

set PROPERTIES_ORIGIN ["COM"]
properties('MP2/aug-cc-pvtz', properties = ['dipole'])
--------------------------------------------------------------------------

    Molecular point group: c1
  Charge       = 0
  Multiplicity = 1
  Basis Set: AUG-CC-PVTZ
    Blend: AUG-CC-PVTZ
  Basis Set: (AUG-CC-PVTZ AUX)
    Blend: AUG-CC-PVTZ-JKFIT

    Orbital Energies [Eh]
    ---------------------

    Doubly Occupied:

       1A    -26.295326     2A    -20.599644     3A    -11.412847
       4A    -11.269234     5A    -11.241457     6A     -1.608500
       7A     -1.501494     8A     -1.072393     9A     -0.910946
      10A     -0.812789    11A     -0.733984    12A     -0.721058
      13A     -0.696639    14A     -0.645080    15A     -0.601907
      16A     -0.589632    17A     -0.576079    18A     -0.535404
      19A     -0.520929    20A     -0.477459

  @DF-RHF Final Energy:  -290.93145096837031

   => Energetics <=

    Nuclear Repulsion Energy =            176.3243753991096412
    One-Electron Energy =                -748.8660540342734748
    Two-Electron Energy =                 281.6102276667935485
    Total Energy =                       -290.9314509683703136
  Basis Set: (AUG-CC-PVTZ AUX)
    Blend: AUG-CC-PVTZ-RI
    Molecular point group: c1

    Geometry (in Angstrom), charge = 0, multiplicity = 1:

       Center              X                  Y                   Z               Mass
    ------------   -----------------  -----------------  -----------------  -----------------
         F            0.620727751505     1.220283122817     0.106905359362    18.998403162730
         O            1.450015751505    -0.812964877183    -0.297964640638    15.994914619570
         C           -0.844888248495    -0.582143877183     0.506173359362    12.000000000000
         C           -1.951992248495     0.050198122817    -0.341826640638    12.000000000000
         C            0.597569251505    -0.203614777183     0.033962059362    12.000000000000
         H           -0.961682248495    -0.284473877183     1.553915359362     1.007825032230
         H           -0.870837248495    -1.672288877183     0.456309359362     1.007825032230
         H           -1.841107248495    -0.224157877183    -1.393898640638     1.007825032230
         H           -2.928946248495    -0.299724877183    -0.001262640638     1.007825032230
         H           -1.924680248495     1.137753122817    -0.262638640638     1.007825032230

  Basis Set: AUG-CC-PVTZ
    Blend: AUG-CC-PVTZ
  Basis Set: (AUG-CC-PVTZ AUX)
    Blend: AUG-CC-PVTZ-JKFIT
	 Reference Energy          =    -290.9314509683703136 [Eh]
	 Singles Energy            =      -0.0000000000000000 [Eh]
	 Same-Spin Energy          =      -0.2598041477628939 [Eh]
	 Opposite-Spin Energy      =      -0.8239765264141430 [Eh]
	 Correlation Energy        =      -1.0837806741770368 [Eh]
	 Total Energy              =    -292.0152316425473487 [Eh]

	 ================> DF-SCS-MP2 Energies <==================
	-----------------------------------------------------------
	 SCS Same-Spin Scale       =       0.3333333333333333 [-]
	 SCS Opposite-Spin Scale   =       1.2000000000000000 [-]
	 SCS Same-Spin Energy      =      -0.0866013825876313 [Eh]
	 SCS Opposite-Spin Energy  =      -0.9887718316969716 [Eh]
	 SCS Correlation Energy    =      -1.0753732142846029 [Eh]
	 SCS Total Energy          =    -292.0068241826548956 [Eh]
	-----------------------------------------------------------

  Dipole Moment: [D]
     X:    -2.3883      Y:    -0.9674      Z:     0.6119     Total:     2.6484

*** Psi4 exiting successfully. Buy a developer a beer!
