                               Psi4 1.3.2 release

  ==> Input File <==

--------------------------------------------------------------------------
#psi4
#
memory 32 gb

molecule  {
0 1
  F        0.7457720     1.2439030     0.0993580
  O        1.5750600    -0.7893450    -0.3055120
  C       -0.7198440    -0.5585240     0.4986260
  C       -1.7105127     0.1471338    -0.4315687
  C        0.6450590    -0.1245570     0.0566130
  H       -0.8366380    -0.2608540     1.5463680
  H       -0.7457930    -1.6486690     0.4487620
  H       -1.7160630    -0.2005380    -1.4014460
  H       -2.8039020    -0.2761050    -0.0088100
  H       -1.7996360     1.1613730    -0.2701860
units angstrom
no_reorient  #important for SAPT in psi4, default
symmetry c1  #important for SAPT in psi4, default
}

set PROPERTIES_ORIGIN ["COM"]
properties('MP2/aug-cc-pvtz', properties = ['dipole'])
--------------------------------------------------------------------------

    Molecular point group: c1
  Charge       = 0
  Multiplicity = 1
  Basis Set: AUG-CC-PVTZ
    Blend: AUG-CC-PVTZ
  Basis Set: (AUG-CC-PVTZ AUX)
    Blend: AUG-CC-PVTZ-JKFIT

    Orbital Energies [Eh]
    ---------------------

    Doubly Occupied:

       1A    -26.325760     2A    -20.581347     3A    -11.423538
       4A    -11.273387     5A    -11.251534     6A     -1.643943
       7A     -1.419391     8A     -1.093560     9A     -0.925870
      10A     -0.833616    11A     -0.732938    12A     -0.719688
      13A     -0.705216    14A     -0.658544    15A     -0.610364
      16A     -0.580950    17A     -0.558363    18A     -0.527301
      19A     -0.518747    20A     -0.464179

  @DF-RHF Final Energy:  -290.91952707047039

   => Energetics <=

    Nuclear Repulsion Energy =            176.9251191894407214
    One-Electron Energy =                -749.9928157647108264
    Two-Electron Energy =                 282.1481695047997391
    Total Energy =                       -290.9195270704703944
  Basis Set: (AUG-CC-PVTZ AUX)
    Blend: AUG-CC-PVTZ-RI
    Molecular point group: c1

    Geometry (in Angstrom), charge = 0, multiplicity = 1:

       Center              X                  Y                   Z               Mass
    ------------   -----------------  -----------------  -----------------  -----------------
         F            0.614591297356     1.199962265822     0.115111814079    18.998403162730
         O            1.443879297356    -0.833285734178    -0.289758185921    15.994914619570
         C           -0.851024702644    -0.602464734178     0.514379814079    12.000000000000
         C           -1.841693402644     0.103193065822    -0.415814885921    12.000000000000
         C            0.513878297356    -0.168497734178     0.072366814079    12.000000000000
         H           -0.967818702644    -0.304794734178     1.562121814079     1.007825032230
         H           -0.876973702644    -1.692609734178     0.464515814079     1.007825032230
         H           -1.847243702644    -0.244478734178    -1.385692185921     1.007825032230
         H           -2.935082702644    -0.320045734178     0.006943814079     1.007825032230
         H           -1.930816702644     1.117432265822    -0.254432185921     1.007825032230

  Basis Set: AUG-CC-PVTZ
    Blend: AUG-CC-PVTZ
  Basis Set: (AUG-CC-PVTZ AUX)
    Blend: AUG-CC-PVTZ-JKFIT
	 Reference Energy          =    -290.9195270704703944 [Eh]
	 Singles Energy            =      -0.0000000000000000 [Eh]
	 Same-Spin Energy          =      -0.2623850619851550 [Eh]
	 Opposite-Spin Energy      =      -0.8291422658064952 [Eh]
	 Correlation Energy        =      -1.0915273277916502 [Eh]
	 Total Energy              =    -292.0110543982620470 [Eh]

	 ================> DF-SCS-MP2 Energies <==================
	-----------------------------------------------------------
	 SCS Same-Spin Scale       =       0.3333333333333333 [-]
	 SCS Opposite-Spin Scale   =       1.2000000000000000 [-]
	 SCS Same-Spin Energy      =      -0.0874616873283850 [Eh]
	 SCS Opposite-Spin Energy  =      -0.9949707189677942 [Eh]
	 SCS Correlation Energy    =      -1.0824324062961792 [Eh]
	 SCS Total Energy          =    -292.0019594767665581 [Eh]
	-----------------------------------------------------------

  Dipole Moment: [D]
     X:    -2.9169      Y:    -0.3731      Z:     0.8187     Total:     3.0525

*** Psi4 exiting successfully. Buy a developer a beer!
