                               Psi4 1.3.2 release

  ==> Input File <==

--------------------------------------------------------------------------
#psi4
#
memory 32 gb

molecule  {
0 1
  F        0.6101084     1.2448634     0.1467197
  O        1.5750600    -0.7893450    -0.3055120
  C       -0.7198440    -0.5585240     0.4986260
  C       -1.8269480     0.0738180    -0.3493740
  C        0.6450590    -0.1245570     0.0566130
  H       -0.8366380    -0.2608540     1.5463680
  H       -0.7457930    -1.6486690     0.4487620
  H       -1.7160630    -0.2005380    -1.4014460
  H       -2.8039020    -0.2761050    -0.0088100
  H       -1.7996360     1.1613730    -0.2701860
units angstrom
no_reorient  #important for SAPT in psi4, default
symmetry c1  #important for SAPT in psi4, default
}

set PROPERTIES_ORIGIN ["COM"]
properties('MP2/aug-cc-pvtz', properties = ['dipole'])
--------------------------------------------------------------------------

    Molecular point group: c1
  Charge       = 0
  Multiplicity = 1
  Basis Set: AUG-CC-PVTZ
    Blend: AUG-CC-PVTZ
  Basis Set: (AUG-CC-PVTZ AUX)
    Blend: AUG-CC-PVTZ-JKFIT

    Orbital Energies [Eh]
    ---------------------

    Doubly Occupied:

       1A    -26.329646     2A    -20.590509     3A    -11.429551
       4A    -11.264693     5A    -11.243953     6A     -1.647975
       7A     -1.426889     8A     -1.086519     9A     -0.926058
      10A     -0.832224    11A     -0.736117    12A     -0.723448
      13A     -0.707593    14A     -0.643624    15A     -0.607132
      16A     -0.581048    17A     -0.555858    18A     -0.527027
      19A     -0.520029    20A     -0.481112

  @DF-RHF Final Energy:  -290.93833634579039

   => Energetics <=

    Nuclear Repulsion Energy =            176.7593200876362118
    One-Electron Energy =                -749.6732985854188200
    Two-Electron Energy =                 281.9756421519922469
    Total Energy =                       -290.9383363457903897
  Basis Set: (AUG-CC-PVTZ AUX)
    Blend: AUG-CC-PVTZ-RI
    Molecular point group: c1

    Geometry (in Angstrom), charge = 0, multiplicity = 1:

       Center              X                  Y                   Z               Mass
    ------------   -----------------  -----------------  -----------------  -----------------
         F            0.531202952673     1.212253927850     0.137666563282    18.998403162730
         O            1.496154552673    -0.821954472150    -0.314565136718    15.994914619570
         C           -0.798749447327    -0.591133472150     0.489572863282    12.000000000000
         C           -1.905853447327     0.041208527850    -0.358427136718    12.000000000000
         C            0.566153552673    -0.157166472150     0.047559863282    12.000000000000
         H           -0.915543447327    -0.293463472150     1.537314863282     1.007825032230
         H           -0.824698447327    -1.681278472150     0.439708863282     1.007825032230
         H           -1.794968447327    -0.233147472150    -1.410499136718     1.007825032230
         H           -2.882807447327    -0.308714472150    -0.017863136718     1.007825032230
         H           -1.878541447327     1.128763527850    -0.279239136718     1.007825032230

  Basis Set: AUG-CC-PVTZ
    Blend: AUG-CC-PVTZ
  Basis Set: (AUG-CC-PVTZ AUX)
    Blend: AUG-CC-PVTZ-JKFIT
	 Reference Energy          =    -290.9383363457903897 [Eh]
	 Singles Energy            =      -0.0000000000000000 [Eh]
	 Same-Spin Energy          =      -0.2624218464741341 [Eh]
	 Opposite-Spin Energy      =      -0.8288646393971306 [Eh]
	 Correlation Energy        =      -1.0912864858712648 [Eh]
	 Total Energy              =    -292.0296228316616407 [Eh]

	 ================> DF-SCS-MP2 Energies <==================
	-----------------------------------------------------------
	 SCS Same-Spin Scale       =       0.3333333333333333 [-]
	 SCS Opposite-Spin Scale   =       1.2000000000000000 [-]
	 SCS Same-Spin Energy      =      -0.0874739488247114 [Eh]
	 SCS Opposite-Spin Energy  =      -0.9946375672765567 [Eh]
	 SCS Correlation Energy    =      -1.0821115161012682 [Eh]
	 SCS Total Energy          =    -292.0204478618916824 [Eh]
	-----------------------------------------------------------

  Dipole Moment: [D]
     X:    -2.6723      Y:    -0.3471      Z:     0.7483     Total:     2.7967

*** Psi4 exiting successfully. Buy a developer a beer!
