                               Psi4 1.4a3.dev225

  ==> Input File <==

--------------------------------------------------------------------------
#psi4
#
memory 32 gb

molecule  {
0 1
  F        0.7457770     1.2438890     0.0993500
  O        1.5749420    -0.7893990    -0.3055700
  C       -0.7198600    -0.5584570     0.4987450
  C       -1.8268110     0.0738080    -0.3494590
  C        0.6632523    -0.1187643     0.0507865
  H       -0.8367390    -0.2606700     1.5464390
  H       -0.7458570    -1.6486110     0.4490110
  H       -1.7161610    -0.2011590    -1.4014030
  H       -2.8038590    -0.2755580    -0.0085930
  H       -1.7991210     1.1614070    -0.2708750
units angstrom
no_reorient  #important for SAPT in psi4, default
symmetry c1  #important for SAPT in psi4, default
}

set PROPERTIES_ORIGIN ["COM"]
properties('MP2/aug-cc-pvtz', properties = ['dipole'])
--------------------------------------------------------------------------

    Molecular point group: c1
  Charge       = 0
  Multiplicity = 1
  Basis Set: AUG-CC-PVTZ
    Blend: AUG-CC-PVTZ
  Basis Set: (AUG-CC-PVTZ AUX)
    Blend: AUG-CC-PVTZ-JKFIT

    Orbital Energies [Eh]
    ---------------------

    Doubly Occupied:

       1A    -26.327596     2A    -20.584172     3A    -11.424491
       4A    -11.269452     5A    -11.245366     6A     -1.647703
       7A     -1.430215     8A     -1.084180     9A     -0.922449
      10A     -0.833986    11A     -0.734799    12A     -0.721018
      13A     -0.708061    14A     -0.642188    15A     -0.612364
      16A     -0.580679    17A     -0.555594    18A     -0.529668
      19A     -0.520781    20A     -0.479125

  @DF-RHF Final Energy:  -290.94460903544291

   => Energetics <=

    Nuclear Repulsion Energy =            176.1426785292238719
    One-Electron Energy =                -748.4668004399587744
    Two-Electron Energy =                 281.3795128752919936
    Total Energy =                       -290.9446090354429089
  Basis Set: (AUG-CC-PVTZ AUX)
    Blend: AUG-CC-PVTZ-RI
    Molecular point group: c1

    Geometry (in Angstrom), charge = 0, multiplicity = 1:

       Center              X                  Y                   Z               Mass
    ------------   -----------------  -----------------  -----------------  -----------------
         F            0.630102140044     1.210608443123     0.103061101529    18.998403162730
         O            1.459267140044    -0.822679556877    -0.301858898471    15.994914619570
         C           -0.835534859956    -0.591737556877     0.502456101529    12.000000000000
         C           -1.942485859956     0.040527443123    -0.345747898471    12.000000000000
         C            0.547577440044    -0.152044856877     0.054497601529    12.000000000000
         H           -0.952413859956    -0.293950556877     1.550150101529     1.007825032230
         H           -0.861531859956    -1.681891556877     0.452722101529     1.007825032230
         H           -1.831835859956    -0.234439556877    -1.397691898471     1.007825032230
         H           -2.919533859956    -0.308838556877    -0.004881898471     1.007825032230
         H           -1.914795859956     1.128126443123    -0.267163898471     1.007825032230

  Basis Set: AUG-CC-PVTZ
    Blend: AUG-CC-PVTZ
  Basis Set: (AUG-CC-PVTZ AUX)
    Blend: AUG-CC-PVTZ-JKFIT
	 Reference Energy          =    -290.9446090354429089 [Eh]
	 Singles Energy            =      -0.0000000000000000 [Eh]
	 Same-Spin Energy          =      -0.2613553073223290 [Eh]
	 Opposite-Spin Energy      =      -0.8268716656037367 [Eh]
	 Correlation Energy        =      -1.0882269729260656 [Eh]
	 Total Energy              =    -292.0328360083689745 [Eh]

	 ================> DF-SCS-MP2 Energies <==================
	-----------------------------------------------------------
	 SCS Same-Spin Scale       =       0.3333333333333333 [-]
	 SCS Opposite-Spin Scale   =       1.2000000000000000 [-]
	 SCS Same-Spin Energy      =      -0.0871184357741097 [Eh]
	 SCS Opposite-Spin Energy  =      -0.9922459987244840 [Eh]
	 SCS Correlation Energy    =      -1.0793644344985938 [Eh]
	 SCS Total Energy          =    -292.0239734699414953 [Eh]
	-----------------------------------------------------------

  Dipole Moment: [D]
     X:    -2.8306      Y:    -0.3562      Z:     0.7913     Total:     2.9606

*** Psi4 exiting successfully. Buy a developer a beer!
