                               Psi4 1.3.2 release

  ==> Input File <==

--------------------------------------------------------------------------
#psi4
#
memory 32 gb

molecule  {
0 1
  F        0.7457720     1.2439030     0.0993580
  O        1.5862483    -0.7718711    -0.3082521
  C       -0.7198440    -0.5585240     0.4986260
  C       -1.8269480     0.0738180    -0.3493740
  C        0.6450590    -0.1245570     0.0566130
  H       -0.8366380    -0.2608540     1.5463680
  H       -0.7457930    -1.6486690     0.4487620
  H       -1.7160630    -0.2005380    -1.4014460
  H       -2.8039020    -0.2761050    -0.0088100
  H       -1.7996360     1.1613730    -0.2701860
units angstrom
no_reorient  #important for SAPT in psi4, default
symmetry c1  #important for SAPT in psi4, default
}

set PROPERTIES_ORIGIN ["COM"]
properties('MP2/aug-cc-pvtz', properties = ['dipole'])
--------------------------------------------------------------------------

    Molecular point group: c1
  Charge       = 0
  Multiplicity = 1
  Basis Set: AUG-CC-PVTZ
    Blend: AUG-CC-PVTZ
  Basis Set: (AUG-CC-PVTZ AUX)
    Blend: AUG-CC-PVTZ-JKFIT

    Orbital Energies [Eh]
    ---------------------

    Doubly Occupied:

       1A    -26.324256     2A    -20.583107     3A    -11.426094
       4A    -11.271551     5A    -11.247509     6A     -1.642873
       7A     -1.420158     8A     -1.090313     9A     -0.926497
      10A     -0.831389    11A     -0.732758    12A     -0.718321
      13A     -0.704425    14A     -0.642368    15A     -0.613739
      16A     -0.580259    17A     -0.554984    18A     -0.531377
      19A     -0.518227    20A     -0.481712

  @DF-RHF Final Energy:  -290.94331021781119

   => Energetics <=

    Nuclear Repulsion Energy =            176.0808630913946615
    One-Electron Energy =                -748.3645099478731026
    Two-Electron Energy =                 281.3403366386672246
    Total Energy =                       -290.9433102178111881
  Basis Set: (AUG-CC-PVTZ AUX)
    Blend: AUG-CC-PVTZ-RI
    Molecular point group: c1

    Geometry (in Angstrom), charge = 0, multiplicity = 1:

       Center              X                  Y                   Z               Mass
    ------------   -----------------  -----------------  -----------------  -----------------
         F            0.630614295560     1.207857527874     0.102715675036    18.998403162730
         O            1.471090595560    -0.807916572126    -0.304894424964    15.994914619570
         C           -0.835001704440    -0.594569472126     0.501983675036    12.000000000000
         C           -1.942105704440     0.037772527874    -0.346016324964    12.000000000000
         C            0.529901295560    -0.160602472126     0.059970675036    12.000000000000
         H           -0.951795704440    -0.296899472126     1.549725675036     1.007825032230
         H           -0.860950704440    -1.684714472126     0.452119675036     1.007825032230
         H           -1.831220704440    -0.236583472126    -1.398088324964     1.007825032230
         H           -2.919059704440    -0.312150472126    -0.005452324964     1.007825032230
         H           -1.914793704440     1.125327527874    -0.266828324964     1.007825032230

  Basis Set: AUG-CC-PVTZ
    Blend: AUG-CC-PVTZ
  Basis Set: (AUG-CC-PVTZ AUX)
    Blend: AUG-CC-PVTZ-JKFIT
	 Reference Energy          =    -290.9433102178111881 [Eh]
	 Singles Energy            =      -0.0000000000000000 [Eh]
	 Same-Spin Energy          =      -0.2618593625483818 [Eh]
	 Opposite-Spin Energy      =      -0.8278706538414675 [Eh]
	 Correlation Energy        =      -1.0897300163898493 [Eh]
	 Total Energy              =    -292.0330402342010530 [Eh]

	 ================> DF-SCS-MP2 Energies <==================
	-----------------------------------------------------------
	 SCS Same-Spin Scale       =       0.3333333333333333 [-]
	 SCS Opposite-Spin Scale   =       1.2000000000000000 [-]
	 SCS Same-Spin Energy      =      -0.0872864541827939 [Eh]
	 SCS Opposite-Spin Energy  =      -0.9934447846097609 [Eh]
	 SCS Correlation Energy    =      -1.0807312387925549 [Eh]
	 SCS Total Energy          =    -292.0240414566037543 [Eh]
	-----------------------------------------------------------

  Dipole Moment: [D]
     X:    -2.9919      Y:    -0.4227      Z:     0.8305     Total:     3.1337

*** Psi4 exiting successfully. Buy a developer a beer!
