                               Psi4 1.3.2 release

  ==> Input File <==

--------------------------------------------------------------------------
#psi4
#
memory 32 gb

molecule  {
0 1
  F        0.8358863     1.2348940     0.0680516
  O        1.5750600    -0.7893450    -0.3055120
  C       -0.7198440    -0.5585240     0.4986260
  C       -1.8269480     0.0738180    -0.3493740
  C        0.6450590    -0.1245570     0.0566130
  H       -0.8366380    -0.2608540     1.5463680
  H       -0.7457930    -1.6486690     0.4487620
  H       -1.7160630    -0.2005380    -1.4014460
  H       -2.8039020    -0.2761050    -0.0088100
  H       -1.7996360     1.1613730    -0.2701860
units angstrom
no_reorient  #important for SAPT in psi4, default
symmetry c1  #important for SAPT in psi4, default
}

set PROPERTIES_ORIGIN ["COM"]
properties('MP2/aug-cc-pvtz', properties = ['dipole'])
--------------------------------------------------------------------------

    Molecular point group: c1
  Charge       = 0
  Multiplicity = 1
  Basis Set: AUG-CC-PVTZ
    Blend: AUG-CC-PVTZ
  Basis Set: (AUG-CC-PVTZ AUX)
    Blend: AUG-CC-PVTZ-JKFIT

    Orbital Energies [Eh]
    ---------------------

    Doubly Occupied:

       1A    -26.322874     2A    -20.578798     3A    -11.424310
       4A    -11.274290     5A    -11.248916     6A     -1.641340
       7A     -1.416773     8A     -1.091531     9A     -0.926394
      10A     -0.831333    11A     -0.731942    12A     -0.715891
      13A     -0.703123    14A     -0.641772    15A     -0.617480
      16A     -0.579550    17A     -0.554637    18A     -0.533575
      19A     -0.516038    20A     -0.480253

  @DF-RHF Final Energy:  -290.94274516969830

   => Energetics <=

    Nuclear Repulsion Energy =            175.7279319927491485
    One-Electron Energy =                -747.6797136644245256
    Two-Electron Energy =                 281.0090365019770502
    Total Energy =                       -290.9427451696982985
  Basis Set: (AUG-CC-PVTZ AUX)
    Blend: AUG-CC-PVTZ-RI
    Molecular point group: c1

    Geometry (in Angstrom), charge = 0, multiplicity = 1:

       Center              X                  Y                   Z               Mass
    ------------   -----------------  -----------------  -----------------  -----------------
         F            0.700565204256     1.204775604990     0.078655444196    18.998403162730
         O            1.439738904256    -0.819463395010    -0.294908155804    15.994914619570
         C           -0.855165095744    -0.588642395010     0.509229844196    12.000000000000
         C           -1.962269095744     0.043699604990    -0.338770155804    12.000000000000
         C            0.509737904256    -0.154675395010     0.067216844196    12.000000000000
         H           -0.971959095744    -0.290972395010     1.556971844196     1.007825032230
         H           -0.881114095744    -1.678787395010     0.459365844196     1.007825032230
         H           -1.851384095744    -0.230656395010    -1.390842155804     1.007825032230
         H           -2.939223095744    -0.306223395010     0.001793844196     1.007825032230
         H           -1.934957095744     1.131254604990    -0.259582155804     1.007825032230

  Basis Set: AUG-CC-PVTZ
    Blend: AUG-CC-PVTZ
  Basis Set: (AUG-CC-PVTZ AUX)
    Blend: AUG-CC-PVTZ-JKFIT
	 Reference Energy          =    -290.9427451696982985 [Eh]
	 Singles Energy            =      -0.0000000000000000 [Eh]
	 Same-Spin Energy          =      -0.2616349246537926 [Eh]
	 Opposite-Spin Energy      =      -0.8275354493884219 [Eh]
	 Correlation Energy        =      -1.0891703740422145 [Eh]
	 Total Energy              =    -292.0319155437405243 [Eh]

	 ================> DF-SCS-MP2 Energies <==================
	-----------------------------------------------------------
	 SCS Same-Spin Scale       =       0.3333333333333333 [-]
	 SCS Opposite-Spin Scale   =       1.2000000000000000 [-]
	 SCS Same-Spin Energy      =      -0.0872116415512642 [Eh]
	 SCS Opposite-Spin Energy  =      -0.9930425392661063 [Eh]
	 SCS Correlation Energy    =      -1.0802541808173705 [Eh]
	 SCS Total Energy          =    -292.0229993505156472 [Eh]
	-----------------------------------------------------------

  Dipole Moment: [D]
     X:    -3.1328      Y:    -0.4004      Z:     0.8717     Total:     3.2763

*** Psi4 exiting successfully. Buy a developer a beer!
