                               Psi4 1.4a3.dev225

  ==> Input File <==

--------------------------------------------------------------------------
#psi4
#
memory 32 gb

molecule  {
0 1
  F        0.7457770     1.2438890     0.0993500
  O        1.5749420    -0.7893990    -0.3055700
  C       -0.7198600    -0.5584570     0.4987450
  C       -1.8268110     0.0738080    -0.3494590
  C        0.6465076    -0.1046176     0.0573066
  H       -0.8367390    -0.2606700     1.5464390
  H       -0.7458570    -1.6486110     0.4490110
  H       -1.7161610    -0.2011590    -1.4014030
  H       -2.8038590    -0.2755580    -0.0085930
  H       -1.7991210     1.1614070    -0.2708750
units angstrom
no_reorient  #important for SAPT in psi4, default
symmetry c1  #important for SAPT in psi4, default
}

set PROPERTIES_ORIGIN ["COM"]
properties('MP2/aug-cc-pvtz', properties = ['dipole'])
--------------------------------------------------------------------------

    Molecular point group: c1
  Charge       = 0
  Multiplicity = 1
  Basis Set: AUG-CC-PVTZ
    Blend: AUG-CC-PVTZ
  Basis Set: (AUG-CC-PVTZ AUX)
    Blend: AUG-CC-PVTZ-JKFIT

    Orbital Energies [Eh]
    ---------------------

    Doubly Occupied:

       1A    -26.334622     2A    -20.580316     3A    -11.427165
       4A    -11.269804     5A    -11.246570     6A     -1.657449
       7A     -1.412258     8A     -1.087889     9A     -0.925750
      10A     -0.839561    11A     -0.739559    12A     -0.724214
      13A     -0.706867    14A     -0.640860    15A     -0.614876
      16A     -0.578300    17A     -0.552972    18A     -0.530836
      19A     -0.514394    20A     -0.477970

  @DF-RHF Final Energy:  -290.94275654293881

   => Energetics <=

    Nuclear Repulsion Energy =            176.1294886580326704
    One-Electron Energy =                -748.4200262869682092
    Two-Electron Energy =                 281.3477810859967576
    Total Energy =                       -290.9427565429388096
  Basis Set: (AUG-CC-PVTZ AUX)
    Blend: AUG-CC-PVTZ-RI
    Molecular point group: c1

    Geometry (in Angstrom), charge = 0, multiplicity = 1:

       Center              X                  Y                   Z               Mass
    ------------   -----------------  -----------------  -----------------  -----------------
         F            0.632744911896     1.208375706762     0.102032051337    18.998403162730
         O            1.461909911896    -0.824912293238    -0.302887948663    15.994914619570
         C           -0.832892088104    -0.593970293238     0.501427051337    12.000000000000
         C           -1.939843088104     0.038294706762    -0.346776948663    12.000000000000
         C            0.533475511896    -0.140130893238     0.059988651337    12.000000000000
         H           -0.949771088104    -0.296183293238     1.549121051337     1.007825032230
         H           -0.858889088104    -1.684124293238     0.451693051337     1.007825032230
         H           -1.829193088104    -0.236672293238    -1.398720948663     1.007825032230
         H           -2.916891088104    -0.311071293238    -0.005910948663     1.007825032230
         H           -1.912153088104     1.125893706762    -0.268192948663     1.007825032230

  Basis Set: AUG-CC-PVTZ
    Blend: AUG-CC-PVTZ
  Basis Set: (AUG-CC-PVTZ AUX)
    Blend: AUG-CC-PVTZ-JKFIT
	 Reference Energy          =    -290.9427565429388096 [Eh]
	 Singles Energy            =      -0.0000000000000000 [Eh]
	 Same-Spin Energy          =      -0.2618367684715061 [Eh]
	 Opposite-Spin Energy      =      -0.8277805527132376 [Eh]
	 Correlation Energy        =      -1.0896173211847437 [Eh]
	 Total Energy              =    -292.0323738641235423 [Eh]

	 ================> DF-SCS-MP2 Energies <==================
	-----------------------------------------------------------
	 SCS Same-Spin Scale       =       0.3333333333333333 [-]
	 SCS Opposite-Spin Scale   =       1.2000000000000000 [-]
	 SCS Same-Spin Energy      =      -0.0872789228238353 [Eh]
	 SCS Opposite-Spin Energy  =      -0.9933366632558851 [Eh]
	 SCS Correlation Energy    =      -1.0806155860797204 [Eh]
	 SCS Total Energy          =    -292.0233721290185258 [Eh]
	-----------------------------------------------------------

  Dipole Moment: [D]
     X:    -2.9484      Y:    -0.2239      Z:     0.8359     Total:     3.0728

*** Psi4 exiting successfully. Buy a developer a beer!
