                               Psi4 1.4a3.dev225

  ==> Input File <==

--------------------------------------------------------------------------
#psi4
#
memory 32 gb

molecule  {
0 1
  F        0.7457770     1.2438890     0.0993500
  O        1.5749420    -0.7893990    -0.3055700
  C       -0.7198600    -0.5584570     0.4987450
  C       -1.8268110     0.0738080    -0.3494590
  C        0.6487090    -0.0747130     0.0582389
  H       -0.8367390    -0.2606700     1.5464390
  H       -0.7458570    -1.6486110     0.4490110
  H       -1.7161610    -0.2011590    -1.4014030
  H       -2.8038590    -0.2755580    -0.0085930
  H       -1.7991210     1.1614070    -0.2708750
units angstrom
no_reorient  #important for SAPT in psi4, default
symmetry c1  #important for SAPT in psi4, default
}

set PROPERTIES_ORIGIN ["COM"]
properties('MP2/aug-cc-pvtz', properties = ['dipole'])
--------------------------------------------------------------------------

    Molecular point group: c1
  Charge       = 0
  Multiplicity = 1
  Basis Set: AUG-CC-PVTZ
    Blend: AUG-CC-PVTZ
  Basis Set: (AUG-CC-PVTZ AUX)
    Blend: AUG-CC-PVTZ-JKFIT

    Orbital Energies [Eh]
    ---------------------

    Doubly Occupied:

       1A    -26.347435     2A    -20.575432     3A    -11.428466
       4A    -11.268864     5A    -11.245920     6A     -1.678724
       7A     -1.398956     8A     -1.085464     9A     -0.926055
      10A     -0.851130    11A     -0.750364    12A     -0.735849
      13A     -0.706235    14A     -0.639010    15A     -0.615033
      16A     -0.574576    17A     -0.550179    18A     -0.530630
      19A     -0.508027    20A     -0.472703

  @DF-RHF Final Energy:  -290.94043136789810

   => Energetics <=

    Nuclear Repulsion Energy =            176.2286462282419848
    One-Electron Energy =                -748.5600518485464363
    Two-Electron Energy =                 281.3909742524062949
    Total Energy =                       -290.9404313678980998
  Basis Set: (AUG-CC-PVTZ AUX)
    Blend: AUG-CC-PVTZ-RI
    Molecular point group: c1

    Geometry (in Angstrom), charge = 0, multiplicity = 1:

       Center              X                  Y                   Z               Mass
    ------------   -----------------  -----------------  -----------------  -----------------
         F            0.632397470738     1.203655942591     0.101884908886    18.998403162730
         O            1.461562470738    -0.829632057409    -0.303035091114    15.994914619570
         C           -0.833239529262    -0.598690057409     0.501279908886    12.000000000000
         C           -1.940190529262     0.033574942591    -0.346924091114    12.000000000000
         C            0.535329470738    -0.114946057409     0.060773808886    12.000000000000
         H           -0.950118529262    -0.300903057409     1.548973908886     1.007825032230
         H           -0.859236529262    -1.688844057409     0.451545908886     1.007825032230
         H           -1.829540529262    -0.241392057409    -1.398868091114     1.007825032230
         H           -2.917238529262    -0.315791057409    -0.006058091114     1.007825032230
         H           -1.912500529262     1.121173942591    -0.268340091114     1.007825032230

  Basis Set: AUG-CC-PVTZ
    Blend: AUG-CC-PVTZ
  Basis Set: (AUG-CC-PVTZ AUX)
    Blend: AUG-CC-PVTZ-JKFIT
	 Reference Energy          =    -290.9404313678980998 [Eh]
	 Singles Energy            =      -0.0000000000000000 [Eh]
	 Same-Spin Energy          =      -0.2618080257600930 [Eh]
	 Opposite-Spin Energy      =      -0.8276253575582022 [Eh]
	 Correlation Energy        =      -1.0894333833182952 [Eh]
	 Total Energy              =    -292.0298647512163939 [Eh]

	 ================> DF-SCS-MP2 Energies <==================
	-----------------------------------------------------------
	 SCS Same-Spin Scale       =       0.3333333333333333 [-]
	 SCS Opposite-Spin Scale   =       1.2000000000000000 [-]
	 SCS Same-Spin Energy      =      -0.0872693419200310 [Eh]
	 SCS Opposite-Spin Energy  =      -0.9931504290698426 [Eh]
	 SCS Correlation Energy    =      -1.0804197709898737 [Eh]
	 SCS Total Energy          =    -292.0208511388879629 [Eh]
	-----------------------------------------------------------

  Dipole Moment: [D]
     X:    -2.9435      Y:     0.0187      Z:     0.8555     Total:     3.0653

*** Psi4 exiting successfully. Buy a developer a beer!
