                               Psi4 1.3.2 release

  ==> Input File <==

--------------------------------------------------------------------------
#psi4
#
memory 32 gb

molecule  {
0 1
  F        0.7457720     1.2439030     0.0993580
  O        1.5750600    -0.7893450    -0.3055120
  C       -0.7198440    -0.5585240     0.4986260
  C       -1.8269480     0.0738180    -0.3493740
  C        0.6577585    -0.1748205     0.0495759
  H       -0.8366380    -0.2608540     1.5463680
  H       -0.7457930    -1.6486690     0.4487620
  H       -1.7160630    -0.2005380    -1.4014460
  H       -2.8039020    -0.2761050    -0.0088100
  H       -1.7996360     1.1613730    -0.2701860
units angstrom
no_reorient  #important for SAPT in psi4, default
symmetry c1  #important for SAPT in psi4, default
}

set PROPERTIES_ORIGIN ["COM"]
properties('MP2/aug-cc-pvtz', properties = ['dipole'])
--------------------------------------------------------------------------

    Molecular point group: c1
  Charge       = 0
  Multiplicity = 1
  Basis Set: AUG-CC-PVTZ
    Blend: AUG-CC-PVTZ
  Basis Set: (AUG-CC-PVTZ AUX)
    Blend: AUG-CC-PVTZ-JKFIT

    Orbital Energies [Eh]
    ---------------------

    Doubly Occupied:

       1A    -26.302701     2A    -20.593296     3A    -11.422546
       4A    -11.272104     5A    -11.246844     6A     -1.611791
       7A     -1.453593     8A     -1.089325     9A     -0.924783
      10A     -0.814764    11A     -0.720675    12A     -0.719815
      13A     -0.692793    14A     -0.645130    15A     -0.606795
      16A     -0.585068    17A     -0.562679    18A     -0.532892
      19A     -0.526012    20A     -0.487081

  @DF-RHF Final Energy:  -290.94195612187428

   => Energetics <=

    Nuclear Repulsion Energy =            176.0072462514742995
    One-Electron Energy =                -748.2770329297679837
    Two-Electron Energy =                 281.3278305564194284
    Total Energy =                       -290.9419561218742842
  Basis Set: (AUG-CC-PVTZ AUX)
    Blend: AUG-CC-PVTZ-RI
    Molecular point group: c1

    Geometry (in Angstrom), charge = 0, multiplicity = 1:

       Center              X                  Y                   Z               Mass
    ------------   -----------------  -----------------  -----------------  -----------------
         F            0.630963645156     1.219466460908     0.103249888234    18.998403162730
         O            1.460251645156    -0.813781539092    -0.301620111766    15.994914619570
         C           -0.834652354844    -0.582960539092     0.502517888234    12.000000000000
         C           -1.941756354844     0.049381460908    -0.345482111766    12.000000000000
         C            0.542950145156    -0.199257039092     0.053467788234    12.000000000000
         H           -0.951446354844    -0.285290539092     1.550259888234     1.007825032230
         H           -0.860601354844    -1.673105539092     0.452653888234     1.007825032230
         H           -1.830871354844    -0.224974539092    -1.397554111766     1.007825032230
         H           -2.918710354844    -0.300541539092    -0.004918111766     1.007825032230
         H           -1.914444354844     1.136936460908    -0.266294111766     1.007825032230

  Basis Set: AUG-CC-PVTZ
    Blend: AUG-CC-PVTZ
  Basis Set: (AUG-CC-PVTZ AUX)
    Blend: AUG-CC-PVTZ-JKFIT
	 Reference Energy          =    -290.9419561218742842 [Eh]
	 Singles Energy            =      -0.0000000000000000 [Eh]
	 Same-Spin Energy          =      -0.2615577318014746 [Eh]
	 Opposite-Spin Energy      =      -0.8274020147613891 [Eh]
	 Correlation Energy        =      -1.0889597465628638 [Eh]
	 Total Energy              =    -292.0309158684371482 [Eh]

	 ================> DF-SCS-MP2 Energies <==================
	-----------------------------------------------------------
	 SCS Same-Spin Scale       =       0.3333333333333333 [-]
	 SCS Opposite-Spin Scale   =       1.2000000000000000 [-]
	 SCS Same-Spin Energy      =      -0.0871859106004915 [Eh]
	 SCS Opposite-Spin Energy  =      -0.9928824177136668 [Eh]
	 SCS Correlation Energy    =      -1.0800683283141583 [Eh]
	 SCS Total Energy          =    -292.0220244501884395 [Eh]
	-----------------------------------------------------------

  Dipole Moment: [D]
     X:    -2.8511      Y:    -0.8288      Z:     0.7559     Total:     3.0639

*** Psi4 exiting successfully. Buy a developer a beer!
