                               Psi4 1.3.2 release

  ==> Input File <==

--------------------------------------------------------------------------
#psi4
#
memory 32 gb

molecule  {
0 1
  F        0.7457720     1.2439030     0.0993580
  O        1.5750600    -0.7893450    -0.3055120
  C       -0.7198440    -0.5585240     0.4986260
  C       -1.7894236     0.0990677    -0.3778512
  C        0.6450590    -0.1245570     0.0566130
  H       -0.8366380    -0.2608540     1.5463680
  H       -0.7457930    -1.6486690     0.4487620
  H       -1.7160630    -0.2005380    -1.4014460
  H       -2.8039020    -0.2761050    -0.0088100
  H       -1.7996360     1.1613730    -0.2701860
units angstrom
no_reorient  #important for SAPT in psi4, default
symmetry c1  #important for SAPT in psi4, default
}

set PROPERTIES_ORIGIN ["COM"]
properties('MP2/aug-cc-pvtz', properties = ['dipole'])
--------------------------------------------------------------------------

    Molecular point group: c1
  Charge       = 0
  Multiplicity = 1
  Basis Set: AUG-CC-PVTZ
    Blend: AUG-CC-PVTZ
  Basis Set: (AUG-CC-PVTZ AUX)
    Blend: AUG-CC-PVTZ-JKFIT

    Orbital Energies [Eh]
    ---------------------

    Doubly Occupied:

       1A    -26.325755     2A    -20.582693     3A    -11.425235
       4A    -11.271057     5A    -11.247574     6A     -1.643724
       7A     -1.420315     8A     -1.090507     9A     -0.925361
      10A     -0.832389    11A     -0.732926    12A     -0.719041
      13A     -0.704977    14A     -0.646753    15A     -0.612003
      16A     -0.575982    17A     -0.552041    18A     -0.537253
      19A     -0.519908    20A     -0.477186

  @DF-RHF Final Energy:  -290.94027823127095

   => Energetics <=

    Nuclear Repulsion Energy =            176.3426052653574345
    One-Electron Energy =                -748.8804062023693859
    Two-Electron Energy =                 281.5975227057410279
    Total Energy =                       -290.9402782312709519
  Basis Set: (AUG-CC-PVTZ AUX)
    Blend: AUG-CC-PVTZ-RI
    Molecular point group: c1

    Geometry (in Angstrom), charge = 0, multiplicity = 1:

       Center              X                  Y                   Z               Mass
    ------------   -----------------  -----------------  -----------------  -----------------
         F            0.627045596643     1.207548411653     0.106633722687    18.998403162730
         O            1.456333596643    -0.825699588347    -0.298236277313    15.994914619570
         C           -0.838570403357    -0.594878588347     0.505901722687    12.000000000000
         C           -1.908150003357     0.062713111653    -0.370575477313    12.000000000000
         C            0.526332596643    -0.160911588347     0.063888722687    12.000000000000
         H           -0.955364403357    -0.297208588347     1.553643722687     1.007825032230
         H           -0.864519403357    -1.685023588347     0.456037722687     1.007825032230
         H           -1.834789403357    -0.236892588347    -1.394170277313     1.007825032230
         H           -2.922628403357    -0.312459588347    -0.001534277313     1.007825032230
         H           -1.918362403357     1.125018411653    -0.262910277313     1.007825032230

  Basis Set: AUG-CC-PVTZ
    Blend: AUG-CC-PVTZ
  Basis Set: (AUG-CC-PVTZ AUX)
    Blend: AUG-CC-PVTZ-JKFIT
	 Reference Energy          =    -290.9402782312709519 [Eh]
	 Singles Energy            =      -0.0000000000000000 [Eh]
	 Same-Spin Energy          =      -0.2619540806752498 [Eh]
	 Opposite-Spin Energy      =      -0.8280501610873241 [Eh]
	 Correlation Energy        =      -1.0900042417625739 [Eh]
	 Total Energy              =    -292.0302824730335374 [Eh]

	 ================> DF-SCS-MP2 Energies <==================
	-----------------------------------------------------------
	 SCS Same-Spin Scale       =       0.3333333333333333 [-]
	 SCS Opposite-Spin Scale   =       1.2000000000000000 [-]
	 SCS Same-Spin Energy      =      -0.0873180268917499 [Eh]
	 SCS Opposite-Spin Energy  =      -0.9936601933047888 [Eh]
	 SCS Correlation Energy    =      -1.0809782201965388 [Eh]
	 SCS Total Energy          =    -292.0212564514674796 [Eh]
	-----------------------------------------------------------

  Dipole Moment: [D]
     X:    -2.9490      Y:    -0.3828      Z:     0.8192     Total:     3.0845

*** Psi4 exiting successfully. Buy a developer a beer!
