                               Psi4 1.3.2 release

  ==> Input File <==

--------------------------------------------------------------------------
#psi4
#
memory 32 gb

molecule  {
0 1
  F        0.7457720     1.2439030     0.0993580
  O        1.5750600    -0.7893450    -0.3055120
  C       -0.7198440    -0.5585240     0.4986260
  C       -1.8269480     0.0738180    -0.3493740
  C        0.6523952    -0.0248751     0.0597266
  H       -0.8366380    -0.2608540     1.5463680
  H       -0.7457930    -1.6486690     0.4487620
  H       -1.7160630    -0.2005380    -1.4014460
  H       -2.8039020    -0.2761050    -0.0088100
  H       -1.7996360     1.1613730    -0.2701860
units angstrom
no_reorient  #important for SAPT in psi4, default
symmetry c1  #important for SAPT in psi4, default
}

set PROPERTIES_ORIGIN ["COM"]
properties('MP2/aug-cc-pvtz', properties = ['dipole'])
--------------------------------------------------------------------------

    Molecular point group: c1
  Charge       = 0
  Multiplicity = 1
  Basis Set: AUG-CC-PVTZ
    Blend: AUG-CC-PVTZ
  Basis Set: (AUG-CC-PVTZ AUX)
    Blend: AUG-CC-PVTZ-JKFIT

    Orbital Energies [Eh]
    ---------------------

    Doubly Occupied:

       1A    -26.368597     2A    -20.567172     3A    -11.430976
       4A    -11.267622     5A    -11.244928     6A     -1.716842
       7A     -1.376414     8A     -1.081745     9A     -0.930391
      10A     -0.869362    11A     -0.770958    12A     -0.759173
      13A     -0.702996    14A     -0.637274    15A     -0.611908
      16A     -0.567233    17A     -0.545918    18A     -0.530226
      19A     -0.496087    20A     -0.463035

  @DF-RHF Final Energy:  -290.93174839121536

   => Energetics <=

    Nuclear Repulsion Energy =            176.4285999902682818
    One-Electron Energy =                -748.8429801768012339
    Two-Electron Energy =                 281.4826317953176158
    Total Energy =                       -290.9317483912153648
  Basis Set: (AUG-CC-PVTZ AUX)
    Blend: AUG-CC-PVTZ-RI
    Molecular point group: c1

    Geometry (in Angstrom), charge = 0, multiplicity = 1:

       Center              X                  Y                   Z               Mass
    ------------   -----------------  -----------------  -----------------  -----------------
         F            0.631810120654     1.195800973777     0.101647830016    18.998403162730
         O            1.461098120654    -0.837447026223    -0.303222169984    15.994914619570
         C           -0.833805879346    -0.606626026223     0.500915830016    12.000000000000
         C           -1.940909879346     0.025715973777    -0.347084169984    12.000000000000
         C            0.538433320654    -0.072977126223     0.062016430016    12.000000000000
         H           -0.950599879346    -0.308956026223     1.548657830016     1.007825032230
         H           -0.859754879346    -1.696771026223     0.451051830016     1.007825032230
         H           -1.830024879346    -0.248640026223    -1.399156169984     1.007825032230
         H           -2.917863879346    -0.324207026223    -0.006520169984     1.007825032230
         H           -1.913597879346     1.113270973777    -0.267896169984     1.007825032230

  Basis Set: AUG-CC-PVTZ
    Blend: AUG-CC-PVTZ
  Basis Set: (AUG-CC-PVTZ AUX)
    Blend: AUG-CC-PVTZ-JKFIT
	 Reference Energy          =    -290.9317483912153648 [Eh]
	 Singles Energy            =      -0.0000000000000000 [Eh]
	 Same-Spin Energy          =      -0.2618607595169287 [Eh]
	 Opposite-Spin Energy      =      -0.8275463703852325 [Eh]
	 Correlation Energy        =      -1.0894071299021613 [Eh]
	 Total Energy              =    -292.0211555211175209 [Eh]

	 ================> DF-SCS-MP2 Energies <==================
	-----------------------------------------------------------
	 SCS Same-Spin Scale       =       0.3333333333333333 [-]
	 SCS Opposite-Spin Scale   =       1.2000000000000000 [-]
	 SCS Same-Spin Energy      =      -0.0872869198389762 [Eh]
	 SCS Opposite-Spin Energy  =      -0.9930556444622789 [Eh]
	 SCS Correlation Energy    =      -1.0803425643012552 [Eh]
	 SCS Total Energy          =    -292.0120909555166122 [Eh]
	-----------------------------------------------------------

  Dipole Moment: [D]
     X:    -2.9377      Y:     0.4170      Z:     0.8879     Total:     3.0971

*** Psi4 exiting successfully. Buy a developer a beer!
