                               Psi4 1.3.2 release

  ==> Input File <==

--------------------------------------------------------------------------
#psi4
#
memory 32 gb

molecule  {
0 1
  F        0.6553605     1.2462132     0.1310167
  O        1.5750600    -0.7893450    -0.3055120
  C       -0.7198440    -0.5585240     0.4986260
  C       -1.8269480     0.0738180    -0.3493740
  C        0.6450590    -0.1245570     0.0566130
  H       -0.8366380    -0.2608540     1.5463680
  H       -0.7457930    -1.6486690     0.4487620
  H       -1.7160630    -0.2005380    -1.4014460
  H       -2.8039020    -0.2761050    -0.0088100
  H       -1.7996360     1.1613730    -0.2701860
units angstrom
no_reorient  #important for SAPT in psi4, default
symmetry c1  #important for SAPT in psi4, default
}

set PROPERTIES_ORIGIN ["COM"]
properties('MP2/aug-cc-pvtz', properties = ['dipole'])
--------------------------------------------------------------------------

    Molecular point group: c1
  Charge       = 0
  Multiplicity = 1
  Basis Set: AUG-CC-PVTZ
    Blend: AUG-CC-PVTZ
  Basis Set: (AUG-CC-PVTZ AUX)
    Blend: AUG-CC-PVTZ-JKFIT

    Orbital Energies [Eh]
    ---------------------

    Doubly Occupied:

       1A    -26.328556     2A    -20.588228     3A    -11.428496
       4A    -11.266660     5A    -11.245013     6A     -1.646563
       7A     -1.424977     8A     -1.087553     9A     -0.926022
      10A     -0.832275    11A     -0.734954    12A     -0.722052
      13A     -0.706848    14A     -0.643081    15A     -0.609526
      16A     -0.580991    17A     -0.555509    18A     -0.528331
      19A     -0.519658    20A     -0.481352

  @DF-RHF Final Energy:  -290.94074386470390

   => Energetics <=

    Nuclear Repulsion Energy =            176.5044628474612125
    One-Electron Energy =                -749.1771214941435346
    Two-Electron Energy =                 281.7319147819783893
    Total Energy =                       -290.9407438647039044
  Basis Set: (AUG-CC-PVTZ AUX)
    Blend: AUG-CC-PVTZ-RI
    Molecular point group: c1

    Geometry (in Angstrom), charge = 0, multiplicity = 1:

       Center              X                  Y                   Z               Mass
    ------------   -----------------  -----------------  -----------------  -----------------
         F            0.565147805313     1.213266450188     0.125887308374    18.998403162730
         O            1.484847305313    -0.822291749812    -0.310641391626    15.994914619570
         C           -0.810056694687    -0.591470749812     0.493496608374    12.000000000000
         C           -1.917160694687     0.040871250188    -0.354503391626    12.000000000000
         C            0.554846305313    -0.157503749812     0.051483608374    12.000000000000
         H           -0.926850694687    -0.293800749812     1.541238608374     1.007825032230
         H           -0.836005694687    -1.681615749812     0.443632608374     1.007825032230
         H           -1.806275694687    -0.233484749812    -1.406575391626     1.007825032230
         H           -2.894114694687    -0.309051749812    -0.013939391626     1.007825032230
         H           -1.889848694687     1.128426250188    -0.275315391626     1.007825032230

  Basis Set: AUG-CC-PVTZ
    Blend: AUG-CC-PVTZ
  Basis Set: (AUG-CC-PVTZ AUX)
    Blend: AUG-CC-PVTZ-JKFIT
	 Reference Energy          =    -290.9407438647039044 [Eh]
	 Singles Energy            =      -0.0000000000000000 [Eh]
	 Same-Spin Energy          =      -0.2622175648629287 [Eh]
	 Opposite-Spin Energy      =      -0.8285040268650119 [Eh]
	 Correlation Energy        =      -1.0907215917279407 [Eh]
	 Total Energy              =    -292.0314654564318175 [Eh]

	 ================> DF-SCS-MP2 Energies <==================
	-----------------------------------------------------------
	 SCS Same-Spin Scale       =       0.3333333333333333 [-]
	 SCS Opposite-Spin Scale   =       1.2000000000000000 [-]
	 SCS Same-Spin Energy      =      -0.0874058549543096 [Eh]
	 SCS Opposite-Spin Energy  =      -0.9942048322380143 [Eh]
	 SCS Correlation Energy    =      -1.0816106871923239 [Eh]
	 SCS Total Energy          =    -292.0223545518962283 [Eh]
	-----------------------------------------------------------

  Dipole Moment: [D]
     X:    -2.7669      Y:    -0.3638      Z:     0.7729     Total:     2.8958

*** Psi4 exiting successfully. Buy a developer a beer!
