                               Psi4 1.3.2 release

  ==> Input File <==

--------------------------------------------------------------------------
#psi4
#
memory 32 gb

molecule  {
0 1
  F        0.7457720     1.2439030     0.0993580
  O        1.5635884    -0.8066164    -0.3026616
  C       -0.7198440    -0.5585240     0.4986260
  C       -1.8269480     0.0738180    -0.3493740
  C        0.6450590    -0.1245570     0.0566130
  H       -0.8366380    -0.2608540     1.5463680
  H       -0.7457930    -1.6486690     0.4487620
  H       -1.7160630    -0.2005380    -1.4014460
  H       -2.8039020    -0.2761050    -0.0088100
  H       -1.7996360     1.1613730    -0.2701860
units angstrom
no_reorient  #important for SAPT in psi4, default
symmetry c1  #important for SAPT in psi4, default
}

set PROPERTIES_ORIGIN ["COM"]
properties('MP2/aug-cc-pvtz', properties = ['dipole'])
--------------------------------------------------------------------------

    Molecular point group: c1
  Charge       = 0
  Multiplicity = 1
  Basis Set: AUG-CC-PVTZ
    Blend: AUG-CC-PVTZ
  Basis Set: (AUG-CC-PVTZ AUX)
    Blend: AUG-CC-PVTZ-JKFIT

    Orbital Energies [Eh]
    ---------------------

    Doubly Occupied:

       1A    -26.327686     2A    -20.584036     3A    -11.426701
       4A    -11.269498     5A    -11.246542     6A     -1.644874
       7A     -1.421817     8A     -1.088828     9A     -0.925732
      10A     -0.832677    11A     -0.733500    12A     -0.719849
      13A     -0.705867    14A     -0.642104    15A     -0.613978
      16A     -0.580671    17A     -0.554972    18A     -0.530654
      19A     -0.518140    20A     -0.480651

  @DF-RHF Final Energy:  -290.94300945473520

   => Energetics <=

    Nuclear Repulsion Energy =            176.0604186487038589
    One-Electron Energy =                -748.3093037728887111
    Two-Electron Energy =                 281.3058756694496765
    Total Energy =                       -290.9430094547352041
  Basis Set: (AUG-CC-PVTZ AUX)
    Blend: AUG-CC-PVTZ-RI
    Molecular point group: c1

    Geometry (in Angstrom), charge = 0, multiplicity = 1:

       Center              X                  Y                   Z               Mass
    ------------   -----------------  -----------------  -----------------  -----------------
         F            0.635381249662     1.215166882741     0.101539603787    18.998403162730
         O            1.453197649662    -0.835352517259    -0.300479996213    15.994914619570
         C           -0.830234750338    -0.587260117259     0.500807603787    12.000000000000
         C           -1.937338750338     0.045081882741    -0.347192396213    12.000000000000
         C            0.534668249662    -0.153293117259     0.058794603787    12.000000000000
         H           -0.947028750338    -0.289590117259     1.548549603787     1.007825032230
         H           -0.856183750338    -1.677405117259     0.450943603787     1.007825032230
         H           -1.826453750338    -0.229274117259    -1.399264396213     1.007825032230
         H           -2.914292750338    -0.304841117259    -0.006628396213     1.007825032230
         H           -1.910026750338     1.132636882741    -0.268004396213     1.007825032230

  Basis Set: AUG-CC-PVTZ
    Blend: AUG-CC-PVTZ
  Basis Set: (AUG-CC-PVTZ AUX)
    Blend: AUG-CC-PVTZ-JKFIT
	 Reference Energy          =    -290.9430094547352041 [Eh]
	 Singles Energy            =      -0.0000000000000000 [Eh]
	 Same-Spin Energy          =      -0.2619067766334760 [Eh]
	 Opposite-Spin Energy      =      -0.8279936510228185 [Eh]
	 Correlation Energy        =      -1.0899004276562945 [Eh]
	 Total Energy              =    -292.0329098823914933 [Eh]

	 ================> DF-SCS-MP2 Energies <==================
	-----------------------------------------------------------
	 SCS Same-Spin Scale       =       0.3333333333333333 [-]
	 SCS Opposite-Spin Scale   =       1.2000000000000000 [-]
	 SCS Same-Spin Energy      =      -0.0873022588778253 [Eh]
	 SCS Opposite-Spin Energy  =      -0.9935923812273821 [Eh]
	 SCS Correlation Energy    =      -1.0808946401052075 [Eh]
	 SCS Total Energy          =    -292.0239040948404181 [Eh]
	-----------------------------------------------------------

  Dipole Moment: [D]
     X:    -2.9121      Y:    -0.3536      Z:     0.8143     Total:     3.0444

*** Psi4 exiting successfully. Buy a developer a beer!
