                               Psi4 1.4a3.dev225

  ==> Input File <==

--------------------------------------------------------------------------
#psi4
#
memory 32 gb

molecule  {
0 1
  F        0.7457770     1.2438890     0.0993500
  O        1.5749420    -0.7893990    -0.3055700
  C       -0.7198600    -0.5584570     0.4987450
  C       -1.8268110     0.0738080    -0.3494590
  C        0.6268277    -0.1303437     0.0625835
  H       -0.8367390    -0.2606700     1.5464390
  H       -0.7458570    -1.6486110     0.4490110
  H       -1.7161610    -0.2011590    -1.4014030
  H       -2.8038590    -0.2755580    -0.0085930
  H       -1.7991210     1.1614070    -0.2708750
units angstrom
no_reorient  #important for SAPT in psi4, default
symmetry c1  #important for SAPT in psi4, default
}

set PROPERTIES_ORIGIN ["COM"]
properties('MP2/aug-cc-pvtz', properties = ['dipole'])
--------------------------------------------------------------------------

    Molecular point group: c1
  Charge       = 0
  Multiplicity = 1
  Basis Set: AUG-CC-PVTZ
    Blend: AUG-CC-PVTZ
  Basis Set: (AUG-CC-PVTZ AUX)
    Blend: AUG-CC-PVTZ-JKFIT

    Orbital Energies [Eh]
    ---------------------

    Doubly Occupied:

       1A    -26.324350     2A    -20.582989     3A    -11.428336
       4A    -11.271469     5A    -11.248711     6A     -1.639974
       7A     -1.411857     8A     -1.095254     9A     -0.929850
      10A     -0.830044    11A     -0.731570    12A     -0.717388
      13A     -0.702322    14A     -0.642091    15A     -0.615353
      16A     -0.580461    17A     -0.554941    18A     -0.532665
      19A     -0.514726    20A     -0.482679

  @DF-RHF Final Energy:  -290.94066409253776

   => Energetics <=

    Nuclear Repulsion Energy =            176.0034957315728832
    One-Electron Energy =                -748.2142600544377729
    Two-Electron Energy =                 281.2701002303271025
    Total Energy =                       -290.9406640925377587
  Basis Set: (AUG-CC-PVTZ AUX)
    Blend: AUG-CC-PVTZ-RI
    Molecular point group: c1

    Geometry (in Angstrom), charge = 0, multiplicity = 1:

       Center              X                  Y                   Z               Mass
    ------------   -----------------  -----------------  -----------------  -----------------
         F            0.635850938624     1.212435989294     0.101199212124    18.998403162730
         O            1.465015938624    -0.820852010706    -0.303720787876    15.994914619570
         C           -0.829786061376    -0.589910010706     0.500594212124    12.000000000000
         C           -1.936737061376     0.042354989294    -0.347609787876    12.000000000000
         C            0.516901638624    -0.161796710706     0.064432712124    12.000000000000
         H           -0.946665061376    -0.292123010706     1.548288212124     1.007825032230
         H           -0.855783061376    -1.680064010706     0.450860212124     1.007825032230
         H           -1.826087061376    -0.232612010706    -1.399553787876     1.007825032230
         H           -2.913785061376    -0.307011010706    -0.006743787876     1.007825032230
         H           -1.909047061376     1.129953989294    -0.269025787876     1.007825032230

  Basis Set: AUG-CC-PVTZ
    Blend: AUG-CC-PVTZ
  Basis Set: (AUG-CC-PVTZ AUX)
    Blend: AUG-CC-PVTZ-JKFIT
	 Reference Energy          =    -290.9406640925377587 [Eh]
	 Singles Energy            =      -0.0000000000000000 [Eh]
	 Same-Spin Energy          =      -0.2624529335478890 [Eh]
	 Opposite-Spin Energy      =      -0.8290715364782908 [Eh]
	 Correlation Energy        =      -1.0915244700261799 [Eh]
	 Total Energy              =    -292.0321885625639311 [Eh]

	 ================> DF-SCS-MP2 Energies <==================
	-----------------------------------------------------------
	 SCS Same-Spin Scale       =       0.3333333333333333 [-]
	 SCS Opposite-Spin Scale   =       1.2000000000000000 [-]
	 SCS Same-Spin Energy      =      -0.0874843111826297 [Eh]
	 SCS Opposite-Spin Energy  =      -0.9948858437739490 [Eh]
	 SCS Correlation Energy    =      -1.0823701549565785 [Eh]
	 SCS Total Energy          =    -292.0230342474943654 [Eh]
	-----------------------------------------------------------

  Dipole Moment: [D]
     X:    -3.0718      Y:    -0.4197      Z:     0.8534     Total:     3.2156

*** Psi4 exiting successfully. Buy a developer a beer!
