                               Psi4 1.3.2 release

  ==> Input File <==

--------------------------------------------------------------------------
#psi4
#
memory 32 gb

molecule  {
0 1
  F        0.7457720     1.2439030     0.0993580
  O        1.5750600    -0.7893450    -0.3055120
  C       -0.7198440    -0.5585240     0.4986260
  C       -1.8269480     0.0738180    -0.3493740
  C        0.6687796    -0.2255514     0.0430859
  H       -0.8366380    -0.2608540     1.5463680
  H       -0.7457930    -1.6486690     0.4487620
  H       -1.7160630    -0.2005380    -1.4014460
  H       -2.8039020    -0.2761050    -0.0088100
  H       -1.7996360     1.1613730    -0.2701860
units angstrom
no_reorient  #important for SAPT in psi4, default
symmetry c1  #important for SAPT in psi4, default
}

set PROPERTIES_ORIGIN ["COM"]
properties('MP2/aug-cc-pvtz', properties = ['dipole'])
--------------------------------------------------------------------------

    Molecular point group: c1
  Charge       = 0
  Multiplicity = 1
  Basis Set: AUG-CC-PVTZ
    Blend: AUG-CC-PVTZ
  Basis Set: (AUG-CC-PVTZ AUX)
    Blend: AUG-CC-PVTZ-JKFIT

    Orbital Energies [Eh]
    ---------------------

    Doubly Occupied:

       1A    -26.278056     2A    -20.603259     3A    -11.418858
       4A    -11.274587     5A    -11.246926     6A     -1.583795
       7A     -1.483354     8A     -1.089662     9A     -0.924651
      10A     -0.801548    11A     -0.726091    12A     -0.714237
      13A     -0.682234    14A     -0.644528    15A     -0.596937
      16A     -0.585783    17A     -0.571610    18A     -0.538311
      19A     -0.526283    20A     -0.490058

  @DF-RHF Final Energy:  -290.93397239395074

   => Energetics <=

    Nuclear Repulsion Energy =            175.9924603352818337
    One-Electron Energy =                -748.2913336367087140
    Two-Electron Energy =                 281.3649009074761125
    Total Energy =                       -290.9339723939507394
  Basis Set: (AUG-CC-PVTZ AUX)
    Blend: AUG-CC-PVTZ-RI
    Molecular point group: c1

    Geometry (in Angstrom), charge = 0, multiplicity = 1:

       Center              X                  Y                   Z               Mass
    ------------   -----------------  -----------------  -----------------  -----------------
         F            0.629224214002     1.227473185096     0.104274187822    18.998403162730
         O            1.458512214002    -0.805774814904    -0.300595812178    15.994914619570
         C           -0.836391785998    -0.574953814904     0.503542187822    12.000000000000
         C           -1.943495785998     0.057388185096    -0.344457812178    12.000000000000
         C            0.552231814002    -0.241981214904     0.048002087822    12.000000000000
         H           -0.953185785998    -0.277283814904     1.551284187822     1.007825032230
         H           -0.862340785998    -1.665098814904     0.453678187822     1.007825032230
         H           -1.832610785998    -0.216967814904    -1.396529812178     1.007825032230
         H           -2.920449785998    -0.292534814904    -0.003893812178     1.007825032230
         H           -1.916183785998     1.144943185096    -0.265269812178     1.007825032230

  Basis Set: AUG-CC-PVTZ
    Blend: AUG-CC-PVTZ
  Basis Set: (AUG-CC-PVTZ AUX)
    Blend: AUG-CC-PVTZ-JKFIT
	 Reference Energy          =    -290.9339723939507394 [Eh]
	 Singles Energy            =      -0.0000000000000000 [Eh]
	 Same-Spin Energy          =      -0.2613078191249680 [Eh]
	 Opposite-Spin Energy      =      -0.8269781820979634 [Eh]
	 Correlation Energy        =      -1.0882860012229314 [Eh]
	 Total Energy              =    -292.0222583951736510 [Eh]

	 ================> DF-SCS-MP2 Energies <==================
	-----------------------------------------------------------
	 SCS Same-Spin Scale       =       0.3333333333333333 [-]
	 SCS Opposite-Spin Scale   =       1.2000000000000000 [-]
	 SCS Same-Spin Energy      =      -0.0871026063749893 [Eh]
	 SCS Opposite-Spin Energy  =      -0.9923738185175560 [Eh]
	 SCS Correlation Energy    =      -1.0794764248925452 [Eh]
	 SCS Total Energy          =    -292.0134488188433011 [Eh]
	-----------------------------------------------------------

  Dipole Moment: [D]
     X:    -2.7608      Y:    -1.2941      Z:     0.6901     Total:     3.1262

*** Psi4 exiting successfully. Buy a developer a beer!
