                               Psi4 1.3.2 release

  ==> Input File <==

--------------------------------------------------------------------------
#psi4
#
memory 32 gb

molecule  {
0 1
  F        0.7457720     1.2439030     0.0993580
  O        1.5750600    -0.7893450    -0.3055120
  C       -0.7198440    -0.5585240     0.4986260
  C       -1.8631236     0.0477979    -0.3198636
  C        0.6450590    -0.1245570     0.0566130
  H       -0.8366380    -0.2608540     1.5463680
  H       -0.7457930    -1.6486690     0.4487620
  H       -1.7160630    -0.2005380    -1.4014460
  H       -2.8039020    -0.2761050    -0.0088100
  H       -1.7996360     1.1613730    -0.2701860
units angstrom
no_reorient  #important for SAPT in psi4, default
symmetry c1  #important for SAPT in psi4, default
}

set PROPERTIES_ORIGIN ["COM"]
properties('MP2/aug-cc-pvtz', properties = ['dipole'])
--------------------------------------------------------------------------

    Molecular point group: c1
  Charge       = 0
  Multiplicity = 1
  Basis Set: AUG-CC-PVTZ
    Blend: AUG-CC-PVTZ
  Basis Set: (AUG-CC-PVTZ AUX)
    Blend: AUG-CC-PVTZ-JKFIT

    Orbital Energies [Eh]
    ---------------------

    Doubly Occupied:

       1A    -26.326370     2A    -20.584617     3A    -11.427769
       4A    -11.270477     5A    -11.247422     6A     -1.644194
       7A     -1.421823     8A     -1.089070     9A     -0.927824
      10A     -0.831975    11A     -0.733387    12A     -0.719361
      13A     -0.705627    14A     -0.639083    15A     -0.617415
      16A     -0.589985    17A     -0.554294    18A     -0.522783
      19A     -0.514837    20A     -0.484100

  @DF-RHF Final Energy:  -290.93989492983980

   => Energetics <=

    Nuclear Repulsion Energy =            175.8095702732484540
    One-Electron Energy =                -747.7941044369883912
    Two-Electron Energy =                 281.0446392339001136
    Total Energy =                       -290.9398949298397952
  Basis Set: (AUG-CC-PVTZ AUX)
    Blend: AUG-CC-PVTZ-RI
    Molecular point group: c1

    Geometry (in Angstrom), charge = 0, multiplicity = 1:

       Center              X                  Y                   Z               Mass
    ------------   -----------------  -----------------  -----------------  -----------------
         F            0.638677473323     1.215640189007     0.097481692671    18.998403162730
         O            1.467965473323    -0.817607810993    -0.307388307329    15.994914619570
         C           -0.826938526677    -0.586786810993     0.496749692671    12.000000000000
         C           -1.970218126677     0.019535089007    -0.321739907329    12.000000000000
         C            0.537964473323    -0.152819810993     0.054736692671    12.000000000000
         H           -0.943732526677    -0.289116810993     1.544491692671     1.007825032230
         H           -0.852887526677    -1.676931810993     0.446885692671     1.007825032230
         H           -1.823157526677    -0.228800810993    -1.403322307329     1.007825032230
         H           -2.910996526677    -0.304367810993    -0.010686307329     1.007825032230
         H           -1.906730526677     1.133110189007    -0.272062307329     1.007825032230

  Basis Set: AUG-CC-PVTZ
    Blend: AUG-CC-PVTZ
  Basis Set: (AUG-CC-PVTZ AUX)
    Blend: AUG-CC-PVTZ-JKFIT
	 Reference Energy          =    -290.9398949298397952 [Eh]
	 Singles Energy            =      -0.0000000000000000 [Eh]
	 Same-Spin Energy          =      -0.2619056092276896 [Eh]
	 Opposite-Spin Energy      =      -0.8281062777452524 [Eh]
	 Correlation Energy        =      -1.0900118869729418 [Eh]
	 Total Energy              =    -292.0299068168127405 [Eh]

	 ================> DF-SCS-MP2 Energies <==================
	-----------------------------------------------------------
	 SCS Same-Spin Scale       =       0.3333333333333333 [-]
	 SCS Opposite-Spin Scale   =       1.2000000000000000 [-]
	 SCS Same-Spin Energy      =      -0.0873018697425632 [Eh]
	 SCS Opposite-Spin Energy  =      -0.9937275332943027 [Eh]
	 SCS Correlation Energy    =      -1.0810294030368659 [Eh]
	 SCS Total Energy          =    -292.0209243328766888 [Eh]
	-----------------------------------------------------------

  Dipole Moment: [D]
     X:    -2.9448      Y:    -0.3933      Z:     0.8280     Total:     3.0842

*** Psi4 exiting successfully. Buy a developer a beer!
