                               Psi4 1.4a3.dev225

  ==> Input File <==

--------------------------------------------------------------------------
#psi4
#
memory 32 gb

molecule  {
0 1
  F        0.7457770     1.2438890     0.0993500
  O        1.5749420    -0.7893990    -0.3055700
  C       -0.7198600    -0.5584570     0.4987450
  C       -1.8268110     0.0738080    -0.3494590
  C        0.6413710    -0.1743950     0.0551311
  H       -0.8367390    -0.2606700     1.5464390
  H       -0.7458570    -1.6486110     0.4490110
  H       -1.7161610    -0.2011590    -1.4014030
  H       -2.8038590    -0.2755580    -0.0085930
  H       -1.7991210     1.1614070    -0.2708750
units angstrom
no_reorient  #important for SAPT in psi4, default
symmetry c1  #important for SAPT in psi4, default
}

set PROPERTIES_ORIGIN ["COM"]
properties('MP2/aug-cc-pvtz', properties = ['dipole'])
--------------------------------------------------------------------------

    Molecular point group: c1
  Charge       = 0
  Multiplicity = 1
  Basis Set: AUG-CC-PVTZ
    Blend: AUG-CC-PVTZ
  Basis Set: (AUG-CC-PVTZ AUX)
    Blend: AUG-CC-PVTZ-JKFIT

    Orbital Energies [Eh]
    ---------------------

    Doubly Occupied:

       1A    -26.303967     2A    -20.591860     3A    -11.424834
       4A    -11.272683     5A    -11.248243     6A     -1.612076
       7A     -1.442178     8A     -1.094071     9A     -0.928227
      10A     -0.814996    11A     -0.720611    12A     -0.717430
      13A     -0.691864    14A     -0.644821    15A     -0.608497
      16A     -0.584507    17A     -0.560417    18A     -0.532195
      19A     -0.525573    20A     -0.488198

  @DF-RHF Final Energy:  -290.94116095869401

   => Energetics <=

    Nuclear Repulsion Energy =            175.9473377856912180
    One-Electron Energy =                -748.1624950656125748
    Two-Electron Energy =                 281.2739963212274006
    Total Energy =                       -290.9411609586940131
  Basis Set: (AUG-CC-PVTZ AUX)
    Blend: AUG-CC-PVTZ-RI
    Molecular point group: c1

    Geometry (in Angstrom), charge = 0, multiplicity = 1:

       Center              X                  Y                   Z               Mass
    ------------   -----------------  -----------------  -----------------  -----------------
         F            0.633555607930     1.219388489826     0.102375404766    18.998403162730
         O            1.462720607930    -0.813899510174    -0.302544595234    15.994914619570
         C           -0.832081392070    -0.582957510174     0.501770404766    12.000000000000
         C           -1.939032392070     0.049307489826    -0.346433595234    12.000000000000
         C            0.529149607930    -0.198895510174     0.058156504766    12.000000000000
         H           -0.948960392070    -0.285170510174     1.549464404766     1.007825032230
         H           -0.858078392070    -1.673111510174     0.452036404766     1.007825032230
         H           -1.828382392070    -0.225659510174    -1.398377595234     1.007825032230
         H           -2.916080392070    -0.300058510174    -0.005567595234     1.007825032230
         H           -1.911342392070     1.136906489826    -0.267849595234     1.007825032230

  Basis Set: AUG-CC-PVTZ
    Blend: AUG-CC-PVTZ
  Basis Set: (AUG-CC-PVTZ AUX)
    Blend: AUG-CC-PVTZ-JKFIT
	 Reference Energy          =    -290.9411609586940131 [Eh]
	 Singles Energy            =      -0.0000000000000000 [Eh]
	 Same-Spin Energy          =      -0.2620687041339215 [Eh]
	 Opposite-Spin Energy      =      -0.8284063392282918 [Eh]
	 Correlation Energy        =      -1.0904750433622132 [Eh]
	 Total Energy              =    -292.0316360020562456 [Eh]

	 ================> DF-SCS-MP2 Energies <==================
	-----------------------------------------------------------
	 SCS Same-Spin Scale       =       0.3333333333333333 [-]
	 SCS Opposite-Spin Scale   =       1.2000000000000000 [-]
	 SCS Same-Spin Energy      =      -0.0873562347113072 [Eh]
	 SCS Opposite-Spin Energy  =      -0.9940876070739501 [Eh]
	 SCS Correlation Energy    =      -1.0814438417852572 [Eh]
	 SCS Total Energy          =    -292.0226048004792574 [Eh]
	-----------------------------------------------------------

  Dipole Moment: [D]
     X:    -2.9627      Y:    -0.8051      Z:     0.7894     Total:     3.1700

*** Psi4 exiting successfully. Buy a developer a beer!
