                               Psi4 1.3.2 release

  ==> Input File <==

--------------------------------------------------------------------------
#psi4
#
memory 32 gb

molecule  {
0 1
  F        0.7457720     1.2439030     0.0993580
  O        1.5750600    -0.7893450    -0.3055120
  C       -0.7198440    -0.5585240     0.4986260
  C       -1.8269480     0.0738180    -0.3493740
  C        0.6597314     0.0748068     0.0628403
  H       -0.8366380    -0.2608540     1.5463680
  H       -0.7457930    -1.6486690     0.4487620
  H       -1.7160630    -0.2005380    -1.4014460
  H       -2.8039020    -0.2761050    -0.0088100
  H       -1.7996360     1.1613730    -0.2701860
units angstrom
no_reorient  #important for SAPT in psi4, default
symmetry c1  #important for SAPT in psi4, default
}

set PROPERTIES_ORIGIN ["COM"]
properties('MP2/aug-cc-pvtz', properties = ['dipole'])
--------------------------------------------------------------------------

    Molecular point group: c1
  Charge       = 0
  Multiplicity = 1
  Basis Set: AUG-CC-PVTZ
    Blend: AUG-CC-PVTZ
  Basis Set: (AUG-CC-PVTZ AUX)
    Blend: AUG-CC-PVTZ-JKFIT

    Orbital Energies [Eh]
    ---------------------

    Doubly Occupied:

       1A    -26.411612     2A    -20.549372     3A    -11.437020
       4A    -11.265906     5A    -11.243228     6A     -1.804753
       7A     -1.330567     8A     -1.075842     9A     -0.964215
      10A     -0.891003    11A     -0.820896    12A     -0.811924
      13A     -0.695105    14A     -0.636551    15A     -0.599939
      16A     -0.551455    17A     -0.534379    18A     -0.528432
      19A     -0.469282    20A     -0.440900

  @DF-RHF Final Energy:  -290.89153980970082

   => Energetics <=

    Nuclear Repulsion Energy =            177.0182965959898240
    One-Electron Energy =                -749.6949137913014738
    Two-Electron Energy =                 281.7850773856108617
    Total Energy =                       -290.8915398097008165
  Basis Set: (AUG-CC-PVTZ AUX)
    Blend: AUG-CC-PVTZ-RI
    Molecular point group: c1

    Geometry (in Angstrom), charge = 0, multiplicity = 1:

       Center              X                  Y                   Z               Mass
    ------------   -----------------  -----------------  -----------------  -----------------
         F            0.630652267551     1.180068442325     0.101156402955    18.998403162730
         O            1.459940267551    -0.853179557675    -0.303713597045    15.994914619570
         C           -0.834963732449    -0.622358557675     0.500424402955    12.000000000000
         C           -1.942067732449     0.009983442325    -0.347575597045    12.000000000000
         C            0.544611667551     0.010972242325     0.064638702955    12.000000000000
         H           -0.951757732449    -0.324688557675     1.548166402955     1.007825032230
         H           -0.860912732449    -1.712503557675     0.450560402955     1.007825032230
         H           -1.831182732449    -0.264372557675    -1.399647597045     1.007825032230
         H           -2.919021732449    -0.339939557675    -0.007011597045     1.007825032230
         H           -1.914755732449     1.097538442325    -0.268387597045     1.007825032230

  Basis Set: AUG-CC-PVTZ
    Blend: AUG-CC-PVTZ
  Basis Set: (AUG-CC-PVTZ AUX)
    Blend: AUG-CC-PVTZ-JKFIT
	 Reference Energy          =    -290.8915398097008165 [Eh]
	 Singles Energy            =      -0.0000000000000000 [Eh]
	 Same-Spin Energy          =      -0.2622734909811237 [Eh]
	 Opposite-Spin Energy      =      -0.8279917201567533 [Eh]
	 Correlation Energy        =      -1.0902652111378770 [Eh]
	 Total Energy              =    -291.9818050208386921 [Eh]

	 ================> DF-SCS-MP2 Energies <==================
	-----------------------------------------------------------
	 SCS Same-Spin Scale       =       0.3333333333333333 [-]
	 SCS Opposite-Spin Scale   =       1.2000000000000000 [-]
	 SCS Same-Spin Energy      =      -0.0874244969937079 [Eh]
	 SCS Opposite-Spin Energy  =      -0.9935900641881039 [Eh]
	 SCS Correlation Energy    =      -1.0810145611818118 [Eh]
	 SCS Total Energy          =    -291.9725543708826194 [Eh]
	-----------------------------------------------------------

  Dipole Moment: [D]
     X:    -2.9417      Y:     1.2118      Z:     0.9567     Total:     3.3223

*** Psi4 exiting successfully. Buy a developer a beer!
