                               Psi4 1.3.2 release

  ==> Input File <==

--------------------------------------------------------------------------
#psi4
#
memory 32 gb

molecule  {
0 1
  F        0.7908212     1.2402458     0.0834409
  O        1.5750600    -0.7893450    -0.3055120
  C       -0.7198440    -0.5585240     0.4986260
  C       -1.8269480     0.0738180    -0.3493740
  C        0.6450590    -0.1245570     0.0566130
  H       -0.8366380    -0.2608540     1.5463680
  H       -0.7457930    -1.6486690     0.4487620
  H       -1.7160630    -0.2005380    -1.4014460
  H       -2.8039020    -0.2761050    -0.0088100
  H       -1.7996360     1.1613730    -0.2701860
units angstrom
no_reorient  #important for SAPT in psi4, default
symmetry c1  #important for SAPT in psi4, default
}

set PROPERTIES_ORIGIN ["COM"]
properties('MP2/aug-cc-pvtz', properties = ['dipole'])
--------------------------------------------------------------------------

    Molecular point group: c1
  Charge       = 0
  Multiplicity = 1
  Basis Set: AUG-CC-PVTZ
    Blend: AUG-CC-PVTZ
  Basis Set: (AUG-CC-PVTZ AUX)
    Blend: AUG-CC-PVTZ-JKFIT

    Orbital Energies [Eh]
    ---------------------

    Doubly Occupied:

       1A    -26.324496     2A    -20.581206     3A    -11.425352
       4A    -11.272424     5A    -11.247988     6A     -1.642587
       7A     -1.418915     8A     -1.090563     9A     -0.926234
      10A     -0.831744    11A     -0.732454    12A     -0.717515
      13A     -0.704184    14A     -0.641953    15A     -0.615771
      16A     -0.580046    17A     -0.554787    18A     -0.532324
      19A     -0.517197    20A     -0.480847

  @DF-RHF Final Energy:  -290.94336413515367

   => Energetics <=

    Nuclear Repulsion Energy =            175.8868152354736765
    One-Electron Energy =                -747.9831833434889177
    Two-Electron Energy =                 281.1530039728615407
    Total Energy =                       -290.9433641351536721
  Basis Set: (AUG-CC-PVTZ AUX)
    Blend: AUG-CC-PVTZ-RI
    Molecular point group: c1

    Geometry (in Angstrom), charge = 0, multiplicity = 1:

       Center              X                  Y                   Z               Mass
    ------------   -----------------  -----------------  -----------------  -----------------
         F            0.666760625491     1.208790138290     0.090199384052    18.998403162730
         O            1.450999425491    -0.820800661710    -0.298753515948    15.994914619570
         C           -0.843904574509    -0.589979661710     0.505384484052    12.000000000000
         C           -1.951008574509     0.042362338290    -0.342615515948    12.000000000000
         C            0.520998425491    -0.156012661710     0.063371484052    12.000000000000
         H           -0.960698574509    -0.292309661710     1.553126484052     1.007825032230
         H           -0.869853574509    -1.680124661710     0.455520484052     1.007825032230
         H           -1.840123574509    -0.231993661710    -1.394687515948     1.007825032230
         H           -2.927962574509    -0.307560661710    -0.002051515948     1.007825032230
         H           -1.923696574509     1.129917338290    -0.263427515948     1.007825032230

  Basis Set: AUG-CC-PVTZ
    Blend: AUG-CC-PVTZ
  Basis Set: (AUG-CC-PVTZ AUX)
    Blend: AUG-CC-PVTZ-JKFIT
	 Reference Energy          =    -290.9433641351536721 [Eh]
	 Singles Energy            =      -0.0000000000000000 [Eh]
	 Same-Spin Energy          =      -0.2617466600838857 [Eh]
	 Opposite-Spin Energy      =      -0.8277075211581140 [Eh]
	 Correlation Energy        =      -1.0894541812419996 [Eh]
	 Total Energy              =    -292.0328183163956624 [Eh]

	 ================> DF-SCS-MP2 Energies <==================
	-----------------------------------------------------------
	 SCS Same-Spin Scale       =       0.3333333333333333 [-]
	 SCS Opposite-Spin Scale   =       1.2000000000000000 [-]
	 SCS Same-Spin Energy      =      -0.0872488866946286 [Eh]
	 SCS Opposite-Spin Energy  =      -0.9932490253897367 [Eh]
	 SCS Correlation Energy    =      -1.0804979120843652 [Eh]
	 SCS Total Energy          =    -292.0238620472380262 [Eh]
	-----------------------------------------------------------

  Dipole Moment: [D]
     X:    -3.0432      Y:    -0.3956      Z:     0.8473     Total:     3.1836

*** Psi4 exiting successfully. Buy a developer a beer!
