                               Psi4 1.3.2 release

  ==> Input File <==

--------------------------------------------------------------------------
#psi4
#
memory 32 gb

molecule  {
0 1
  F        0.7005033     1.2459088     0.1149426
  O        1.5750600    -0.7893450    -0.3055120
  C       -0.7198440    -0.5585240     0.4986260
  C       -1.8269480     0.0738180    -0.3493740
  C        0.6450590    -0.1245570     0.0566130
  H       -0.8366380    -0.2608540     1.5463680
  H       -0.7457930    -1.6486690     0.4487620
  H       -1.7160630    -0.2005380    -1.4014460
  H       -2.8039020    -0.2761050    -0.0088100
  H       -1.7996360     1.1613730    -0.2701860
units angstrom
no_reorient  #important for SAPT in psi4, default
symmetry c1  #important for SAPT in psi4, default
}

set PROPERTIES_ORIGIN ["COM"]
properties('MP2/aug-cc-pvtz', properties = ['dipole'])
--------------------------------------------------------------------------

    Molecular point group: c1
  Charge       = 0
  Multiplicity = 1
  Basis Set: AUG-CC-PVTZ
    Blend: AUG-CC-PVTZ
  Basis Set: (AUG-CC-PVTZ AUX)
    Blend: AUG-CC-PVTZ-JKFIT

    Orbital Energies [Eh]
    ---------------------

    Doubly Occupied:

       1A    -26.327336     2A    -20.585918     3A    -11.427445
       4A    -11.268607     5A    -11.246037     6A     -1.645198
       7A     -1.423012     8A     -1.088573     9A     -0.926043
      10A     -0.832214    11A     -0.733957    12A     -0.720601
      13A     -0.706037    14A     -0.642615    15A     -0.611778
      16A     -0.580786    17A     -0.555217    18A     -0.529681
      19A     -0.519030    20A     -0.481389

  @DF-RHF Final Energy:  -290.94237184839216

   => Energetics <=

    Nuclear Repulsion Energy =            176.2749065493172509
    One-Electron Energy =                -748.7316113101120436
    Two-Electron Energy =                 281.5143329124026081
    Total Energy =                       -290.9423718483921562
  Basis Set: (AUG-CC-PVTZ AUX)
    Blend: AUG-CC-PVTZ-RI
    Molecular point group: c1

    Geometry (in Angstrom), charge = 0, multiplicity = 1:

       Center              X                  Y                   Z               Mass
    ------------   -----------------  -----------------  -----------------  -----------------
         F            0.599010668998     1.213038111323     0.113829681086    18.998403162730
         O            1.473567368998    -0.822215688677    -0.306624918914    15.994914619570
         C           -0.821336631002    -0.591394688677     0.497513081086    12.000000000000
         C           -1.928440631002     0.040947311323    -0.350486918914    12.000000000000
         C            0.543566368998    -0.157427688677     0.055500081086    12.000000000000
         H           -0.938130631002    -0.293724688677     1.545255081086     1.007825032230
         H           -0.847285631002    -1.681539688677     0.447649081086     1.007825032230
         H           -1.817555631002    -0.233408688677    -1.402558918914     1.007825032230
         H           -2.905394631002    -0.308975688677    -0.009922918914     1.007825032230
         H           -1.901128631002     1.128502311323    -0.271298918914     1.007825032230

  Basis Set: AUG-CC-PVTZ
    Blend: AUG-CC-PVTZ
  Basis Set: (AUG-CC-PVTZ AUX)
    Blend: AUG-CC-PVTZ-JKFIT
	 Reference Energy          =    -290.9423718483921562 [Eh]
	 Singles Energy            =      -0.0000000000000000 [Eh]
	 Same-Spin Energy          =      -0.2620375421585507 [Eh]
	 Opposite-Spin Energy      =      -0.8281917190992552 [Eh]
	 Correlation Energy        =      -1.0902292612578059 [Eh]
	 Total Energy              =    -292.0326011096499883 [Eh]

	 ================> DF-SCS-MP2 Energies <==================
	-----------------------------------------------------------
	 SCS Same-Spin Scale       =       0.3333333333333333 [-]
	 SCS Opposite-Spin Scale   =       1.2000000000000000 [-]
	 SCS Same-Spin Energy      =      -0.0873458473861836 [Eh]
	 SCS Opposite-Spin Energy  =      -0.9938300629191061 [Eh]
	 SCS Correlation Energy    =      -1.0811759103052898 [Eh]
	 SCS Total Energy          =    -292.0235477586974184 [Eh]
	-----------------------------------------------------------

  Dipole Moment: [D]
     X:    -2.8602      Y:    -0.3773      Z:     0.7979     Total:     2.9933

*** Psi4 exiting successfully. Buy a developer a beer!
