                               Psi4 1.3.2 release

  ==> Input File <==

--------------------------------------------------------------------------
#psi4
#
memory 32 gb

molecule  {
0 1
  F        0.7457720     1.2439030     0.0993580
  O        1.5750600    -0.7893450    -0.3055120
  C       -0.7198440    -0.5585240     0.4986260
  C       -1.8452072     0.0609023    -0.3347457
  C        0.6450590    -0.1245570     0.0566130
  H       -0.8366380    -0.2608540     1.5463680
  H       -0.7457930    -1.6486690     0.4487620
  H       -1.7160630    -0.2005380    -1.4014460
  H       -2.8039020    -0.2761050    -0.0088100
  H       -1.7996360     1.1613730    -0.2701860
units angstrom
no_reorient  #important for SAPT in psi4, default
symmetry c1  #important for SAPT in psi4, default
}

set PROPERTIES_ORIGIN ["COM"]
properties('MP2/aug-cc-pvtz', properties = ['dipole'])
--------------------------------------------------------------------------

    Molecular point group: c1
  Charge       = 0
  Multiplicity = 1
  Basis Set: AUG-CC-PVTZ
    Blend: AUG-CC-PVTZ
  Basis Set: (AUG-CC-PVTZ AUX)
    Blend: AUG-CC-PVTZ-JKFIT

    Orbital Energies [Eh]
    ---------------------

    Doubly Occupied:

       1A    -26.326157     2A    -20.584079     3A    -11.427056
       4A    -11.270442     5A    -11.247111     6A     -1.644012
       7A     -1.421389     8A     -1.089270     9A     -0.926838
      10A     -0.831964    11A     -0.733249    12A     -0.719198
      13A     -0.705345    14A     -0.640469    15A     -0.615347
      16A     -0.585007    17A     -0.554999    18A     -0.526842
      19A     -0.516837    20A     -0.482800

  @DF-RHF Final Energy:  -290.94241970745298

   => Energetics <=

    Nuclear Repulsion Energy =            175.9369791227222493
    One-Electron Energy =                -748.0619785169183160
    Two-Electron Energy =                 281.1825796867430540
    Total Energy =                       -290.9424197074529843
  Basis Set: (AUG-CC-PVTZ AUX)
    Blend: AUG-CC-PVTZ-RI
    Molecular point group: c1

    Geometry (in Angstrom), charge = 0, multiplicity = 1:

       Center              X                  Y                   Z               Mass
    ------------   -----------------  -----------------  -----------------  -----------------
         F            0.635849775150     1.213571956107     0.099830495275    18.998403162730
         O            1.465137775150    -0.819676043893    -0.305039504725    15.994914619570
         C           -0.829766224850    -0.588855043893     0.499098495275    12.000000000000
         C           -1.955129424850     0.030571256107    -0.334273204725    12.000000000000
         C            0.535136775150    -0.154888043893     0.057085495275    12.000000000000
         H           -0.946560224850    -0.291185043893     1.546840495275     1.007825032230
         H           -0.855715224850    -1.679000043893     0.449234495275     1.007825032230
         H           -1.825985224850    -0.230869043893    -1.400973504725     1.007825032230
         H           -2.913824224850    -0.306436043893    -0.008337504725     1.007825032230
         H           -1.909558224850     1.131041956107    -0.269713504725     1.007825032230

  Basis Set: AUG-CC-PVTZ
    Blend: AUG-CC-PVTZ
  Basis Set: (AUG-CC-PVTZ AUX)
    Blend: AUG-CC-PVTZ-JKFIT
	 Reference Energy          =    -290.9424197074529843 [Eh]
	 Singles Energy            =      -0.0000000000000000 [Eh]
	 Same-Spin Energy          =      -0.2618805569283799 [Eh]
	 Opposite-Spin Energy      =      -0.8279770023787600 [Eh]
	 Correlation Energy        =      -1.0898575593071400 [Eh]
	 Total Energy              =    -292.0322772667601043 [Eh]

	 ================> DF-SCS-MP2 Energies <==================
	-----------------------------------------------------------
	 SCS Same-Spin Scale       =       0.3333333333333333 [-]
	 SCS Opposite-Spin Scale   =       1.2000000000000000 [-]
	 SCS Same-Spin Energy      =      -0.0872935189761266 [Eh]
	 SCS Opposite-Spin Energy  =      -0.9935724028545120 [Eh]
	 SCS Correlation Energy    =      -1.0808659218306387 [Eh]
	 SCS Total Energy          =    -292.0232856292836345 [Eh]
	-----------------------------------------------------------

  Dipole Moment: [D]
     X:    -2.9500      Y:    -0.3906      Z:     0.8250     Total:     3.0880

*** Psi4 exiting successfully. Buy a developer a beer!
