                               Psi4 1.3.2 release

  ==> Input File <==

--------------------------------------------------------------------------
#psi4
#
memory 32 gb

molecule  {
0 1
  F        0.7457720     1.2439030     0.0993580
  O        1.5021063    -0.8897538    -0.2867865
  C       -0.7198440    -0.5585240     0.4986260
  C       -1.8269480     0.0738180    -0.3493740
  C        0.6450590    -0.1245570     0.0566130
  H       -0.8366380    -0.2608540     1.5463680
  H       -0.7457930    -1.6486690     0.4487620
  H       -1.7160630    -0.2005380    -1.4014460
  H       -2.8039020    -0.2761050    -0.0088100
  H       -1.7996360     1.1613730    -0.2701860
units angstrom
no_reorient  #important for SAPT in psi4, default
symmetry c1  #important for SAPT in psi4, default
}

set PROPERTIES_ORIGIN ["COM"]
properties('MP2/aug-cc-pvtz', properties = ['dipole'])
--------------------------------------------------------------------------

    Molecular point group: c1
  Charge       = 0
  Multiplicity = 1
  Basis Set: AUG-CC-PVTZ
    Blend: AUG-CC-PVTZ
  Basis Set: (AUG-CC-PVTZ AUX)
    Blend: AUG-CC-PVTZ-JKFIT

    Orbital Energies [Eh]
    ---------------------

    Doubly Occupied:

       1A    -26.335843     2A    -20.586102     3A    -11.428270
       4A    -11.264203     5A    -11.243968     6A     -1.649870
       7A     -1.425812     8A     -1.084907     9A     -0.923761
      10A     -0.835738    11A     -0.735551    12A     -0.723579
      13A     -0.709216    14A     -0.641490    15A     -0.614148
      16A     -0.581733    17A     -0.554913    18A     -0.528702
      19A     -0.517316    20A     -0.476605

  @DF-RHF Final Energy:  -290.93941001790637

   => Energetics <=

    Nuclear Repulsion Energy =            176.0836739932352941
    One-Electron Energy =                -748.3227163328227789
    Two-Electron Energy =                 281.2996323216811447
    Total Energy =                       -290.9394100179063685
  Basis Set: (AUG-CC-PVTZ AUX)
    Blend: AUG-CC-PVTZ-RI
    Molecular point group: c1

    Geometry (in Angstrom), charge = 0, multiplicity = 1:

       Center              X                  Y                   Z               Mass
    ------------   -----------------  -----------------  -----------------  -----------------
         F            0.648315214455     1.232656464336     0.098199965348    18.998403162730
         O            1.404649514455    -0.901000335664    -0.287944534652    15.994914619570
         C           -0.817300785545    -0.569770535664     0.497467965348    12.000000000000
         C           -1.924404785545     0.062571464336    -0.350532034652    12.000000000000
         C            0.547602214455    -0.135803535664     0.055454965348    12.000000000000
         H           -0.934094785545    -0.272100535664     1.545209965348     1.007825032230
         H           -0.843249785545    -1.659915535664     0.447603965348     1.007825032230
         H           -1.813519785545    -0.211784535664    -1.402604034652     1.007825032230
         H           -2.901358785545    -0.287351535664    -0.009968034652     1.007825032230
         H           -1.897092785545     1.150126464336    -0.271344034652     1.007825032230

  Basis Set: AUG-CC-PVTZ
    Blend: AUG-CC-PVTZ
  Basis Set: (AUG-CC-PVTZ AUX)
    Blend: AUG-CC-PVTZ-JKFIT
	 Reference Energy          =    -290.9394100179063685 [Eh]
	 Singles Energy            =      -0.0000000000000000 [Eh]
	 Same-Spin Energy          =      -0.2621127347731955 [Eh]
	 Opposite-Spin Energy      =      -0.8285152469424500 [Eh]
	 Correlation Energy        =      -1.0906279817156455 [Eh]
	 Total Energy              =    -292.0300379996220386 [Eh]

	 ================> DF-SCS-MP2 Energies <==================
	-----------------------------------------------------------
	 SCS Same-Spin Scale       =       0.3333333333333333 [-]
	 SCS Opposite-Spin Scale   =       1.2000000000000000 [-]
	 SCS Same-Spin Energy      =      -0.0873709115910652 [Eh]
	 SCS Opposite-Spin Energy  =      -0.9942182963309401 [Eh]
	 SCS Correlation Energy    =      -1.0815892079220053 [Eh]
	 SCS Total Energy          =    -292.0209992258283478 [Eh]
	-----------------------------------------------------------

  Dipole Moment: [D]
     X:    -2.7001      Y:    -0.1901      Z:     0.7696     Total:     2.8141

*** Psi4 exiting successfully. Buy a developer a beer!
