                               Psi4 1.4a3.dev225

  ==> Input File <==

--------------------------------------------------------------------------
#psi4
#
memory 32 gb

molecule  {
0 1
  F        0.7457770     1.2438890     0.0993500
  O        1.5749420    -0.7893990    -0.3055700
  C       -0.7198600    -0.5584570     0.4987450
  C       -1.8268110     0.0738080    -0.3494590
  C        0.6435724    -0.1444904     0.0560634
  H       -0.8367390    -0.2606700     1.5464390
  H       -0.7458570    -1.6486110     0.4490110
  H       -1.7161610    -0.2011590    -1.4014030
  H       -2.8038590    -0.2755580    -0.0085930
  H       -1.7991210     1.1614070    -0.2708750
units angstrom
no_reorient  #important for SAPT in psi4, default
symmetry c1  #important for SAPT in psi4, default
}

set PROPERTIES_ORIGIN ["COM"]
properties('MP2/aug-cc-pvtz', properties = ['dipole'])
--------------------------------------------------------------------------

    Molecular point group: c1
  Charge       = 0
  Multiplicity = 1
  Basis Set: AUG-CC-PVTZ
    Blend: AUG-CC-PVTZ
  Basis Set: (AUG-CC-PVTZ AUX)
    Blend: AUG-CC-PVTZ-JKFIT

    Orbital Energies [Eh]
    ---------------------

    Doubly Occupied:

       1A    -26.317263     2A    -20.586860     3A    -11.425703
       4A    -11.271323     5A    -11.247499     6A     -1.630801
       7A     -1.429603     8A     -1.091336     9A     -0.926786
      10A     -0.824866    11A     -0.727434    12A     -0.717225
      13A     -0.700668    14A     -0.643516    15A     -0.612183
      16A     -0.582343    17A     -0.557099    18A     -0.531287
      19A     -0.521589    20A     -0.484225

  @DF-RHF Final Energy:  -290.94294823265386

   => Energetics <=

    Nuclear Repulsion Energy =            176.0182243681353782
    One-Electron Energy =                -748.2631317214434148
    Two-Electron Energy =                 281.3019591206541463
    Total Energy =                       -290.9429482326538619
  Basis Set: (AUG-CC-PVTZ AUX)
    Blend: AUG-CC-PVTZ-RI
    Molecular point group: c1

    Geometry (in Angstrom), charge = 0, multiplicity = 1:

       Center              X                  Y                   Z               Mass
    ------------   -----------------  -----------------  -----------------  -----------------
         F            0.633208166773     1.214668725656     0.102228262315    18.998403162730
         O            1.462373166773    -0.818619274344    -0.302691737685    15.994914619570
         C           -0.832428833227    -0.587677274344     0.501623262315    12.000000000000
         C           -1.939379833227     0.044587725656    -0.346580737685    12.000000000000
         C            0.531003566773    -0.173710674344     0.058941662315    12.000000000000
         H           -0.949307833227    -0.289890274344     1.549317262315     1.007825032230
         H           -0.858425833227    -1.677831274344     0.451889262315     1.007825032230
         H           -1.828729833227    -0.230379274344    -1.398524737685     1.007825032230
         H           -2.916427833227    -0.304778274344    -0.005714737685     1.007825032230
         H           -1.911689833227     1.132186725656    -0.267996737685     1.007825032230

  Basis Set: AUG-CC-PVTZ
    Blend: AUG-CC-PVTZ
  Basis Set: (AUG-CC-PVTZ AUX)
    Blend: AUG-CC-PVTZ-JKFIT
	 Reference Energy          =    -290.9429482326538619 [Eh]
	 Singles Energy            =      -0.0000000000000000 [Eh]
	 Same-Spin Energy          =      -0.2619435538493669 [Eh]
	 Opposite-Spin Energy      =      -0.8280999285903555 [Eh]
	 Correlation Energy        =      -1.0900434824397225 [Eh]
	 Total Energy              =    -292.0329917150936012 [Eh]

	 ================> DF-SCS-MP2 Energies <==================
	-----------------------------------------------------------
	 SCS Same-Spin Scale       =       0.3333333333333333 [-]
	 SCS Opposite-Spin Scale   =       1.2000000000000000 [-]
	 SCS Same-Spin Energy      =      -0.0873145179497890 [Eh]
	 SCS Opposite-Spin Energy  =      -0.9937199143084265 [Eh]
	 SCS Correlation Energy    =      -1.0810344322582155 [Eh]
	 SCS Total Energy          =    -292.0239826649120687 [Eh]
	-----------------------------------------------------------

  Dipole Moment: [D]
     X:    -2.9562      Y:    -0.5532      Z:     0.8095     Total:     3.1145

*** Psi4 exiting successfully. Buy a developer a beer!
