                               Psi4 1.3.2 release

  ==> Input File <==

--------------------------------------------------------------------------
#psi4
#
memory 32 gb

molecule  {
0 1
  F        0.7457720     1.2439030     0.0993580
  O        1.5750600    -0.7893450    -0.3055120
  C       -0.7198440    -0.5585240     0.4986260
  C       -1.9312536    -0.0064259    -0.2578884
  C        0.6450590    -0.1245570     0.0566130
  H       -0.8366380    -0.2608540     1.5463680
  H       -0.7457930    -1.6486690     0.4487620
  H       -1.7160630    -0.2005380    -1.4014460
  H       -2.8039020    -0.2761050    -0.0088100
  H       -1.7996360     1.1613730    -0.2701860
units angstrom
no_reorient  #important for SAPT in psi4, default
symmetry c1  #important for SAPT in psi4, default
}

set PROPERTIES_ORIGIN ["COM"]
properties('MP2/aug-cc-pvtz', properties = ['dipole'])
--------------------------------------------------------------------------

    Molecular point group: c1
  Charge       = 0
  Multiplicity = 1
  Basis Set: AUG-CC-PVTZ
    Blend: AUG-CC-PVTZ
  Basis Set: (AUG-CC-PVTZ AUX)
    Blend: AUG-CC-PVTZ-JKFIT

    Orbital Energies [Eh]
    ---------------------

    Doubly Occupied:

       1A    -26.327610     2A    -20.587153     3A    -11.431138
       4A    -11.271909     5A    -11.250933     6A     -1.645329
       7A     -1.423936     8A     -1.089366     9A     -0.934838
      10A     -0.833165    11A     -0.733992    12A     -0.720510
      13A     -0.708161    14A     -0.641349    15A     -0.629780
      16A     -0.602933    17A     -0.549997    18A     -0.512528
      19A     -0.500478    20A     -0.484063

  @DF-RHF Final Energy:  -290.91040031852623

   => Energetics <=

    Nuclear Repulsion Energy =            175.3466165399483145
    One-Electron Energy =                -746.7556965665220332
    Two-Electron Energy =                 280.4986797080475185
    Total Energy =                       -290.9104003185262286
  Basis Set: (AUG-CC-PVTZ AUX)
    Blend: AUG-CC-PVTZ-RI
    Molecular point group: c1

    Geometry (in Angstrom), charge = 0, multiplicity = 1:

       Center              X                  Y                   Z               Mass
    ------------   -----------------  -----------------  -----------------  -----------------
         F            0.649430251590     1.224198188393     0.087700310261    18.998403162730
         O            1.478718251590    -0.809049811607    -0.317169689739    15.994914619570
         C           -0.816185748410    -0.578228811607     0.486968310261    12.000000000000
         C           -2.027595348410    -0.026130711607    -0.269546089739    12.000000000000
         C            0.548717251590    -0.144261811607     0.044955310261    12.000000000000
         H           -0.932979748410    -0.280558811607     1.534710310261     1.007825032230
         H           -0.842134748410    -1.668373811607     0.437104310261     1.007825032230
         H           -1.812404748410    -0.220242811607    -1.413103689739     1.007825032230
         H           -2.900243748410    -0.295809811607    -0.020467689739     1.007825032230
         H           -1.895977748410     1.141668188393    -0.281843689739     1.007825032230

  Basis Set: AUG-CC-PVTZ
    Blend: AUG-CC-PVTZ
  Basis Set: (AUG-CC-PVTZ AUX)
    Blend: AUG-CC-PVTZ-JKFIT
	 Reference Energy          =    -290.9104003185262286 [Eh]
	 Singles Energy            =      -0.0000000000000000 [Eh]
	 Same-Spin Energy          =      -0.2622651746959520 [Eh]
	 Opposite-Spin Energy      =      -0.8294672206076157 [Eh]
	 Correlation Energy        =      -1.0917323953035676 [Eh]
	 Total Energy              =    -292.0021327138297806 [Eh]

	 ================> DF-SCS-MP2 Energies <==================
	-----------------------------------------------------------
	 SCS Same-Spin Scale       =       0.3333333333333333 [-]
	 SCS Opposite-Spin Scale   =       1.2000000000000000 [-]
	 SCS Same-Spin Energy      =      -0.0874217248986506 [Eh]
	 SCS Opposite-Spin Energy  =      -0.9953606647291388 [Eh]
	 SCS Correlation Energy    =      -1.0827823896277895 [Eh]
	 SCS Total Energy          =    -291.9931827081539950 [Eh]
	-----------------------------------------------------------

  Dipole Moment: [D]
     X:    -2.8932      Y:    -0.4060      Z:     0.8465     Total:     3.0417

*** Psi4 exiting successfully. Buy a developer a beer!
