                               Psi4 1.4a3.dev225

  ==> Input File <==

--------------------------------------------------------------------------
#psi4
#
memory 32 gb

molecule  {
0 1
  C        0.0000000     0.0000000     0.6088320
  H        0.0000000     0.0000000     1.6550150
  C        0.0000000     0.0000000    -0.6088310
  H        0.0000000     0.0000000    -1.6750240
units angstrom
no_reorient  #important for SAPT in psi4, default
symmetry c1  #important for SAPT in psi4, default
}

set PROPERTIES_ORIGIN ["COM"]
properties('MP2/aug-cc-pvtz', properties = ['dipole'])
--------------------------------------------------------------------------

    Molecular point group: c1
  Charge       = 0
  Multiplicity = 1
  Basis Set: AUG-CC-PVTZ
    Blend: AUG-CC-PVTZ
  Basis Set: (AUG-CC-PVTZ AUX)
    Blend: AUG-CC-PVTZ-JKFIT

    Orbital Energies [Eh]
    ---------------------

    Doubly Occupied:

       1A    -11.248648     2A    -11.244615     3A     -1.027070
       4A     -0.772941     5A     -0.683399     6A     -0.408001
       7A     -0.408001

  @DF-RHF Final Energy:   -76.84817352769758

   => Energetics <=

    Nuclear Repulsion Energy =             24.6095201660215501
    One-Electron Energy =                -151.3300384352470758
    Two-Electron Energy =                  49.8723447415279537
    Total Energy =                        -76.8481735276975684
  Basis Set: (AUG-CC-PVTZ AUX)
    Blend: AUG-CC-PVTZ-RI
    Molecular point group: c1

    Geometry (in Angstrom), charge = 0, multiplicity = 1:

       Center              X                  Y                   Z               Mass
    ------------   -----------------  -----------------  -----------------  -----------------
         C            0.000000000000     0.000000000000     0.609606671055    12.000000000000
         H            0.000000000000     0.000000000000     1.655789671055     1.007825032230
         C            0.000000000000     0.000000000000    -0.608056328945    12.000000000000
         H            0.000000000000     0.000000000000    -1.674249328945     1.007825032230

  Basis Set: AUG-CC-PVTZ
    Blend: AUG-CC-PVTZ
  Basis Set: (AUG-CC-PVTZ AUX)
    Blend: AUG-CC-PVTZ-JKFIT
	 Reference Energy          =     -76.8481735276975826 [Eh]
	 Singles Energy            =      -0.0000000000000000 [Eh]
	 Same-Spin Energy          =      -0.0776269029370935 [Eh]
	 Opposite-Spin Energy      =      -0.2718777684783311 [Eh]
	 Correlation Energy        =      -0.3495046714154245 [Eh]
	 Total Energy              =     -77.1976781991130139 [Eh]

	 ================> DF-SCS-MP2 Energies <==================
	-----------------------------------------------------------
	 SCS Same-Spin Scale       =       0.3333333333333333 [-]
	 SCS Opposite-Spin Scale   =       1.2000000000000000 [-]
	 SCS Same-Spin Energy      =      -0.0258756343123645 [Eh]
	 SCS Opposite-Spin Energy  =      -0.3262533221739973 [Eh]
	 SCS Correlation Energy    =      -0.3521289564863618 [Eh]
	 SCS Total Energy          =     -77.2003024841839505 [Eh]
	-----------------------------------------------------------

  Dipole Moment: [D]
     X:    -0.0000      Y:    -0.0000      Z:    -0.0207     Total:     0.0207

*** Psi4 exiting successfully. Buy a developer a beer!
