                               Psi4 1.3.2 release

  ==> Input File <==

--------------------------------------------------------------------------
#psi4
#
memory 32 gb

molecule  {
0 1
  C        0.0000000     0.0000000     0.6088320
  H        0.0000000     0.0000000     1.6748526
  C        0.0000000     0.0000000    -0.6088310
  H        0.0000000     0.0000000    -1.6750240
units angstrom
no_reorient  #important for SAPT in psi4, default
symmetry c1  #important for SAPT in psi4, default
}

set PROPERTIES_ORIGIN ["COM"]
properties('MP2/aug-cc-pvtz', properties = ['dipole'])
--------------------------------------------------------------------------

    Molecular point group: c1
  Charge       = 0
  Multiplicity = 1
  Basis Set: AUG-CC-PVTZ
    Blend: AUG-CC-PVTZ
  Basis Set: (AUG-CC-PVTZ AUX)
    Blend: AUG-CC-PVTZ-JKFIT

    Orbital Energies [Eh]
    ---------------------

    Doubly Occupied:

       1A    -11.249178     2A    -11.245697     3A     -1.026463
       4A     -0.768712     5A     -0.680054     6A     -0.407844
       7A     -0.407844

  @DF-RHF Final Energy:   -76.84812580226308

   => Energetics <=

    Nuclear Repulsion Energy =             24.5399194296235166
    One-Electron Energy =                -151.2045064760486071
    Two-Electron Energy =                  49.8164612441620136
    Total Energy =                        -76.8481258022630698
  Basis Set: (AUG-CC-PVTZ AUX)
    Blend: AUG-CC-PVTZ-RI
    Molecular point group: c1

    Geometry (in Angstrom), charge = 0, multiplicity = 1:

       Center              X                  Y                   Z               Mass
    ------------   -----------------  -----------------  -----------------  -----------------
         C            0.000000000000     0.000000000000     0.608838178635    12.000000000000
         H            0.000000000000     0.000000000000     1.674858778635     1.007825032230
         C            0.000000000000     0.000000000000    -0.608824821365    12.000000000000
         H            0.000000000000     0.000000000000    -1.675017821365     1.007825032230

  Basis Set: AUG-CC-PVTZ
    Blend: AUG-CC-PVTZ
  Basis Set: (AUG-CC-PVTZ AUX)
    Blend: AUG-CC-PVTZ-JKFIT
	 Reference Energy          =     -76.8481258022630840 [Eh]
	 Singles Energy            =      -0.0000000000000000 [Eh]
	 Same-Spin Energy          =      -0.0776510412167373 [Eh]
	 Opposite-Spin Energy      =      -0.2719084853907525 [Eh]
	 Correlation Energy        =      -0.3495595266074898 [Eh]
	 Total Energy              =     -77.1976853288705769 [Eh]

	 ================> DF-SCS-MP2 Energies <==================
	-----------------------------------------------------------
	 SCS Same-Spin Scale       =       0.3333333333333333 [-]
	 SCS Opposite-Spin Scale   =       1.2000000000000000 [-]
	 SCS Same-Spin Energy      =      -0.0258836804055791 [Eh]
	 SCS Opposite-Spin Energy  =      -0.3262901824689030 [Eh]
	 SCS Correlation Energy    =      -0.3521738628744820 [Eh]
	 SCS Total Energy          =     -77.2002996651375639 [Eh]
	-----------------------------------------------------------

  Dipole Moment: [D]
     X:     0.0000      Y:     0.0000      Z:    -0.0002     Total:     0.0002

*** Psi4 exiting successfully. Buy a developer a beer!
