                               Psi4 1.3.2 release

  ==> Input File <==

--------------------------------------------------------------------------
#psi4
#
memory 32 gb

molecule  {
0 1
  C        0.0000000     0.0000000     0.6088320
  H        0.0000000     0.0000000     1.5750150
  C        0.0000000     0.0000000    -0.6088310
  H        0.0000000     0.0000000    -1.6750240
units angstrom
no_reorient  #important for SAPT in psi4, default
symmetry c1  #important for SAPT in psi4, default
}

set PROPERTIES_ORIGIN ["COM"]
properties('MP2/aug-cc-pvtz', properties = ['dipole'])
--------------------------------------------------------------------------

    Molecular point group: c1
  Charge       = 0
  Multiplicity = 1
  Basis Set: AUG-CC-PVTZ
    Blend: AUG-CC-PVTZ
  Basis Set: (AUG-CC-PVTZ AUX)
    Blend: AUG-CC-PVTZ-JKFIT

    Orbital Energies [Eh]
    ---------------------

    Doubly Occupied:

       1A    -11.248819     2A    -11.237807     3A     -1.029991
       4A     -0.793488     5A     -0.694444     6A     -0.408685
       7A     -0.408685

  @DF-RHF Final Energy:   -76.84089695530871

   => Energetics <=

    Nuclear Repulsion Energy =             24.9160993813162506
    One-Electron Energy =                -151.8701515098044297
    Two-Electron Energy =                  50.1131551731794715
    Total Energy =                        -76.8408969553086934
  Basis Set: (AUG-CC-PVTZ AUX)
    Blend: AUG-CC-PVTZ-RI
    Molecular point group: c1

    Geometry (in Angstrom), charge = 0, multiplicity = 1:

       Center              X                  Y                   Z               Mass
    ------------   -----------------  -----------------  -----------------  -----------------
         C            0.000000000000     0.000000000000     0.612705805705    12.000000000000
         H            0.000000000000     0.000000000000     1.578888805705     1.007825032230
         C            0.000000000000     0.000000000000    -0.604957194295    12.000000000000
         H            0.000000000000     0.000000000000    -1.671150194295     1.007825032230

  Basis Set: AUG-CC-PVTZ
    Blend: AUG-CC-PVTZ
  Basis Set: (AUG-CC-PVTZ AUX)
    Blend: AUG-CC-PVTZ-JKFIT
	 Reference Energy          =     -76.8408969553087076 [Eh]
	 Singles Energy            =      -0.0000000000000000 [Eh]
	 Same-Spin Energy          =      -0.0775770998691659 [Eh]
	 Opposite-Spin Energy      =      -0.2720003123692432 [Eh]
	 Correlation Energy        =      -0.3495774122384090 [Eh]
	 Total Energy              =     -77.1904743675471110 [Eh]

	 ================> DF-SCS-MP2 Energies <==================
	-----------------------------------------------------------
	 SCS Same-Spin Scale       =       0.3333333333333333 [-]
	 SCS Opposite-Spin Scale   =       1.2000000000000000 [-]
	 SCS Same-Spin Energy      =      -0.0258590332897220 [Eh]
	 SCS Opposite-Spin Energy  =      -0.3264003748430918 [Eh]
	 SCS Correlation Energy    =      -0.3522594081328137 [Eh]
	 SCS Total Energy          =     -77.1931563634415170 [Eh]
	-----------------------------------------------------------

  Dipole Moment: [D]
     X:    -0.0000      Y:    -0.0000      Z:    -0.1026     Total:     0.1026

*** Psi4 exiting successfully. Buy a developer a beer!
