                               Psi4 1.4a3.dev225

  ==> Input File <==

--------------------------------------------------------------------------
#psi4
#
memory 32 gb

molecule  {
0 1
  C        0.0000000     0.0000000     0.6088320
  H        0.0000000     0.0000000     1.6250150
  C        0.0000000     0.0000000    -0.6088310
  H        0.0000000     0.0000000    -1.6750240
units angstrom
no_reorient  #important for SAPT in psi4, default
symmetry c1  #important for SAPT in psi4, default
}

set PROPERTIES_ORIGIN ["COM"]
properties('MP2/aug-cc-pvtz', properties = ['dipole'])
--------------------------------------------------------------------------

    Molecular point group: c1
  Charge       = 0
  Multiplicity = 1
  Basis Set: AUG-CC-PVTZ
    Blend: AUG-CC-PVTZ
  Basis Set: (AUG-CC-PVTZ AUX)
    Blend: AUG-CC-PVTZ-JKFIT

    Orbital Energies [Eh]
    ---------------------

    Doubly Occupied:

       1A    -11.248501     2A    -11.242288     3A     -1.028070
       4A     -0.780005     5A     -0.687992     6A     -0.408248
       7A     -0.408248

  @DF-RHF Final Energy:   -76.84697670460142

   => Energetics <=

    Nuclear Repulsion Energy =             24.7193972508521007
    One-Electron Energy =                -151.5260432837346798
    Two-Electron Energy =                  49.9596693282811657
    Total Energy =                        -76.8469767046014169
  Basis Set: (AUG-CC-PVTZ AUX)
    Blend: AUG-CC-PVTZ-RI
    Molecular point group: c1

    Geometry (in Angstrom), charge = 0, multiplicity = 1:

       Center              X                  Y                   Z               Mass
    ------------   -----------------  -----------------  -----------------  -----------------
         C            0.000000000000     0.000000000000     0.610768846549    12.000000000000
         H            0.000000000000     0.000000000000     1.626951846549     1.007825032230
         C            0.000000000000     0.000000000000    -0.606894153451    12.000000000000
         H            0.000000000000     0.000000000000    -1.673087153451     1.007825032230

  Basis Set: AUG-CC-PVTZ
    Blend: AUG-CC-PVTZ
  Basis Set: (AUG-CC-PVTZ AUX)
    Blend: AUG-CC-PVTZ-JKFIT
	 Reference Energy          =     -76.8469767046014169 [Eh]
	 Singles Energy            =      -0.0000000000000000 [Eh]
	 Same-Spin Energy          =      -0.0775990415878249 [Eh]
	 Opposite-Spin Energy      =      -0.2718807319721774 [Eh]
	 Correlation Energy        =      -0.3494797735600023 [Eh]
	 Total Energy              =     -77.1964564781614229 [Eh]

	 ================> DF-SCS-MP2 Energies <==================
	-----------------------------------------------------------
	 SCS Same-Spin Scale       =       0.3333333333333333 [-]
	 SCS Opposite-Spin Scale   =       1.2000000000000000 [-]
	 SCS Same-Spin Energy      =      -0.0258663471959416 [Eh]
	 SCS Opposite-Spin Energy  =      -0.3262568783666128 [Eh]
	 SCS Correlation Energy    =      -0.3521232255625544 [Eh]
	 SCS Total Energy          =     -77.1990999301639675 [Eh]
	-----------------------------------------------------------

  Dipole Moment: [D]
     X:     0.0000      Y:     0.0000      Z:    -0.0516     Total:     0.0516

*** Psi4 exiting successfully. Buy a developer a beer!
