                               Psi4 1.4a3.dev225

  ==> Input File <==

--------------------------------------------------------------------------
#psi4
#
memory 32 gb

molecule  {
0 1
  C        0.0000000     0.0000000     0.6088320
  H        0.0000000     0.0000000     1.6750150
  C        0.0000000     0.0000000    -0.6288310
  H        0.0000000     0.0000000    -1.6750240
units angstrom
no_reorient  #important for SAPT in psi4, default
symmetry c1  #important for SAPT in psi4, default
}

set PROPERTIES_ORIGIN ["COM"]
properties('MP2/aug-cc-pvtz', properties = ['dipole'])
--------------------------------------------------------------------------

    Molecular point group: c1
  Charge       = 0
  Multiplicity = 1
  Basis Set: AUG-CC-PVTZ
    Blend: AUG-CC-PVTZ
  Basis Set: (AUG-CC-PVTZ AUX)
    Blend: AUG-CC-PVTZ-JKFIT

    Orbital Energies [Eh]
    ---------------------

    Doubly Occupied:

       1A    -11.255279     2A    -11.251579     3A     -1.021630
       4A     -0.776246     5A     -0.683084     6A     -0.403837
       7A     -0.403837

  @DF-RHF Final Energy:   -76.84438207046423

   => Energetics <=

    Nuclear Repulsion Energy =             24.3314039062398493
    One-Electron Energy =                -150.7605855410839695
    Two-Electron Energy =                  49.5847995643798853
    Total Energy =                        -76.8443820704642349
  Basis Set: (AUG-CC-PVTZ AUX)
    Blend: AUG-CC-PVTZ-RI
    Molecular point group: c1

    Geometry (in Angstrom), charge = 0, multiplicity = 1:

       Center              X                  Y                   Z               Mass
    ------------   -----------------  -----------------  -----------------  -----------------
         C            0.000000000000     0.000000000000     0.618057103729    12.000000000000
         H            0.000000000000     0.000000000000     1.684240103729     1.007825032230
         C            0.000000000000     0.000000000000    -0.619605896271    12.000000000000
         H            0.000000000000     0.000000000000    -1.665798896271     1.007825032230

  Basis Set: AUG-CC-PVTZ
    Blend: AUG-CC-PVTZ
  Basis Set: (AUG-CC-PVTZ AUX)
    Blend: AUG-CC-PVTZ-JKFIT
	 Reference Energy          =     -76.8443820704642349 [Eh]
	 Singles Energy            =      -0.0000000000000000 [Eh]
	 Same-Spin Energy          =      -0.0783341483821619 [Eh]
	 Opposite-Spin Energy      =      -0.2736408322205077 [Eh]
	 Correlation Energy        =      -0.3519749806026696 [Eh]
	 Total Energy              =     -77.1963570510669115 [Eh]

	 ================> DF-SCS-MP2 Energies <==================
	-----------------------------------------------------------
	 SCS Same-Spin Scale       =       0.3333333333333333 [-]
	 SCS Opposite-Spin Scale   =       1.2000000000000000 [-]
	 SCS Same-Spin Energy      =      -0.0261113827940540 [Eh]
	 SCS Opposite-Spin Energy  =      -0.3283689986646093 [Eh]
	 SCS Correlation Energy    =      -0.3544803814586632 [Eh]
	 SCS Total Energy          =     -77.1988624519228921 [Eh]
	-----------------------------------------------------------

  Dipole Moment: [D]
     X:    -0.0000      Y:     0.0000      Z:     0.0211     Total:     0.0211

*** Psi4 exiting successfully. Buy a developer a beer!
