                               Psi4 1.4a3.dev225

  ==> Input File <==

--------------------------------------------------------------------------
#psi4
#
memory 32 gb

molecule  {
0 1
  C        0.0000000     0.0000000     0.6088320
  H        0.0000000     0.0000000     1.6750150
  C        0.0000000     0.0000000    -0.6588310
  H        0.0000000     0.0000000    -1.6750240
units angstrom
no_reorient  #important for SAPT in psi4, default
symmetry c1  #important for SAPT in psi4, default
}

set PROPERTIES_ORIGIN ["COM"]
properties('MP2/aug-cc-pvtz', properties = ['dipole'])
--------------------------------------------------------------------------

    Molecular point group: c1
  Charge       = 0
  Multiplicity = 1
  Basis Set: AUG-CC-PVTZ
    Blend: AUG-CC-PVTZ
  Basis Set: (AUG-CC-PVTZ AUX)
    Blend: AUG-CC-PVTZ-JKFIT

    Orbital Energies [Eh]
    ---------------------

    Doubly Occupied:

       1A    -11.265129     2A    -11.259367     3A     -1.014805
       4A     -0.788066     5A     -0.686887     6A     -0.398155
       7A     -0.398155

  @DF-RHF Final Energy:   -76.83501043664880

   => Energetics <=

    Nuclear Repulsion Energy =             24.0390179855702399
    One-Electron Energy =                -150.1269290362510560
    Two-Electron Energy =                  49.2529006140320149
    Total Energy =                        -76.8350104366488011
  Basis Set: (AUG-CC-PVTZ AUX)
    Blend: AUG-CC-PVTZ-RI
    Molecular point group: c1

    Geometry (in Angstrom), charge = 0, multiplicity = 1:

       Center              X                  Y                   Z               Mass
    ------------   -----------------  -----------------  -----------------  -----------------
         C            0.000000000000     0.000000000000     0.631894928235    12.000000000000
         H            0.000000000000     0.000000000000     1.698077928235     1.007825032230
         C            0.000000000000     0.000000000000    -0.635768071765    12.000000000000
         H            0.000000000000     0.000000000000    -1.651961071765     1.007825032230

  Basis Set: AUG-CC-PVTZ
    Blend: AUG-CC-PVTZ
  Basis Set: (AUG-CC-PVTZ AUX)
    Blend: AUG-CC-PVTZ-JKFIT
	 Reference Energy          =     -76.8350104366488011 [Eh]
	 Singles Energy            =      -0.0000000000000000 [Eh]
	 Same-Spin Energy          =      -0.0794307892875681 [Eh]
	 Opposite-Spin Energy      =      -0.2764398952052378 [Eh]
	 Correlation Energy        =      -0.3558706844928059 [Eh]
	 Total Energy              =     -77.1908811211416008 [Eh]

	 ================> DF-SCS-MP2 Energies <==================
	-----------------------------------------------------------
	 SCS Same-Spin Scale       =       0.3333333333333333 [-]
	 SCS Opposite-Spin Scale   =       1.2000000000000000 [-]
	 SCS Same-Spin Energy      =      -0.0264769297625227 [Eh]
	 SCS Opposite-Spin Energy  =      -0.3317278742462854 [Eh]
	 SCS Correlation Energy    =      -0.3582048040088081 [Eh]
	 SCS Total Energy          =     -77.1932152406576080 [Eh]
	-----------------------------------------------------------

  Dipole Moment: [D]
     X:    -0.0000      Y:    -0.0000      Z:     0.0541     Total:     0.0541

*** Psi4 exiting successfully. Buy a developer a beer!
