                               Psi4 1.4a3.dev225

  ==> Input File <==

--------------------------------------------------------------------------
#psi4
#
memory 32 gb

molecule  {
0 1
  C        0.0000000     0.0000000     0.6088320
  H        0.0000000     0.0000000     1.6750150
  C        0.0000000     0.0000000    -0.5588310
  H        0.0000000     0.0000000    -1.6750240
units angstrom
no_reorient  #important for SAPT in psi4, default
symmetry c1  #important for SAPT in psi4, default
}

set PROPERTIES_ORIGIN ["COM"]
properties('MP2/aug-cc-pvtz', properties = ['dipole'])
--------------------------------------------------------------------------

    Molecular point group: c1
  Charge       = 0
  Multiplicity = 1
  Basis Set: AUG-CC-PVTZ
    Blend: AUG-CC-PVTZ
  Basis Set: (AUG-CC-PVTZ AUX)
    Blend: AUG-CC-PVTZ-JKFIT

    Orbital Energies [Eh]
    ---------------------

    Doubly Occupied:

       1A    -11.235630     2A    -11.228793     3A     -1.039153
       4A     -0.751202     5A     -0.670396     6A     -0.418690
       7A     -0.418690

  @DF-RHF Final Energy:   -76.84803286569563

   => Energetics <=

    Nuclear Repulsion Energy =             25.1070085556058444
    One-Electron Energy =                -152.3849774986680643
    Two-Electron Energy =                  50.4299360773665910
    Total Energy =                        -76.8480328656956289
  Basis Set: (AUG-CC-PVTZ AUX)
    Blend: AUG-CC-PVTZ-RI
    Molecular point group: c1

    Geometry (in Angstrom), charge = 0, multiplicity = 1:

       Center              X                  Y                   Z               Mass
    ------------   -----------------  -----------------  -----------------  -----------------
         C            0.000000000000     0.000000000000     0.585768846549    12.000000000000
         H            0.000000000000     0.000000000000     1.651951846549     1.007825032230
         C            0.000000000000     0.000000000000    -0.581894153451    12.000000000000
         H            0.000000000000     0.000000000000    -1.698087153451     1.007825032230

  Basis Set: AUG-CC-PVTZ
    Blend: AUG-CC-PVTZ
  Basis Set: (AUG-CC-PVTZ AUX)
    Blend: AUG-CC-PVTZ-JKFIT
	 Reference Energy          =     -76.8480328656956289 [Eh]
	 Singles Energy            =      -0.0000000000000000 [Eh]
	 Same-Spin Energy          =      -0.0761045209501123 [Eh]
	 Opposite-Spin Energy      =      -0.2680276959937655 [Eh]
	 Correlation Energy        =      -0.3441322169438778 [Eh]
	 Total Energy              =     -77.1921650826395052 [Eh]

	 ================> DF-SCS-MP2 Energies <==================
	-----------------------------------------------------------
	 SCS Same-Spin Scale       =       0.3333333333333333 [-]
	 SCS Opposite-Spin Scale   =       1.2000000000000000 [-]
	 SCS Same-Spin Energy      =      -0.0253681736500374 [Eh]
	 SCS Opposite-Spin Energy  =      -0.3216332351925186 [Eh]
	 SCS Correlation Energy    =      -0.3470014088425560 [Eh]
	 SCS Total Energy          =     -77.1950342745381874 [Eh]
	-----------------------------------------------------------

  Dipole Moment: [D]
     X:    -0.0000      Y:    -0.0000      Z:    -0.0491     Total:     0.0491

*** Psi4 exiting successfully. Buy a developer a beer!
