                               Psi4 1.4a3.dev225

  ==> Input File <==

--------------------------------------------------------------------------
#psi4
#
memory 32 gb

molecule  {
0 1
  C        0.0000000     0.0000000     0.6088320
  H        0.0000000     0.0000000     1.7250150
  C        0.0000000     0.0000000    -0.6088310
  H        0.0000000     0.0000000    -1.6750240
units angstrom
no_reorient  #important for SAPT in psi4, default
symmetry c1  #important for SAPT in psi4, default
}

set PROPERTIES_ORIGIN ["COM"]
properties('MP2/aug-cc-pvtz', properties = ['dipole'])
--------------------------------------------------------------------------

    Molecular point group: c1
  Charge       = 0
  Multiplicity = 1
  Basis Set: AUG-CC-PVTZ
    Blend: AUG-CC-PVTZ
  Basis Set: (AUG-CC-PVTZ AUX)
    Blend: AUG-CC-PVTZ-JKFIT

    Orbital Energies [Eh]
    ---------------------

    Doubly Occupied:

       1A    -11.252416     2A    -11.246413     3A     -1.025094
       4A     -0.759573     5A     -0.670557     6A     -0.407465
       7A     -0.407465

  @DF-RHF Final Energy:   -76.84552437126415

   => Energetics <=

    Nuclear Repulsion Energy =             24.3738524604852991
    One-Electron Energy =                -150.9007910711640079
    Two-Electron Energy =                  49.6814142394145648
    Total Energy =                        -76.8455243712641476
  Basis Set: (AUG-CC-PVTZ AUX)
    Blend: AUG-CC-PVTZ-RI
    Molecular point group: c1

    Geometry (in Angstrom), charge = 0, multiplicity = 1:

       Center              X                  Y                   Z               Mass
    ------------   -----------------  -----------------  -----------------  -----------------
         C            0.000000000000     0.000000000000     0.606894928235    12.000000000000
         H            0.000000000000     0.000000000000     1.723077928235     1.007825032230
         C            0.000000000000     0.000000000000    -0.610768071765    12.000000000000
         H            0.000000000000     0.000000000000    -1.676961071765     1.007825032230

  Basis Set: AUG-CC-PVTZ
    Blend: AUG-CC-PVTZ
  Basis Set: (AUG-CC-PVTZ AUX)
    Blend: AUG-CC-PVTZ-JKFIT
	 Reference Energy          =     -76.8455243712641476 [Eh]
	 Singles Energy            =      -0.0000000000000000 [Eh]
	 Same-Spin Energy          =      -0.0777302231681728 [Eh]
	 Opposite-Spin Energy      =      -0.2721107959095603 [Eh]
	 Correlation Energy        =      -0.3498410190777331 [Eh]
	 Total Energy              =     -77.1953653903418768 [Eh]

	 ================> DF-SCS-MP2 Energies <==================
	-----------------------------------------------------------
	 SCS Same-Spin Scale       =       0.3333333333333333 [-]
	 SCS Opposite-Spin Scale   =       1.2000000000000000 [-]
	 SCS Same-Spin Energy      =      -0.0259100743893909 [Eh]
	 SCS Opposite-Spin Energy  =      -0.3265329550914724 [Eh]
	 SCS Correlation Energy    =      -0.3524430294808633 [Eh]
	 SCS Total Energy          =     -77.1979674007450143 [Eh]
	-----------------------------------------------------------

  Dipole Moment: [D]
     X:    -0.0000      Y:    -0.0000      Z:     0.0520     Total:     0.0520

*** Psi4 exiting successfully. Buy a developer a beer!
