                               Psi4 1.3.2 release

  ==> Input File <==

--------------------------------------------------------------------------
#psi4
#
memory 32 gb

molecule  {
0 1
  C        0.0000000     0.0000000     0.6088320
  H        0.0000000     0.0000000     1.6750150
  C        0.0000000     0.0000000    -0.4088310
  H        0.0000000     0.0000000    -1.6750240
units angstrom
no_reorient  #important for SAPT in psi4, default
symmetry c1  #important for SAPT in psi4, default
}

set PROPERTIES_ORIGIN ["COM"]
properties('MP2/aug-cc-pvtz', properties = ['dipole'])
--------------------------------------------------------------------------

    Molecular point group: c1
  Charge       = 0
  Multiplicity = 1
  Basis Set: AUG-CC-PVTZ
    Blend: AUG-CC-PVTZ
  Basis Set: (AUG-CC-PVTZ AUX)
    Blend: AUG-CC-PVTZ-JKFIT

    Orbital Energies [Eh]
    ---------------------

    Doubly Occupied:

       1A    -11.199114     2A    -11.176306     3A     -1.075492
       4A     -0.712571     5A     -0.625368     6A     -0.460237
       7A     -0.460237

  @DF-RHF Final Energy:   -76.74319759119777

   => Energetics <=

    Nuclear Repulsion Energy =             27.2771090263457054
    One-Electron Energy =                -156.6219628100872683
    Two-Electron Energy =                  52.6016561925438140
    Total Energy =                        -76.7431975911977560
  Basis Set: (AUG-CC-PVTZ AUX)
    Blend: AUG-CC-PVTZ-RI
    Molecular point group: c1

    Geometry (in Angstrom), charge = 0, multiplicity = 1:

       Center              X                  Y                   Z               Mass
    ------------   -----------------  -----------------  -----------------  -----------------
         C            0.000000000000     0.000000000000     0.516579724019    12.000000000000
         H            0.000000000000     0.000000000000     1.582762724019     1.007825032230
         C            0.000000000000     0.000000000000    -0.501083275981    12.000000000000
         H            0.000000000000     0.000000000000    -1.767276275981     1.007825032230

  Basis Set: AUG-CC-PVTZ
    Blend: AUG-CC-PVTZ
  Basis Set: (AUG-CC-PVTZ AUX)
    Blend: AUG-CC-PVTZ-JKFIT
	 Reference Energy          =     -76.7431975911977702 [Eh]
	 Singles Energy            =      -0.0000000000000000 [Eh]
	 Same-Spin Energy          =      -0.0726258052603864 [Eh]
	 Opposite-Spin Energy      =      -0.2595669672401013 [Eh]
	 Correlation Energy        =      -0.3321927725004877 [Eh]
	 Total Energy              =     -77.0753903636982614 [Eh]

	 ================> DF-SCS-MP2 Energies <==================
	-----------------------------------------------------------
	 SCS Same-Spin Scale       =       0.3333333333333333 [-]
	 SCS Opposite-Spin Scale   =       1.2000000000000000 [-]
	 SCS Same-Spin Energy      =      -0.0242086017534621 [Eh]
	 SCS Opposite-Spin Energy  =      -0.3114803606881216 [Eh]
	 SCS Correlation Energy    =      -0.3356889624415837 [Eh]
	 SCS Total Energy          =     -77.0788865536393502 [Eh]
	-----------------------------------------------------------

  Dipole Moment: [D]
     X:    -0.0000      Y:    -0.0000      Z:    -0.1539     Total:     0.1539

*** Psi4 exiting successfully. Buy a developer a beer!
