                               Psi4 1.3.2 release

  ==> Input File <==

--------------------------------------------------------------------------
#psi4
#
memory 32 gb

molecule  {
0 1
  C        0.0000000     0.0000000     0.6088320
  H        0.0000000     0.0000000     1.7750150
  C        0.0000000     0.0000000    -0.6088310
  H        0.0000000     0.0000000    -1.6750240
units angstrom
no_reorient  #important for SAPT in psi4, default
symmetry c1  #important for SAPT in psi4, default
}

set PROPERTIES_ORIGIN ["COM"]
properties('MP2/aug-cc-pvtz', properties = ['dipole'])
--------------------------------------------------------------------------

    Molecular point group: c1
  Charge       = 0
  Multiplicity = 1
  Basis Set: AUG-CC-PVTZ
    Blend: AUG-CC-PVTZ
  Basis Set: (AUG-CC-PVTZ AUX)
    Blend: AUG-CC-PVTZ-JKFIT

    Orbital Energies [Eh]
    ---------------------

    Doubly Occupied:

       1A    -11.256332     2A    -11.246217     3A     -1.023926
       4A     -0.752487     5A     -0.659826     6A     -0.407109
       7A     -0.407109

  @DF-RHF Final Energy:   -76.84009821462730

   => Energetics <=

    Nuclear Repulsion Energy =             24.2211014372345872
    One-Electron Energy =                -150.6163884772723236
    Two-Electron Energy =                  49.5551888254104469
    Total Energy =                        -76.8400982146272895
  Basis Set: (AUG-CC-PVTZ AUX)
    Blend: AUG-CC-PVTZ-RI
    Molecular point group: c1

    Geometry (in Angstrom), charge = 0, multiplicity = 1:

       Center              X                  Y                   Z               Mass
    ------------   -----------------  -----------------  -----------------  -----------------
         C            0.000000000000     0.000000000000     0.604957969078    12.000000000000
         H            0.000000000000     0.000000000000     1.771140969078     1.007825032230
         C            0.000000000000     0.000000000000    -0.612705030922    12.000000000000
         H            0.000000000000     0.000000000000    -1.678898030922     1.007825032230

  Basis Set: AUG-CC-PVTZ
    Blend: AUG-CC-PVTZ
  Basis Set: (AUG-CC-PVTZ AUX)
    Blend: AUG-CC-PVTZ-JKFIT
	 Reference Energy          =     -76.8400982146273037 [Eh]
	 Singles Energy            =      -0.0000000000000000 [Eh]
	 Same-Spin Energy          =      -0.0778301504575162 [Eh]
	 Opposite-Spin Energy      =      -0.2724861542116688 [Eh]
	 Correlation Energy        =      -0.3503163046691850 [Eh]
	 Total Energy              =     -77.1904145192964819 [Eh]

	 ================> DF-SCS-MP2 Energies <==================
	-----------------------------------------------------------
	 SCS Same-Spin Scale       =       0.3333333333333333 [-]
	 SCS Opposite-Spin Scale   =       1.2000000000000000 [-]
	 SCS Same-Spin Energy      =      -0.0259433834858387 [Eh]
	 SCS Opposite-Spin Energy  =      -0.3269833850540025 [Eh]
	 SCS Correlation Energy    =      -0.3529267685398413 [Eh]
	 SCS Total Energy          =     -77.1930249831671489 [Eh]
	-----------------------------------------------------------

  Dipole Moment: [D]
     X:    -0.0000      Y:     0.0000      Z:     0.1044     Total:     0.1044

*** Psi4 exiting successfully. Buy a developer a beer!
