                               Psi4 1.3.2 release

  ==> Input File <==

--------------------------------------------------------------------------
#psi4
#
memory 32 gb

molecule  {
0 1
  C        0.0000000     0.0000000     0.6088320
  H        0.0000000     0.0000000     1.4750150
  C        0.0000000     0.0000000    -0.6088310
  H        0.0000000     0.0000000    -1.6750240
units angstrom
no_reorient  #important for SAPT in psi4, default
symmetry c1  #important for SAPT in psi4, default
}

set PROPERTIES_ORIGIN ["COM"]
properties('MP2/aug-cc-pvtz', properties = ['dipole'])
--------------------------------------------------------------------------

    Molecular point group: c1
  Charge       = 0
  Multiplicity = 1
  Basis Set: AUG-CC-PVTZ
    Blend: AUG-CC-PVTZ
  Basis Set: (AUG-CC-PVTZ AUX)
    Blend: AUG-CC-PVTZ-JKFIT

    Orbital Energies [Eh]
    ---------------------

    Doubly Occupied:

       1A    -11.249988     2A    -11.228754     3A     -1.035101
       4A     -0.825547     5A     -0.703636     6A     -0.409691
       7A     -0.409691

  @DF-RHF Final Energy:   -76.80730134549866

   => Energetics <=

    Nuclear Repulsion Energy =             25.3704254032427912
    One-Electron Energy =                -152.6306372427088434
    Two-Electron Energy =                  50.4529104939673942
    Total Energy =                        -76.8073013454986580
  Basis Set: (AUG-CC-PVTZ AUX)
    Blend: AUG-CC-PVTZ-RI
    Molecular point group: c1

    Geometry (in Angstrom), charge = 0, multiplicity = 1:

       Center              X                  Y                   Z               Mass
    ------------   -----------------  -----------------  -----------------  -----------------
         C            0.000000000000     0.000000000000     0.616579724019    12.000000000000
         H            0.000000000000     0.000000000000     1.482762724019     1.007825032230
         C            0.000000000000     0.000000000000    -0.601083275981    12.000000000000
         H            0.000000000000     0.000000000000    -1.667276275981     1.007825032230

  Basis Set: AUG-CC-PVTZ
    Blend: AUG-CC-PVTZ
  Basis Set: (AUG-CC-PVTZ AUX)
    Blend: AUG-CC-PVTZ-JKFIT
	 Reference Energy          =     -76.8073013454986580 [Eh]
	 Singles Energy            =      -0.0000000000000000 [Eh]
	 Same-Spin Energy          =      -0.0776318681591886 [Eh]
	 Opposite-Spin Energy      =      -0.2725655307647264 [Eh]
	 Correlation Energy        =      -0.3501973989239150 [Eh]
	 Total Energy              =     -77.1574987444225684 [Eh]

	 ================> DF-SCS-MP2 Energies <==================
	-----------------------------------------------------------
	 SCS Same-Spin Scale       =       0.3333333333333333 [-]
	 SCS Opposite-Spin Scale   =       1.2000000000000000 [-]
	 SCS Same-Spin Energy      =      -0.0258772893863962 [Eh]
	 SCS Opposite-Spin Energy  =      -0.3270786369176718 [Eh]
	 SCS Correlation Energy    =      -0.3529559263040680 [Eh]
	 SCS Total Energy          =     -77.1602572718027204 [Eh]
	-----------------------------------------------------------

  Dipole Moment: [D]
     X:     0.0000      Y:    -0.0000      Z:    -0.2031     Total:     0.2031

*** Psi4 exiting successfully. Buy a developer a beer!
