                               Psi4 1.3.2 release

  ==> Input File <==

--------------------------------------------------------------------------
#psi4
#
memory 32 gb

molecule  {
0 1
  C        0.0000000     0.0000000     0.6088320
  H        0.0000000     0.0000000     1.6750150
  C        0.0000000     0.0000000    -0.7088310
  H        0.0000000     0.0000000    -1.6750240
units angstrom
no_reorient  #important for SAPT in psi4, default
symmetry c1  #important for SAPT in psi4, default
}

set PROPERTIES_ORIGIN ["COM"]
properties('MP2/aug-cc-pvtz', properties = ['dipole'])
--------------------------------------------------------------------------

    Molecular point group: c1
  Charge       = 0
  Multiplicity = 1
  Basis Set: AUG-CC-PVTZ
    Blend: AUG-CC-PVTZ
  Basis Set: (AUG-CC-PVTZ AUX)
    Blend: AUG-CC-PVTZ-JKFIT

    Orbital Energies [Eh]
    ---------------------

    Doubly Occupied:

       1A    -11.281758     2A    -11.271143     3A     -1.004972
       4A     -0.808523     5A     -0.691326     6A     -0.389476
       7A     -0.389476

  @DF-RHF Final Energy:   -76.80978007934240

   => Energetics <=

    Nuclear Repulsion Energy =             23.6019228179472300
    One-Electron Energy =                -149.1500541439370693
    Two-Electron Energy =                  48.7383512466474258
    Total Energy =                        -76.8097800793424170
  Basis Set: (AUG-CC-PVTZ AUX)
    Blend: AUG-CC-PVTZ-RI
    Molecular point group: c1

    Geometry (in Angstrom), charge = 0, multiplicity = 1:

       Center              X                  Y                   Z               Mass
    ------------   -----------------  -----------------  -----------------  -----------------
         C            0.000000000000     0.000000000000     0.654957969078    12.000000000000
         H            0.000000000000     0.000000000000     1.721140969078     1.007825032230
         C            0.000000000000     0.000000000000    -0.662705030922    12.000000000000
         H            0.000000000000     0.000000000000    -1.628898030922     1.007825032230

  Basis Set: AUG-CC-PVTZ
    Blend: AUG-CC-PVTZ
  Basis Set: (AUG-CC-PVTZ AUX)
    Blend: AUG-CC-PVTZ-JKFIT
	 Reference Energy          =     -76.8097800793424028 [Eh]
	 Singles Energy            =      -0.0000000000000000 [Eh]
	 Same-Spin Energy          =      -0.0814570884271202 [Eh]
	 Opposite-Spin Energy      =      -0.2816439503277599 [Eh]
	 Correlation Energy        =      -0.3631010387548801 [Eh]
	 Total Energy              =     -77.1728811180972798 [Eh]

	 ================> DF-SCS-MP2 Energies <==================
	-----------------------------------------------------------
	 SCS Same-Spin Scale       =       0.3333333333333333 [-]
	 SCS Opposite-Spin Scale   =       1.2000000000000000 [-]
	 SCS Same-Spin Energy      =      -0.0271523628090401 [Eh]
	 SCS Opposite-Spin Energy  =      -0.3379727403933118 [Eh]
	 SCS Correlation Energy    =      -0.3651251032023519 [Eh]
	 SCS Total Energy          =     -77.1749051825447481 [Eh]
	-----------------------------------------------------------

  Dipole Moment: [D]
     X:    -0.0000      Y:    -0.0000      Z:     0.1122     Total:     0.1122

*** Psi4 exiting successfully. Buy a developer a beer!
