                               Psi4 1.3.2 release

  ==> Input File <==

--------------------------------------------------------------------------
#psi4
#
memory 32 gb

molecule  {
0 1
  C        0.0000000     0.0000000     0.6088320
  H        0.0000000     0.0000000     1.6750150
  C        0.0000000     0.0000000    -0.5088310
  H        0.0000000     0.0000000    -1.6750240
units angstrom
no_reorient  #important for SAPT in psi4, default
symmetry c1  #important for SAPT in psi4, default
}

set PROPERTIES_ORIGIN ["COM"]
properties('MP2/aug-cc-pvtz', properties = ['dipole'])
--------------------------------------------------------------------------

    Molecular point group: c1
  Charge       = 0
  Multiplicity = 1
  Basis Set: AUG-CC-PVTZ
    Blend: AUG-CC-PVTZ
  Basis Set: (AUG-CC-PVTZ AUX)
    Blend: AUG-CC-PVTZ-JKFIT

    Orbital Energies [Eh]
    ---------------------

    Doubly Occupied:

       1A    -11.222665     2A    -11.211016     3A     -1.052127
       4A     -0.736129     5A     -0.657839     6A     -0.430877
       7A     -0.430877

  @DF-RHF Final Energy:   -76.83274433671937

   => Energetics <=

    Nuclear Repulsion Energy =             25.7474616577724760
    One-Electron Energy =                -153.6773514104162643
    Two-Electron Energy =                  51.0971454159244161
    Total Energy =                        -76.8327443367193723
  Basis Set: (AUG-CC-PVTZ AUX)
    Blend: AUG-CC-PVTZ-RI
    Molecular point group: c1

    Geometry (in Angstrom), charge = 0, multiplicity = 1:

       Center              X                  Y                   Z               Mass
    ------------   -----------------  -----------------  -----------------  -----------------
         C            0.000000000000     0.000000000000     0.562705805705    12.000000000000
         H            0.000000000000     0.000000000000     1.628888805705     1.007825032230
         C            0.000000000000     0.000000000000    -0.554957194295    12.000000000000
         H            0.000000000000     0.000000000000    -1.721150194295     1.007825032230

  Basis Set: AUG-CC-PVTZ
    Blend: AUG-CC-PVTZ
  Basis Set: (AUG-CC-PVTZ AUX)
    Blend: AUG-CC-PVTZ-JKFIT
	 Reference Energy          =     -76.8327443367193723 [Eh]
	 Singles Energy            =      -0.0000000000000000 [Eh]
	 Same-Spin Energy          =      -0.0747683510730278 [Eh]
	 Opposite-Spin Energy      =      -0.2647287087049756 [Eh]
	 Correlation Energy        =      -0.3394970597780034 [Eh]
	 Total Energy              =     -77.1722413964973697 [Eh]

	 ================> DF-SCS-MP2 Energies <==================
	-----------------------------------------------------------
	 SCS Same-Spin Scale       =       0.3333333333333333 [-]
	 SCS Opposite-Spin Scale   =       1.2000000000000000 [-]
	 SCS Same-Spin Energy      =      -0.0249227836910093 [Eh]
	 SCS Opposite-Spin Energy  =      -0.3176744504459706 [Eh]
	 SCS Correlation Energy    =      -0.3425972341369799 [Eh]
	 SCS Total Energy          =     -77.1753415708563466 [Eh]
	-----------------------------------------------------------

  Dipole Moment: [D]
     X:     0.0000      Y:     0.0000      Z:    -0.0919     Total:     0.0919

*** Psi4 exiting successfully. Buy a developer a beer!
