                               Psi4 1.3.2 release

  ==> Input File <==

--------------------------------------------------------------------------
#psi4
#
memory 32 gb

molecule  {
0 1
  C        0.0000000     0.0000000     0.6088320
  H        0.0000000     0.0000000     1.6691743
  C        0.0000000     0.0000000    -0.6088310
  H        0.0000000     0.0000000    -1.6750240
units angstrom
no_reorient  #important for SAPT in psi4, default
symmetry c1  #important for SAPT in psi4, default
}

set PROPERTIES_ORIGIN ["COM"]
properties('MP2/aug-cc-pvtz', properties = ['dipole'])
--------------------------------------------------------------------------

    Molecular point group: c1
  Charge       = 0
  Multiplicity = 1
  Basis Set: AUG-CC-PVTZ
    Blend: AUG-CC-PVTZ
  Basis Set: (AUG-CC-PVTZ AUX)
    Blend: AUG-CC-PVTZ-JKFIT

    Orbital Energies [Eh]
    ---------------------

    Doubly Occupied:

       1A    -11.248974     2A    -11.245442     3A     -1.026633
       4A     -0.769886     5A     -0.681036     6A     -0.407888
       7A     -0.407888

  @DF-RHF Final Energy:   -76.84820228718132

   => Energetics <=

    Nuclear Repulsion Energy =             24.5596032063908325
    One-Electron Energy =                -151.2401150853063712
    Two-Electron Energy =                  49.8323095917342016
    Total Energy =                        -76.8482022871813371
  Basis Set: (AUG-CC-PVTZ AUX)
    Blend: AUG-CC-PVTZ-RI
    Molecular point group: c1

    Geometry (in Angstrom), charge = 0, multiplicity = 1:

       Center              X                  Y                   Z               Mass
    ------------   -----------------  -----------------  -----------------  -----------------
         C            0.000000000000     0.000000000000     0.609058151339    12.000000000000
         H            0.000000000000     0.000000000000     1.669400451339     1.007825032230
         C            0.000000000000     0.000000000000    -0.608604848661    12.000000000000
         H            0.000000000000     0.000000000000    -1.674797848661     1.007825032230

  Basis Set: AUG-CC-PVTZ
    Blend: AUG-CC-PVTZ
  Basis Set: (AUG-CC-PVTZ AUX)
    Blend: AUG-CC-PVTZ-JKFIT
	 Reference Energy          =     -76.8482022871813228 [Eh]
	 Singles Energy            =      -0.0000000000000000 [Eh]
	 Same-Spin Energy          =      -0.0776436851603980 [Eh]
	 Opposite-Spin Energy      =      -0.2718969115965690 [Eh]
	 Correlation Energy        =      -0.3495405967569670 [Eh]
	 Total Energy              =     -77.1977428839382895 [Eh]

	 ================> DF-SCS-MP2 Energies <==================
	-----------------------------------------------------------
	 SCS Same-Spin Scale       =       0.3333333333333333 [-]
	 SCS Opposite-Spin Scale   =       1.2000000000000000 [-]
	 SCS Same-Spin Energy      =      -0.0258812283867993 [Eh]
	 SCS Opposite-Spin Energy  =      -0.3262762939158828 [Eh]
	 SCS Correlation Energy    =      -0.3521575223026821 [Eh]
	 SCS Total Energy          =     -77.2003598094839987 [Eh]
	-----------------------------------------------------------

  Dipole Moment: [D]
     X:     0.0000      Y:     0.0000      Z:    -0.0061     Total:     0.0061

*** Psi4 exiting successfully. Buy a developer a beer!
