                               Psi4 1.3.2 release

  ==> Input File <==

--------------------------------------------------------------------------
#psi4
#
memory 32 gb

molecule  {
0 1
  C        0.0000000     0.0000000     0.6088320
  H        0.0000000     0.0000000     1.6724178
  C        0.0000000     0.0000000    -0.6088310
  H        0.0000000     0.0000000    -1.6750240
units angstrom
no_reorient  #important for SAPT in psi4, default
symmetry c1  #important for SAPT in psi4, default
}

set PROPERTIES_ORIGIN ["COM"]
properties('MP2/aug-cc-pvtz', properties = ['dipole'])
--------------------------------------------------------------------------

    Molecular point group: c1
  Charge       = 0
  Multiplicity = 1
  Basis Set: AUG-CC-PVTZ
    Blend: AUG-CC-PVTZ
  Basis Set: (AUG-CC-PVTZ AUX)
    Blend: AUG-CC-PVTZ-JKFIT

    Orbital Energies [Eh]
    ---------------------

    Doubly Occupied:

       1A    -11.249085     2A    -11.245593     3A     -1.026536
       4A     -0.769212     5A     -0.680478     6A     -0.407863
       7A     -0.407863

  @DF-RHF Final Energy:   -76.84816457199368

   => Energetics <=

    Nuclear Repulsion Energy =             24.5483365613375675
    One-Electron Energy =                -151.2197436224273872
    Two-Electron Energy =                  49.8232424890961383
    Total Energy =                        -76.8481645719936921
  Basis Set: (AUG-CC-PVTZ AUX)
    Blend: AUG-CC-PVTZ-RI
    Molecular point group: c1

    Geometry (in Angstrom), charge = 0, multiplicity = 1:

       Center              X                  Y                   Z               Mass
    ------------   -----------------  -----------------  -----------------  -----------------
         C            0.000000000000     0.000000000000     0.608932500798    12.000000000000
         H            0.000000000000     0.000000000000     1.672518300798     1.007825032230
         C            0.000000000000     0.000000000000    -0.608730499202    12.000000000000
         H            0.000000000000     0.000000000000    -1.674923499202     1.007825032230

  Basis Set: AUG-CC-PVTZ
    Blend: AUG-CC-PVTZ
  Basis Set: (AUG-CC-PVTZ AUX)
    Blend: AUG-CC-PVTZ-JKFIT
	 Reference Energy          =     -76.8481645719936779 [Eh]
	 Singles Energy            =      -0.0000000000000000 [Eh]
	 Same-Spin Energy          =      -0.0776478439603382 [Eh]
	 Opposite-Spin Energy      =      -0.2719032457273546 [Eh]
	 Correlation Energy        =      -0.3495510896876929 [Eh]
	 Total Energy              =     -77.1977156616813716 [Eh]

	 ================> DF-SCS-MP2 Energies <==================
	-----------------------------------------------------------
	 SCS Same-Spin Scale       =       0.3333333333333333 [-]
	 SCS Opposite-Spin Scale   =       1.2000000000000000 [-]
	 SCS Same-Spin Energy      =      -0.0258826146534461 [Eh]
	 SCS Opposite-Spin Energy  =      -0.3262838948728256 [Eh]
	 SCS Correlation Energy    =      -0.3521665095262716 [Eh]
	 SCS Total Energy          =     -77.2003310815199484 [Eh]
	-----------------------------------------------------------

  Dipole Moment: [D]
     X:    -0.0000      Y:     0.0000      Z:    -0.0027     Total:     0.0027

*** Psi4 exiting successfully. Buy a developer a beer!
