                               Psi4 1.4a3.dev225

  ==> Input File <==

--------------------------------------------------------------------------
#psi4
#
memory 32 gb

molecule  {
0 1
  C        0.0000000     0.0000000     0.6088320
  H        0.0000000     0.0000000     1.6950150
  C        0.0000000     0.0000000    -0.6088310
  H        0.0000000     0.0000000    -1.6750240
units angstrom
no_reorient  #important for SAPT in psi4, default
symmetry c1  #important for SAPT in psi4, default
}

set PROPERTIES_ORIGIN ["COM"]
properties('MP2/aug-cc-pvtz', properties = ['dipole'])
--------------------------------------------------------------------------

    Molecular point group: c1
  Charge       = 0
  Multiplicity = 1
  Basis Set: AUG-CC-PVTZ
    Blend: AUG-CC-PVTZ
  Basis Set: (AUG-CC-PVTZ AUX)
    Blend: AUG-CC-PVTZ-JKFIT

    Orbital Energies [Eh]
    ---------------------

    Doubly Occupied:

       1A    -11.250248     2A    -11.246240     3A     -1.025886
       4A     -0.764776     5A     -0.676409     6A     -0.407688
       7A     -0.407688

  @DF-RHF Final Energy:   -76.84747613705939

   => Energetics <=

    Nuclear Repulsion Energy =             24.4715193368062529
    One-Electron Energy =                -151.0801195999717663
    Two-Electron Energy =                  49.7611241261061252
    Total Energy =                        -76.8474761370593882
  Basis Set: (AUG-CC-PVTZ AUX)
    Blend: AUG-CC-PVTZ-RI
    Molecular point group: c1

    Geometry (in Angstrom), charge = 0, multiplicity = 1:

       Center              X                  Y                   Z               Mass
    ------------   -----------------  -----------------  -----------------  -----------------
         C            0.000000000000     0.000000000000     0.608057103729    12.000000000000
         H            0.000000000000     0.000000000000     1.694240103729     1.007825032230
         C            0.000000000000     0.000000000000    -0.609605896271    12.000000000000
         H            0.000000000000     0.000000000000    -1.675798896271     1.007825032230

  Basis Set: AUG-CC-PVTZ
    Blend: AUG-CC-PVTZ
  Basis Set: (AUG-CC-PVTZ AUX)
    Blend: AUG-CC-PVTZ-JKFIT
	 Reference Energy          =     -76.8474761370593882 [Eh]
	 Singles Energy            =      -0.0000000000000000 [Eh]
	 Same-Spin Energy          =      -0.0776799211373994 [Eh]
	 Opposite-Spin Energy      =      -0.2719680771051688 [Eh]
	 Correlation Energy        =      -0.3496479982425682 [Eh]
	 Total Energy              =     -77.1971241353019622 [Eh]

	 ================> DF-SCS-MP2 Energies <==================
	-----------------------------------------------------------
	 SCS Same-Spin Scale       =       0.3333333333333333 [-]
	 SCS Opposite-Spin Scale   =       1.2000000000000000 [-]
	 SCS Same-Spin Energy      =      -0.0258933070457998 [Eh]
	 SCS Opposite-Spin Energy  =      -0.3263616925262026 [Eh]
	 SCS Correlation Energy    =      -0.3522549995720023 [Eh]
	 SCS Total Energy          =     -77.1997311366313852 [Eh]
	-----------------------------------------------------------

  Dipole Moment: [D]
     X:    -0.0000      Y:    -0.0000      Z:     0.0208     Total:     0.0208

*** Psi4 exiting successfully. Buy a developer a beer!
