                               Psi4 1.3.2 release

  ==> Input File <==

--------------------------------------------------------------------------
#psi4
#
memory 32 gb

molecule  {
0 1
  C        0.0000000     0.0000000     0.6088320
  H        0.0000000     0.0000000     1.6743655
  C        0.0000000     0.0000000    -0.6088310
  H        0.0000000     0.0000000    -1.6750240
units angstrom
no_reorient  #important for SAPT in psi4, default
symmetry c1  #important for SAPT in psi4, default
}

set PROPERTIES_ORIGIN ["COM"]
properties('MP2/aug-cc-pvtz', properties = ['dipole'])
--------------------------------------------------------------------------

    Molecular point group: c1
  Charge       = 0
  Multiplicity = 1
  Basis Set: AUG-CC-PVTZ
    Blend: AUG-CC-PVTZ
  Basis Set: (AUG-CC-PVTZ AUX)
    Blend: AUG-CC-PVTZ-JKFIT

    Orbital Energies [Eh]
    ---------------------

    Doubly Occupied:

       1A    -11.249159     2A    -11.245677     3A     -1.026478
       4A     -0.768812     5A     -0.680139     6A     -0.407848
       7A     -0.407848

  @DF-RHF Final Energy:   -76.84813426938993

   => Energetics <=

    Nuclear Repulsion Energy =             24.5416005799625410
    One-Electron Energy =                -151.2075510104655223
    Two-Electron Energy =                  49.8178161611130506
    Total Energy =                        -76.8481342693899308
  Basis Set: (AUG-CC-PVTZ AUX)
    Blend: AUG-CC-PVTZ-RI
    Molecular point group: c1

    Geometry (in Angstrom), charge = 0, multiplicity = 1:

       Center              X                  Y                   Z               Mass
    ------------   -----------------  -----------------  -----------------  -----------------
         C            0.000000000000     0.000000000000     0.608857048491    12.000000000000
         H            0.000000000000     0.000000000000     1.674390548491     1.007825032230
         C            0.000000000000     0.000000000000    -0.608805951509    12.000000000000
         H            0.000000000000     0.000000000000    -1.674998951509     1.007825032230

  Basis Set: AUG-CC-PVTZ
    Blend: AUG-CC-PVTZ
  Basis Set: (AUG-CC-PVTZ AUX)
    Blend: AUG-CC-PVTZ-JKFIT
	 Reference Energy          =     -76.8481342693899308 [Eh]
	 Singles Energy            =      -0.0000000000000000 [Eh]
	 Same-Spin Energy          =      -0.0776503964413020 [Eh]
	 Opposite-Spin Energy      =      -0.2719074037732337 [Eh]
	 Correlation Energy        =      -0.3495578002145356 [Eh]
	 Total Energy              =     -77.1976920696044715 [Eh]

	 ================> DF-SCS-MP2 Energies <==================
	-----------------------------------------------------------
	 SCS Same-Spin Scale       =       0.3333333333333333 [-]
	 SCS Opposite-Spin Scale   =       1.2000000000000000 [-]
	 SCS Same-Spin Energy      =      -0.0258834654804340 [Eh]
	 SCS Opposite-Spin Energy  =      -0.3262888845278804 [Eh]
	 SCS Correlation Energy    =      -0.3521723500083144 [Eh]
	 SCS Total Energy          =     -77.2003066193982477 [Eh]
	-----------------------------------------------------------

  Dipole Moment: [D]
     X:    -0.0000      Y:    -0.0000      Z:    -0.0007     Total:     0.0007

*** Psi4 exiting successfully. Buy a developer a beer!
