                               Psi4 1.3.2 release

  ==> Input File <==

--------------------------------------------------------------------------
#psi4
#
memory 32 gb

molecule  {
0 1
  C        0.0000000     0.0000000     0.6088320
  H        0.0000000     0.0000000     1.6750150
  C        0.0000000     0.0000000    -0.8088310
  H        0.0000000     0.0000000    -1.6750240
units angstrom
no_reorient  #important for SAPT in psi4, default
symmetry c1  #important for SAPT in psi4, default
}

set PROPERTIES_ORIGIN ["COM"]
properties('MP2/aug-cc-pvtz', properties = ['dipole'])
--------------------------------------------------------------------------

    Molecular point group: c1
  Charge       = 0
  Multiplicity = 1
  Basis Set: AUG-CC-PVTZ
    Blend: AUG-CC-PVTZ
  Basis Set: (AUG-CC-PVTZ AUX)
    Blend: AUG-CC-PVTZ-JKFIT

    Orbital Energies [Eh]
    ---------------------

    Doubly Occupied:

       1A    -11.313280     2A    -11.292385     3A     -0.994538
       4A     -0.848247     5A     -0.694161     6A     -0.374664
       7A     -0.374664

  @DF-RHF Final Energy:   -76.72304658223791

   => Energetics <=

    Nuclear Repulsion Energy =             22.9078530203950947
    One-Electron Energy =                -147.4779226060676081
    Two-Electron Energy =                  47.8470230034346002
    Total Energy =                        -76.7230465822379131
  Basis Set: (AUG-CC-PVTZ AUX)
    Blend: AUG-CC-PVTZ-RI
    Molecular point group: c1

    Geometry (in Angstrom), charge = 0, multiplicity = 1:

       Center              X                  Y                   Z               Mass
    ------------   -----------------  -----------------  -----------------  -----------------
         C            0.000000000000     0.000000000000     0.701084050765    12.000000000000
         H            0.000000000000     0.000000000000     1.767267050765     1.007825032230
         C            0.000000000000     0.000000000000    -0.716578949235    12.000000000000
         H            0.000000000000     0.000000000000    -1.582771949235     1.007825032230

  Basis Set: AUG-CC-PVTZ
    Blend: AUG-CC-PVTZ
  Basis Set: (AUG-CC-PVTZ AUX)
    Blend: AUG-CC-PVTZ-JKFIT
	 Reference Energy          =     -76.7230465822379131 [Eh]
	 Singles Energy            =      -0.0000000000000000 [Eh]
	 Same-Spin Energy          =      -0.0862856685786473 [Eh]
	 Opposite-Spin Energy      =      -0.2940116313351430 [Eh]
	 Correlation Energy        =      -0.3802972999137902 [Eh]
	 Total Energy              =     -77.1033438821517052 [Eh]

	 ================> DF-SCS-MP2 Energies <==================
	-----------------------------------------------------------
	 SCS Same-Spin Scale       =       0.3333333333333333 [-]
	 SCS Opposite-Spin Scale   =       1.2000000000000000 [-]
	 SCS Same-Spin Energy      =      -0.0287618895262158 [Eh]
	 SCS Opposite-Spin Energy  =      -0.3528139576021715 [Eh]
	 SCS Correlation Energy    =      -0.3815758471283873 [Eh]
	 SCS Total Energy          =     -77.1046224293663016 [Eh]
	-----------------------------------------------------------

  Dipole Moment: [D]
     X:    -0.0000      Y:     0.0000      Z:     0.2355     Total:     0.2355

*** Psi4 exiting successfully. Buy a developer a beer!
