                               Psi4 1.3.2 release

  ==> Input File <==

--------------------------------------------------------------------------
#psi4
#
memory 32 gb

molecule  {
0 1
  C        0.0000000     0.0000000     0.6088320
  H        0.0000000     0.0000000     1.6750150
  C        0.0000000     0.0000000    -0.6088310
  H        0.0000000     0.0000000    -1.6750240
units angstrom
no_reorient  #important for SAPT in psi4, default
symmetry c1  #important for SAPT in psi4, default
}

set PROPERTIES_ORIGIN ["COM"]
properties('MP2/aug-cc-pvtz', properties = ['dipole'])
--------------------------------------------------------------------------

    Molecular point group: c1
  Charge       = 0
  Multiplicity = 1
  Basis Set: AUG-CC-PVTZ
    Blend: AUG-CC-PVTZ
  Basis Set: (AUG-CC-PVTZ AUX)
    Blend: AUG-CC-PVTZ-JKFIT

    Orbital Energies [Eh]
    ---------------------

    Doubly Occupied:

       1A    -11.249185     2A    -11.245703     3A     -1.026458
       4A     -0.768679     5A     -0.680026     6A     -0.407843
       7A     -0.407843

  @DF-RHF Final Energy:   -76.84812290078276

   => Energetics <=

    Nuclear Repulsion Energy =             24.5393592372778642
    One-Electron Energy =                -151.2034918416353264
    Two-Electron Energy =                  49.8160097035747071
    Total Energy =                        -76.8481229007827551
  Basis Set: (AUG-CC-PVTZ AUX)
    Blend: AUG-CC-PVTZ-RI
    Molecular point group: c1

    Geometry (in Angstrom), charge = 0, multiplicity = 1:

       Center              X                  Y                   Z               Mass
    ------------   -----------------  -----------------  -----------------  -----------------
         C            0.000000000000     0.000000000000     0.608831887392    12.000000000000
         H            0.000000000000     0.000000000000     1.675014887392     1.007825032230
         C            0.000000000000     0.000000000000    -0.608831112608    12.000000000000
         H            0.000000000000     0.000000000000    -1.675024112608     1.007825032230

  Basis Set: AUG-CC-PVTZ
    Blend: AUG-CC-PVTZ
  Basis Set: (AUG-CC-PVTZ AUX)
    Blend: AUG-CC-PVTZ-JKFIT
	 Reference Energy          =     -76.8481229007827551 [Eh]
	 Singles Energy            =      -0.0000000000000000 [Eh]
	 Same-Spin Energy          =      -0.0776512567556941 [Eh]
	 Opposite-Spin Energy      =      -0.2719088497245872 [Eh]
	 Correlation Energy        =      -0.3495601064802813 [Eh]
	 Total Energy              =     -77.1976830072630378 [Eh]

	 ================> DF-SCS-MP2 Energies <==================
	-----------------------------------------------------------
	 SCS Same-Spin Scale       =       0.3333333333333333 [-]
	 SCS Opposite-Spin Scale   =       1.2000000000000000 [-]
	 SCS Same-Spin Energy      =      -0.0258837522518980 [Eh]
	 SCS Opposite-Spin Energy  =      -0.3262906196695047 [Eh]
	 SCS Correlation Energy    =      -0.3521743719214027 [Eh]
	 SCS Total Energy          =     -77.2002972727041623 [Eh]
	-----------------------------------------------------------

  Dipole Moment: [D]
     X:    -0.0000      Y:    -0.0000      Z:    -0.0000     Total:     0.0000

*** Psi4 exiting successfully. Buy a developer a beer!
