                               Psi4 1.3.2 release

  ==> Input File <==

--------------------------------------------------------------------------
#psi4
#
memory 32 gb

molecule  {
0 1
  C        0.0000000     0.0000000     0.6088320
  H        0.0000000     0.0000000     1.8750150
  C        0.0000000     0.0000000    -0.6088310
  H        0.0000000     0.0000000    -1.6750240
units angstrom
no_reorient  #important for SAPT in psi4, default
symmetry c1  #important for SAPT in psi4, default
}

set PROPERTIES_ORIGIN ["COM"]
properties('MP2/aug-cc-pvtz', properties = ['dipole'])
--------------------------------------------------------------------------

    Molecular point group: c1
  Charge       = 0
  Multiplicity = 1
  Basis Set: AUG-CC-PVTZ
    Blend: AUG-CC-PVTZ
  Basis Set: (AUG-CC-PVTZ AUX)
    Blend: AUG-CC-PVTZ-JKFIT

    Orbital Energies [Eh]
    ---------------------

    Doubly Occupied:

       1A    -11.263638     2A    -11.245549     3A     -1.022031
       4A     -0.742899     5A     -0.636103     6A     -0.406448
       7A     -0.406448

  @DF-RHF Final Energy:   -76.82343428134126

   => Energetics <=

    Nuclear Repulsion Energy =             23.9481329136662957
    One-Electron Energy =                -150.0969024904326545
    Two-Electron Energy =                  49.3253352954250914
    Total Energy =                        -76.8234342813412638
  Basis Set: (AUG-CC-PVTZ AUX)
    Blend: AUG-CC-PVTZ-RI
    Molecular point group: c1

    Geometry (in Angstrom), charge = 0, multiplicity = 1:

       Center              X                  Y                   Z               Mass
    ------------   -----------------  -----------------  -----------------  -----------------
         C            0.000000000000     0.000000000000     0.601084050765    12.000000000000
         H            0.000000000000     0.000000000000     1.867267050765     1.007825032230
         C            0.000000000000     0.000000000000    -0.616578949235    12.000000000000
         H            0.000000000000     0.000000000000    -1.682771949235     1.007825032230

  Basis Set: AUG-CC-PVTZ
    Blend: AUG-CC-PVTZ
  Basis Set: (AUG-CC-PVTZ AUX)
    Blend: AUG-CC-PVTZ-JKFIT
	 Reference Energy          =     -76.8234342813412638 [Eh]
	 Singles Energy            =      -0.0000000000000000 [Eh]
	 Same-Spin Energy          =      -0.0780712893679058 [Eh]
	 Opposite-Spin Energy      =      -0.2736414734419297 [Eh]
	 Correlation Energy        =      -0.3517127628098355 [Eh]
	 Total Energy              =     -77.1751470441511032 [Eh]

	 ================> DF-SCS-MP2 Energies <==================
	-----------------------------------------------------------
	 SCS Same-Spin Scale       =       0.3333333333333333 [-]
	 SCS Opposite-Spin Scale   =       1.2000000000000000 [-]
	 SCS Same-Spin Energy      =      -0.0260237631226353 [Eh]
	 SCS Opposite-Spin Energy  =      -0.3283697681303156 [Eh]
	 SCS Correlation Energy    =      -0.3543935312529509 [Eh]
	 SCS Total Energy          =     -77.1778278125942165 [Eh]
	-----------------------------------------------------------

  Dipole Moment: [D]
     X:    -0.0000      Y:    -0.0000      Z:     0.2095     Total:     0.2095

*** Psi4 exiting successfully. Buy a developer a beer!
