                               Psi4 1.4a3.dev225

  ==> Input File <==

--------------------------------------------------------------------------
#psi4
#
memory 32 gb

molecule  {
0 1
  C        0.0000000     0.0000000     0.6088320
  H        0.0000000     0.0000000     1.6750150
  C        0.0000000     0.0000000    -0.5888310
  H        0.0000000     0.0000000    -1.6750240
units angstrom
no_reorient  #important for SAPT in psi4, default
symmetry c1  #important for SAPT in psi4, default
}

set PROPERTIES_ORIGIN ["COM"]
properties('MP2/aug-cc-pvtz', properties = ['dipole'])
--------------------------------------------------------------------------

    Molecular point group: c1
  Charge       = 0
  Multiplicity = 1
  Basis Set: AUG-CC-PVTZ
    Blend: AUG-CC-PVTZ
  Basis Set: (AUG-CC-PVTZ AUX)
    Blend: AUG-CC-PVTZ-JKFIT

    Orbital Energies [Eh]
    ---------------------

    Doubly Occupied:

       1A    -11.243594     2A    -11.239184     3A     -1.031453
       4A     -0.761421     5A     -0.676522     6A     -0.412033
       7A     -0.412033

  @DF-RHF Final Energy:   -76.84976144901050

   => Energetics <=

    Nuclear Repulsion Energy =             24.7580679124624901
    One-Electron Energy =                -151.6631775170916967
    Two-Electron Energy =                  50.0553481556186881
    Total Energy =                        -76.8497614490105150
  Basis Set: (AUG-CC-PVTZ AUX)
    Blend: AUG-CC-PVTZ-RI
    Molecular point group: c1

    Geometry (in Angstrom), charge = 0, multiplicity = 1:

       Center              X                  Y                   Z               Mass
    ------------   -----------------  -----------------  -----------------  -----------------
         C            0.000000000000     0.000000000000     0.599606671055    12.000000000000
         H            0.000000000000     0.000000000000     1.665789671055     1.007825032230
         C            0.000000000000     0.000000000000    -0.598056328945    12.000000000000
         H            0.000000000000     0.000000000000    -1.684249328945     1.007825032230

  Basis Set: AUG-CC-PVTZ
    Blend: AUG-CC-PVTZ
  Basis Set: (AUG-CC-PVTZ AUX)
    Blend: AUG-CC-PVTZ-JKFIT
	 Reference Energy          =     -76.8497614490105008 [Eh]
	 Singles Energy            =      -0.0000000000000000 [Eh]
	 Same-Spin Energy          =      -0.0770057186930796 [Eh]
	 Opposite-Spin Energy      =      -0.2702814169944874 [Eh]
	 Correlation Energy        =      -0.3472871356875670 [Eh]
	 Total Energy              =     -77.1970485846980665 [Eh]

	 ================> DF-SCS-MP2 Energies <==================
	-----------------------------------------------------------
	 SCS Same-Spin Scale       =       0.3333333333333333 [-]
	 SCS Opposite-Spin Scale   =       1.2000000000000000 [-]
	 SCS Same-Spin Energy      =      -0.0256685728976932 [Eh]
	 SCS Opposite-Spin Energy  =      -0.3243377003933848 [Eh]
	 SCS Correlation Energy    =      -0.3500062732910780 [Eh]
	 SCS Total Energy          =     -77.1997677223015728 [Eh]
	-----------------------------------------------------------

  Dipole Moment: [D]
     X:    -0.0000      Y:    -0.0000      Z:    -0.0203     Total:     0.0203

*** Psi4 exiting successfully. Buy a developer a beer!
