                               Psi4 1.3.2 release

  ==> Input File <==

--------------------------------------------------------------------------
#psi4
#
memory 32 gb

molecule  {
0 1
  O        2.4822540     0.5405090    -0.0540980
  O        1.5746620    -1.5220150     0.0896580
  N       -1.1191790    -1.6921850    -0.1509940
  C       -1.0966210    -0.3229200    -0.0500550
  C        0.1267050     0.4076130    -0.0279230
  C       -2.3003260     0.4165330    -0.0467730
  C        0.1050810     1.8109880     0.0359760
  C       -2.2954060     1.8037730     0.0119910
  C       -1.0915490     2.5140600     0.0407670
  C        1.5966225    -0.3977239     0.0153862
  C       -2.3257850    -2.4585570     0.0736050
  C        3.7618060    -0.1198990    -0.0066490
  H       -3.2501560    -0.1077310    -0.0690300
  H        1.0507040     2.3420820     0.0640380
  H       -0.2300450    -2.1418000     0.0381510
  H       -3.2442430     2.3364260     0.0191250
  H       -1.0894800     3.5992760     0.0899090
  H       -2.7979590    -2.2384410     1.0412790
  H       -2.0612830    -3.5169920     0.0485590
  H       -3.0612710    -2.2783540    -0.7172980
  H        3.8686140    -0.8046650    -0.8491430
  H        3.8704280    -0.6765840     0.9253170
  H        4.4925120     0.6845290    -0.0653970
units angstrom
no_reorient  #important for SAPT in psi4, default
symmetry c1  #important for SAPT in psi4, default
}

set PROPERTIES_ORIGIN ["COM"]
properties('MP2/aug-cc-pvtz', properties = ['dipole'])
--------------------------------------------------------------------------

    Molecular point group: c1
  Charge       = 0
  Multiplicity = 1
  Basis Set: AUG-CC-PVTZ
    Blend: AUG-CC-PVTZ
  Basis Set: (AUG-CC-PVTZ AUX)
    Blend: AUG-CC-PVTZ-JKFIT

    Orbital Energies [Eh]
    ---------------------

    Doubly Occupied:

       1A    -20.628640     2A    -20.565395     3A    -15.553058
       4A    -11.389641     5A    -11.300047     6A    -11.279669
       7A    -11.252137     8A    -11.233740     9A    -11.232240
      10A    -11.230707    11A    -11.215551    12A    -11.211621
      13A     -1.516157    14A     -1.432870    15A     -1.234945
      16A     -1.124283    17A     -1.021467    18A     -0.996057
      19A     -0.979606    20A     -0.913859    21A     -0.834578
      22A     -0.806672    23A     -0.794454    24A     -0.734963
      25A     -0.713193    26A     -0.707142    27A     -0.691049
      28A     -0.657736    29A     -0.621106    30A     -0.608075
      31A     -0.604890    32A     -0.585539    33A     -0.578723
      34A     -0.571091    35A     -0.557755    36A     -0.535233
      37A     -0.526142    38A     -0.501153    39A     -0.499980
      40A     -0.490182    41A     -0.418960    42A     -0.417412
      43A     -0.332196    44A     -0.277513

  @DF-RHF Final Energy:  -551.56299328902423

   => Energetics <=

    Nuclear Repulsion Energy =            687.8668059423032446
    One-Electron Energy =               -2116.1047466619293118
    Two-Electron Energy =                 876.6749474306018328
    Total Energy =                       -551.5629932890242344
  Basis Set: (AUG-CC-PVTZ AUX)
    Blend: AUG-CC-PVTZ-RI
    Molecular point group: c1

    Geometry (in Angstrom), charge = 0, multiplicity = 1:

       Center              X                  Y                   Z               Mass
    ------------   -----------------  -----------------  -----------------  -----------------
         O            2.454915320441     0.530651130554    -0.051310991844    15.994914619570
         O            1.547323320441    -1.531872869446     0.092445008156    15.994914619570
         N           -1.146517679559    -1.702042869446    -0.148206991844    14.003074004430
         C           -1.123959679559    -0.332777869446    -0.047267991844    12.000000000000
         C            0.099366320441     0.397755130554    -0.025135991844    12.000000000000
         C           -2.327664679559     0.406675130554    -0.043985991844    12.000000000000
         C            0.077742320441     1.801130130554     0.038763008156    12.000000000000
         C           -2.322744679559     1.793915130554     0.014778008156    12.000000000000
         C           -1.118887679559     2.504202130554     0.043554008156    12.000000000000
         C            1.569283820441    -0.407581769446     0.018173208156    12.000000000000
         C           -2.353123679559    -2.468414869446     0.076392008156    12.000000000000
         C            3.734467320441    -0.129756869446    -0.003861991844    12.000000000000
         H           -3.277494679559    -0.117588869446    -0.066242991844     1.007825032230
         H            1.023365320441     2.332224130554     0.066825008156     1.007825032230
         H           -0.257383679559    -2.151657869446     0.040938008156     1.007825032230
         H           -3.271581679559     2.326568130554     0.021912008156     1.007825032230
         H           -1.116818679559     3.589418130554     0.092696008156     1.007825032230
         H           -2.825297679559    -2.248298869446     1.044066008156     1.007825032230
         H           -2.088621679559    -3.526849869446     0.051346008156     1.007825032230
         H           -3.088609679559    -2.288211869446    -0.714510991844     1.007825032230
         H            3.841275320441    -0.814522869446    -0.846355991844     1.007825032230
         H            3.843089320441    -0.686441869446     0.928104008156     1.007825032230
         H            4.465173320441     0.674671130554    -0.062609991844     1.007825032230

  Basis Set: AUG-CC-PVTZ
    Blend: AUG-CC-PVTZ
  Basis Set: (AUG-CC-PVTZ AUX)
    Blend: AUG-CC-PVTZ-JKFIT
	 Reference Energy          =    -551.5629932890242344 [Eh]
	 Singles Energy            =      -0.0000000000000000 [Eh]
	 Same-Spin Energy          =      -0.5774735705502213 [Eh]
	 Opposite-Spin Energy      =      -1.7967848186714075 [Eh]
	 Correlation Energy        =      -2.3742583892216289 [Eh]
	 Total Energy              =    -553.9372516782458433 [Eh]

	 ================> DF-SCS-MP2 Energies <==================
	-----------------------------------------------------------
	 SCS Same-Spin Scale       =       0.3333333333333333 [-]
	 SCS Opposite-Spin Scale   =       1.2000000000000000 [-]
	 SCS Same-Spin Energy      =      -0.1924911901834071 [Eh]
	 SCS Opposite-Spin Energy  =      -2.1561417824056890 [Eh]
	 SCS Correlation Energy    =      -2.3486329725890962 [Eh]
	 SCS Total Energy          =    -553.9116262616133781 [Eh]
	-----------------------------------------------------------

  Dipole Moment: [D]
     X:     1.7452      Y:    -0.8112      Z:     0.3579     Total:     1.9575

*** Psi4 exiting successfully. Buy a developer a beer!
