                               Psi4 1.3.2 release

  ==> Input File <==

--------------------------------------------------------------------------
#psi4
#
memory 32 gb

molecule  {
0 1
  O        2.4822540     0.5405090    -0.0540980
  O        1.5746620    -1.5220150     0.0896580
  N       -1.1191790    -1.6921850    -0.1509940
  C       -1.1213547    -0.2797774    -0.0510776
  C        0.1267050     0.4076130    -0.0279230
  C       -2.3003260     0.4165330    -0.0467730
  C        0.1050810     1.8109880     0.0359760
  C       -2.2954060     1.8037730     0.0119910
  C       -1.0915490     2.5140600     0.0407670
  C        1.4212810    -0.3016580     0.0102200
  C       -2.3257850    -2.4585570     0.0736050
  C        3.7618060    -0.1198990    -0.0066490
  H       -3.2501560    -0.1077310    -0.0690300
  H        1.0507040     2.3420820     0.0640380
  H       -0.2300450    -2.1418000     0.0381510
  H       -3.2442430     2.3364260     0.0191250
  H       -1.0894800     3.5992760     0.0899090
  H       -2.7979590    -2.2384410     1.0412790
  H       -2.0612830    -3.5169920     0.0485590
  H       -3.0612710    -2.2783540    -0.7172980
  H        3.8686140    -0.8046650    -0.8491430
  H        3.8704280    -0.6765840     0.9253170
  H        4.4925120     0.6845290    -0.0653970
units angstrom
no_reorient  #important for SAPT in psi4, default
symmetry c1  #important for SAPT in psi4, default
}

set PROPERTIES_ORIGIN ["COM"]
properties('MP2/aug-cc-pvtz', properties = ['dipole'])
--------------------------------------------------------------------------

    Molecular point group: c1
  Charge       = 0
  Multiplicity = 1
  Basis Set: AUG-CC-PVTZ
    Blend: AUG-CC-PVTZ
  Basis Set: (AUG-CC-PVTZ AUX)
    Blend: AUG-CC-PVTZ-JKFIT

    Orbital Energies [Eh]
    ---------------------

    Doubly Occupied:

       1A    -20.604347     2A    -20.542913     3A    -15.556051
       4A    -11.387979     5A    -11.294613     6A    -11.285296
       7A    -11.254080     8A    -11.253207     9A    -11.251820
      10A    -11.242628    11A    -11.226603    12A    -11.225256
      13A     -1.455351    14A     -1.350767    15A     -1.231509
      16A     -1.144839    17A     -1.048854    18A     -1.013870
      19A     -0.968888    20A     -0.916042    21A     -0.868210
      22A     -0.808890    23A     -0.785181    24A     -0.730290
      25A     -0.696158    26A     -0.675514    27A     -0.669750
      28A     -0.658219    29A     -0.626845    30A     -0.619257
      31A     -0.606048    32A     -0.582592    33A     -0.578427
      34A     -0.556334    35A     -0.540343    36A     -0.533337
      37A     -0.527001    38A     -0.509063    39A     -0.500069
      40A     -0.465956    41A     -0.446999    42A     -0.420056
      43A     -0.351227    44A     -0.296429

  @DF-RHF Final Energy:  -551.59841249658348

   => Energetics <=

    Nuclear Repulsion Energy =            687.9351853399679158
    One-Electron Energy =               -2116.4529825728432115
    Two-Electron Energy =                 876.9193847362917040
    Total Energy =                       -551.5984124965834781
  Basis Set: (AUG-CC-PVTZ AUX)
    Blend: AUG-CC-PVTZ-RI
    Molecular point group: c1

    Geometry (in Angstrom), charge = 0, multiplicity = 1:

       Center              X                  Y                   Z               Mass
    ------------   -----------------  -----------------  -----------------  -----------------
         O            2.469459282491     0.520531719747    -0.050861112637    15.994914619570
         O            1.561867282491    -1.541992280253     0.092894887363    15.994914619570
         N           -1.131973717509    -1.712162280253    -0.147757112637    14.003074004430
         C           -1.134149417509    -0.299754680253    -0.047840712637    12.000000000000
         C            0.113910282491     0.387635719747    -0.024686112637    12.000000000000
         C           -2.313120717509     0.396555719747    -0.043536112637    12.000000000000
         C            0.092286282491     1.791010719747     0.039212887363    12.000000000000
         C           -2.308200717509     1.783795719747     0.015227887363    12.000000000000
         C           -1.104343717509     2.494082719747     0.044003887363    12.000000000000
         C            1.408486282491    -0.321635280253     0.013456887363    12.000000000000
         C           -2.338579717509    -2.478534280253     0.076841887363    12.000000000000
         C            3.749011282491    -0.139876280253    -0.003412112637    12.000000000000
         H           -3.262950717509    -0.127708280253    -0.065793112637     1.007825032230
         H            1.037909282491     2.322104719747     0.067274887363     1.007825032230
         H           -0.242839717509    -2.161777280253     0.041387887363     1.007825032230
         H           -3.257037717509     2.316448719747     0.022361887363     1.007825032230
         H           -1.102274717509     3.579298719747     0.093145887363     1.007825032230
         H           -2.810753717509    -2.258418280253     1.044515887363     1.007825032230
         H           -2.074077717509    -3.536969280253     0.051795887363     1.007825032230
         H           -3.074065717509    -2.298331280253    -0.714061112637     1.007825032230
         H            3.855819282491    -0.824642280253    -0.845906112637     1.007825032230
         H            3.857633282491    -0.696561280253     0.928553887363     1.007825032230
         H            4.479717282491     0.664551719747    -0.062160112637     1.007825032230

  Basis Set: AUG-CC-PVTZ
    Blend: AUG-CC-PVTZ
  Basis Set: (AUG-CC-PVTZ AUX)
    Blend: AUG-CC-PVTZ-JKFIT
	 Reference Energy          =    -551.5984124965834781 [Eh]
	 Singles Energy            =      -0.0000000000000000 [Eh]
	 Same-Spin Energy          =      -0.5788745981274958 [Eh]
	 Opposite-Spin Energy      =      -1.7999426804300618 [Eh]
	 Correlation Energy        =      -2.3788172785575576 [Eh]
	 Total Energy              =    -553.9772297751410406 [Eh]

	 ================> DF-SCS-MP2 Energies <==================
	-----------------------------------------------------------
	 SCS Same-Spin Scale       =       0.3333333333333333 [-]
	 SCS Opposite-Spin Scale   =       1.2000000000000000 [-]
	 SCS Same-Spin Energy      =      -0.1929581993758319 [Eh]
	 SCS Opposite-Spin Energy  =      -2.1599312165160742 [Eh]
	 SCS Correlation Energy    =      -2.3528894158919060 [Eh]
	 SCS Total Energy          =    -553.9513019124754010 [Eh]
	-----------------------------------------------------------

  Dipole Moment: [D]
     X:    -0.0600      Y:     0.2431      Z:     0.3456     Total:     0.4268

*** Psi4 exiting successfully. Buy a developer a beer!
