                               Psi4 1.4a3.dev225

  ==> Input File <==

--------------------------------------------------------------------------
#psi4
#
memory 32 gb

molecule  {
0 1
  O        2.4822540     0.5405090    -0.0540980
  O        1.5746620    -1.5220150     0.0896580
  N       -1.1191790    -1.6921850    -0.1509940
  C       -1.0966210    -0.3229200    -0.0500550
  C        0.1267050     0.4076130    -0.0279230
  C       -2.3003260     0.4165330    -0.0467730
  C        0.1050810     1.8109880     0.0359760
  C       -2.2954060     1.8037730     0.0119910
  C       -1.0915490     2.5140600     0.0407670
  C        1.4212810    -0.3016580     0.0102200
  C       -2.2840902    -2.4320747     0.0658439
  C        3.7618060    -0.1198990    -0.0066490
  H       -3.2501560    -0.1077310    -0.0690300
  H        1.0507040     2.3420820     0.0640380
  H       -0.2300450    -2.1418000     0.0381510
  H       -3.2442430     2.3364260     0.0191250
  H       -1.0894800     3.5992760     0.0899090
  H       -2.7979590    -2.2384410     1.0412790
  H       -2.0612830    -3.5169920     0.0485590
  H       -3.0612710    -2.2783540    -0.7172980
  H        3.8686140    -0.8046650    -0.8491430
  H        3.8704280    -0.6765840     0.9253170
  H        4.4925120     0.6845290    -0.0653970
units angstrom
no_reorient  #important for SAPT in psi4, default
symmetry c1  #important for SAPT in psi4, default
}

set PROPERTIES_ORIGIN ["COM"]
properties('MP2/aug-cc-pvtz', properties = ['dipole'])
--------------------------------------------------------------------------

    Molecular point group: c1
  Charge       = 0
  Multiplicity = 1
  Basis Set: AUG-CC-PVTZ
    Blend: AUG-CC-PVTZ
  Basis Set: (AUG-CC-PVTZ AUX)
    Blend: AUG-CC-PVTZ-JKFIT

    Orbital Energies [Eh]
    ---------------------

    Doubly Occupied:

       1A    -20.603717     2A    -20.543022     3A    -15.563681
       4A    -11.386840     5A    -11.299386     6A    -11.284994
       7A    -11.258594     8A    -11.252560     9A    -11.250934
      10A    -11.241361    11A    -11.228659    12A    -11.224787
      13A     -1.455097    14A     -1.351175    15A     -1.256328
      16A     -1.145262    17A     -1.047335    18A     -1.012536
      19A     -0.969150    20A     -0.919384    21A     -0.865901
      22A     -0.809574    23A     -0.785723    24A     -0.730550
      25A     -0.702762    26A     -0.674506    27A     -0.669764
      28A     -0.668018    29A     -0.632406    30A     -0.616714
      31A     -0.610816    32A     -0.590995    33A     -0.577413
      34A     -0.555616    35A     -0.536840    36A     -0.532197
      37A     -0.523212    38A     -0.505415    39A     -0.502200
      40A     -0.466201    41A     -0.445765    42A     -0.424252
      43A     -0.350174    44A     -0.293015

  @DF-RHF Final Energy:  -551.59894473704367

   => Energetics <=

    Nuclear Repulsion Energy =            688.9902196256291518
    One-Electron Energy =               -2118.4486690343401278
    Two-Electron Energy =                 877.8595046716673096
    Total Energy =                       -551.5989447370436665
  Basis Set: (AUG-CC-PVTZ AUX)
    Blend: AUG-CC-PVTZ-RI
    Molecular point group: c1

    Geometry (in Angstrom), charge = 0, multiplicity = 1:

       Center              X                  Y                   Z               Mass
    ------------   -----------------  -----------------  -----------------  -----------------
         O            2.464630430224     0.521742798236    -0.050371274375    15.994914619570
         O            1.557038430224    -1.540781201764     0.093384725625    15.994914619570
         N           -1.136802569776    -1.710951201764    -0.147267274375    14.003074004430
         C           -1.114244569776    -0.341686201764    -0.046328274375    12.000000000000
         C            0.109081430224     0.388846798236    -0.024196274375    12.000000000000
         C           -2.317949569776     0.397766798236    -0.043046274375    12.000000000000
         C            0.087457430224     1.792221798236     0.039702725625    12.000000000000
         C           -2.313029569776     1.785006798236     0.015717725625    12.000000000000
         C           -1.109172569776     2.495293798236     0.044493725625    12.000000000000
         C            1.403657430224    -0.320424201764     0.013946725625    12.000000000000
         C           -2.301713769776    -2.450840901764     0.069570625625    12.000000000000
         C            3.744182430224    -0.138665201764    -0.002922274375    12.000000000000
         H           -3.267779569776    -0.126497201764    -0.065303274375     1.007825032230
         H            1.033080430224     2.323315798236     0.067764725625     1.007825032230
         H           -0.247668569776    -2.160566201764     0.041877725625     1.007825032230
         H           -3.261866569776     2.317659798236     0.022851725625     1.007825032230
         H           -1.107103569776     3.580509798236     0.093635725625     1.007825032230
         H           -2.815582569776    -2.257207201764     1.045005725625     1.007825032230
         H           -2.078906569776    -3.535758201764     0.052285725625     1.007825032230
         H           -3.078894569776    -2.297120201764    -0.713571274375     1.007825032230
         H            3.850990430224    -0.823431201764    -0.845416274375     1.007825032230
         H            3.852804430224    -0.695350201764     0.929043725625     1.007825032230
         H            4.474888430224     0.665762798236    -0.061670274375     1.007825032230

  Basis Set: AUG-CC-PVTZ
    Blend: AUG-CC-PVTZ
  Basis Set: (AUG-CC-PVTZ AUX)
    Blend: AUG-CC-PVTZ-JKFIT
	 Reference Energy          =    -551.5989447370436665 [Eh]
	 Singles Energy            =      -0.0000000000000000 [Eh]
	 Same-Spin Energy          =      -0.5793225263863588 [Eh]
	 Opposite-Spin Energy      =      -1.7999434966565813 [Eh]
	 Correlation Energy        =      -2.3792660230429403 [Eh]
	 Total Energy              =    -553.9782107600866539 [Eh]

	 ================> DF-SCS-MP2 Energies <==================
	-----------------------------------------------------------
	 SCS Same-Spin Scale       =       0.3333333333333333 [-]
	 SCS Opposite-Spin Scale   =       1.2000000000000000 [-]
	 SCS Same-Spin Energy      =      -0.1931075087954529 [Eh]
	 SCS Opposite-Spin Energy  =      -2.1599321959878974 [Eh]
	 SCS Correlation Energy    =      -2.3530397047833502 [Eh]
	 SCS Total Energy          =    -553.9519844418269940 [Eh]
	-----------------------------------------------------------

  Dipole Moment: [D]
     X:    -0.0185      Y:     0.0476      Z:     0.2993     Total:     0.3036

*** Psi4 exiting successfully. Buy a developer a beer!
