                               Psi4 1.4a3.dev225

  ==> Input File <==

--------------------------------------------------------------------------
#psi4
#
memory 32 gb

molecule  {
0 1
  O        2.4822540     0.5405090    -0.0540980
  O        1.5746620    -1.5220150     0.0896580
  N       -1.1191790    -1.6921850    -0.1509940
  C       -1.0966210    -0.3229200    -0.0500550
  C        0.1267050     0.4076130    -0.0279230
  C       -2.3003260     0.4165330    -0.0467730
  C        0.1050810     1.8109880     0.0359760
  C       -2.2954060     1.8037730     0.0119910
  C       -1.0915490     2.5140600     0.0407670
  C        1.4212810    -0.3016580     0.0102200
  C       -2.3257850    -2.4585570     0.0736050
  C        3.7795688    -0.1290668    -0.0059903
  H       -3.2501560    -0.1077310    -0.0690300
  H        1.0507040     2.3420820     0.0640380
  H       -0.2300450    -2.1418000     0.0381510
  H       -3.2442430     2.3364260     0.0191250
  H       -1.0894800     3.5992760     0.0899090
  H       -2.7979590    -2.2384410     1.0412790
  H       -2.0612830    -3.5169920     0.0485590
  H       -3.0612710    -2.2783540    -0.7172980
  H        3.8686140    -0.8046650    -0.8491430
  H        3.8704280    -0.6765840     0.9253170
  H        4.4925120     0.6845290    -0.0653970
units angstrom
no_reorient  #important for SAPT in psi4, default
symmetry c1  #important for SAPT in psi4, default
}

set PROPERTIES_ORIGIN ["COM"]
properties('MP2/aug-cc-pvtz', properties = ['dipole'])
--------------------------------------------------------------------------

    Molecular point group: c1
  Charge       = 0
  Multiplicity = 1
  Basis Set: AUG-CC-PVTZ
    Blend: AUG-CC-PVTZ
  Basis Set: (AUG-CC-PVTZ AUX)
    Blend: AUG-CC-PVTZ-JKFIT

    Orbital Energies [Eh]
    ---------------------

    Doubly Occupied:

       1A    -20.600928     2A    -20.540757     3A    -15.562664
       4A    -11.384516     5A    -11.297830     6A    -11.284897
       7A    -11.258058     8A    -11.251296     9A    -11.249431
      10A    -11.239114    11A    -11.227120    12A    -11.222950
      13A     -1.449744    14A     -1.347119    15A     -1.245127
      16A     -1.141503    17A     -1.045115    18A     -1.009164
      19A     -0.968672    20A     -0.923067    21A     -0.864488
      22A     -0.808576    23A     -0.782735    24A     -0.727120
      25A     -0.699507    26A     -0.671055    27A     -0.666946
      28A     -0.660280    29A     -0.628118    30A     -0.615592
      31A     -0.611535    32A     -0.582760    33A     -0.576406
      34A     -0.558228    35A     -0.541664    36A     -0.536003
      37A     -0.524582    38A     -0.506980    39A     -0.500926
      40A     -0.465462    41A     -0.443690    42A     -0.427085
      43A     -0.348916    44A     -0.291053

  @DF-RHF Final Energy:  -551.60109571438181

   => Energetics <=

    Nuclear Repulsion Energy =            687.5746468245506549
    One-Electron Energy =               -2115.7739304766446367
    Two-Electron Energy =                 876.5981879377121686
    Total Energy =                       -551.6010957143818132
  Basis Set: (AUG-CC-PVTZ AUX)
    Blend: AUG-CC-PVTZ-RI
    Molecular point group: c1

    Geometry (in Angstrom), charge = 0, multiplicity = 1:

       Center              X                  Y                   Z               Mass
    ------------   -----------------  -----------------  -----------------  -----------------
         O            2.466370106605     0.524334292342    -0.050983330500    15.994914619570
         O            1.558778106605    -1.538189707658     0.092772669500    15.994914619570
         N           -1.135062893395    -1.708359707658    -0.147879330500    14.003074004430
         C           -1.112504893395    -0.339094707658    -0.046940330500    12.000000000000
         C            0.110821106605     0.391438292342    -0.024808330500    12.000000000000
         C           -2.316209893395     0.400358292342    -0.043658330500    12.000000000000
         C            0.089197106605     1.794813292342     0.039090669500    12.000000000000
         C           -2.311289893395     1.787598292342     0.015105669500    12.000000000000
         C           -1.107432893395     2.497885292342     0.043881669500    12.000000000000
         C            1.405397106605    -0.317832707658     0.013334669500    12.000000000000
         C           -2.341668893395    -2.474731707658     0.076719669500    12.000000000000
         C            3.763684906605    -0.145241507658    -0.002875630500    12.000000000000
         H           -3.266039893395    -0.123905707658    -0.065915330500     1.007825032230
         H            1.034820106605     2.325907292342     0.067152669500     1.007825032230
         H           -0.245928893395    -2.157974707658     0.041265669500     1.007825032230
         H           -3.260126893395     2.320251292342     0.022239669500     1.007825032230
         H           -1.105363893395     3.583101292342     0.093023669500     1.007825032230
         H           -2.813842893395    -2.254615707658     1.044393669500     1.007825032230
         H           -2.077166893395    -3.533166707658     0.051673669500     1.007825032230
         H           -3.077154893395    -2.294528707658    -0.714183330500     1.007825032230
         H            3.852730106605    -0.820839707658    -0.846028330500     1.007825032230
         H            3.854544106605    -0.692758707658     0.928431669500     1.007825032230
         H            4.476628106605     0.668354292342    -0.062282330500     1.007825032230

  Basis Set: AUG-CC-PVTZ
    Blend: AUG-CC-PVTZ
  Basis Set: (AUG-CC-PVTZ AUX)
    Blend: AUG-CC-PVTZ-JKFIT
	 Reference Energy          =    -551.6010957143818132 [Eh]
	 Singles Energy            =      -0.0000000000000000 [Eh]
	 Same-Spin Energy          =      -0.5789075810348963 [Eh]
	 Opposite-Spin Energy      =      -1.8000680553611665 [Eh]
	 Correlation Energy        =      -2.3789756363960626 [Eh]
	 Total Energy              =    -553.9800713507778482 [Eh]

	 ================> DF-SCS-MP2 Energies <==================
	-----------------------------------------------------------
	 SCS Same-Spin Scale       =       0.3333333333333333 [-]
	 SCS Opposite-Spin Scale   =       1.2000000000000000 [-]
	 SCS Same-Spin Energy      =      -0.1929691936782987 [Eh]
	 SCS Opposite-Spin Energy  =      -2.1600816664333999 [Eh]
	 SCS Correlation Energy    =      -2.3530508601116988 [Eh]
	 SCS Total Energy          =    -553.9541465744935067 [Eh]
	-----------------------------------------------------------

  Dipole Moment: [D]
     X:    -0.0808      Y:    -0.1100      Z:     0.3278     Total:     0.3551

*** Psi4 exiting successfully. Buy a developer a beer!
