                               Psi4 1.3.2 release

  ==> Input File <==

--------------------------------------------------------------------------
#psi4
#
memory 32 gb

molecule  {
0 1
  O        2.4944240     0.5651978    -0.0120123
  O        1.5746620    -1.5220150     0.0896580
  N       -1.1191790    -1.6921850    -0.1509940
  C       -1.0966210    -0.3229200    -0.0500550
  C        0.1267050     0.4076130    -0.0279230
  C       -2.3003260     0.4165330    -0.0467730
  C        0.1050810     1.8109880     0.0359760
  C       -2.2954060     1.8037730     0.0119910
  C       -1.0915490     2.5140600     0.0407670
  C        1.4212810    -0.3016580     0.0102200
  C       -2.3257850    -2.4585570     0.0736050
  C        3.7618060    -0.1198990    -0.0066490
  H       -3.2501560    -0.1077310    -0.0690300
  H        1.0507040     2.3420820     0.0640380
  H       -0.2300450    -2.1418000     0.0381510
  H       -3.2442430     2.3364260     0.0191250
  H       -1.0894800     3.5992760     0.0899090
  H       -2.7979590    -2.2384410     1.0412790
  H       -2.0612830    -3.5169920     0.0485590
  H       -3.0612710    -2.2783540    -0.7172980
  H        3.8686140    -0.8046650    -0.8491430
  H        3.8704280    -0.6765840     0.9253170
  H        4.4925120     0.6845290    -0.0653970
units angstrom
no_reorient  #important for SAPT in psi4, default
symmetry c1  #important for SAPT in psi4, default
}

set PROPERTIES_ORIGIN ["COM"]
properties('MP2/aug-cc-pvtz', properties = ['dipole'])
--------------------------------------------------------------------------

    Molecular point group: c1
  Charge       = 0
  Multiplicity = 1
  Basis Set: AUG-CC-PVTZ
    Blend: AUG-CC-PVTZ
  Basis Set: (AUG-CC-PVTZ AUX)
    Blend: AUG-CC-PVTZ-JKFIT

    Orbital Energies [Eh]
    ---------------------

    Doubly Occupied:

       1A    -20.601842     2A    -20.545855     3A    -15.564127
       4A    -11.388415     5A    -11.299174     6A    -11.282129
       7A    -11.259006     8A    -11.252403     9A    -11.250392
      10A    -11.240577    11A    -11.228087    12A    -11.223791
      13A     -1.446917    14A     -1.350851    15A     -1.246462
      16A     -1.142634    17A     -1.045939    18A     -1.010204
      19A     -0.964157    20A     -0.923424    21A     -0.865213
      22A     -0.809524    23A     -0.783791    24A     -0.726686
      25A     -0.700914    26A     -0.672530    27A     -0.664587
      28A     -0.661071    29A     -0.628928    30A     -0.617111
      31A     -0.612418    32A     -0.584018    33A     -0.574265
      34A     -0.555705    35A     -0.542882    36A     -0.535546
      37A     -0.525942    38A     -0.506750    39A     -0.501387
      40A     -0.466070    41A     -0.445488    42A     -0.428184
      43A     -0.349938    44A     -0.292204

  @DF-RHF Final Energy:  -551.59910225915644

   => Energetics <=

    Nuclear Repulsion Energy =            687.3358400232076519
    One-Electron Energy =               -2115.2348125330854600
    Two-Electron Energy =                 876.2998702507212556
    Total Energy =                       -551.5991022591564388
  Basis Set: (AUG-CC-PVTZ AUX)
    Blend: AUG-CC-PVTZ-RI
    Molecular point group: c1

    Geometry (in Angstrom), charge = 0, multiplicity = 1:

       Center              X                  Y                   Z               Mass
    ------------   -----------------  -----------------  -----------------  -----------------
         O            2.478652146849     0.545964502736    -0.012927536572    15.994914619570
         O            1.558890146849    -1.541248297264     0.088742763428    15.994914619570
         N           -1.134950853151    -1.711418297264    -0.151909236572    14.003074004430
         C           -1.112392853151    -0.342153297264    -0.050970236572    12.000000000000
         C            0.110933146849     0.388379702736    -0.028838236572    12.000000000000
         C           -2.316097853151     0.397299702736    -0.047688236572    12.000000000000
         C            0.089309146849     1.791754702736     0.035060763428    12.000000000000
         C           -2.311177853151     1.784539702736     0.011075763428    12.000000000000
         C           -1.107320853151     2.494826702736     0.039851763428    12.000000000000
         C            1.405509146849    -0.320891297264     0.009304763428    12.000000000000
         C           -2.341556853151    -2.477790297264     0.072689763428    12.000000000000
         C            3.746034146849    -0.139132297264    -0.007564236572    12.000000000000
         H           -3.265927853151    -0.126964297264    -0.069945236572     1.007825032230
         H            1.034932146849     2.322848702736     0.063122763428     1.007825032230
         H           -0.245816853151    -2.161033297264     0.037235763428     1.007825032230
         H           -3.260014853151     2.317192702736     0.018209763428     1.007825032230
         H           -1.105251853151     3.580042702736     0.088993763428     1.007825032230
         H           -2.813730853151    -2.257674297264     1.040363763428     1.007825032230
         H           -2.077054853151    -3.536225297264     0.047643763428     1.007825032230
         H           -3.077042853151    -2.297587297264    -0.718213236572     1.007825032230
         H            3.852842146849    -0.823898297264    -0.850058236572     1.007825032230
         H            3.854656146849    -0.695817297264     0.924401763428     1.007825032230
         H            4.476740146849     0.665295702736    -0.066312236572     1.007825032230

  Basis Set: AUG-CC-PVTZ
    Blend: AUG-CC-PVTZ
  Basis Set: (AUG-CC-PVTZ AUX)
    Blend: AUG-CC-PVTZ-JKFIT
	 Reference Energy          =    -551.5991022591564388 [Eh]
	 Singles Energy            =      -0.0000000000000000 [Eh]
	 Same-Spin Energy          =      -0.5792856026204342 [Eh]
	 Opposite-Spin Energy      =      -1.8009424785822021 [Eh]
	 Correlation Energy        =      -2.3802280812026364 [Eh]
	 Total Energy              =    -553.9793303403590699 [Eh]

	 ================> DF-SCS-MP2 Energies <==================
	-----------------------------------------------------------
	 SCS Same-Spin Scale       =       0.3333333333333333 [-]
	 SCS Opposite-Spin Scale   =       1.2000000000000000 [-]
	 SCS Same-Spin Energy      =      -0.1930952008734780 [Eh]
	 SCS Opposite-Spin Energy  =      -2.1611309742986426 [Eh]
	 SCS Correlation Energy    =      -2.3542261751721205 [Eh]
	 SCS Total Energy          =    -553.9533284343285686 [Eh]
	-----------------------------------------------------------

  Dipole Moment: [D]
     X:    -0.3264      Y:    -0.1707      Z:     0.2795     Total:     0.4624

*** Psi4 exiting successfully. Buy a developer a beer!
