                               Psi4 1.4a3.dev225

  ==> Input File <==

--------------------------------------------------------------------------
#psi4
#
memory 32 gb

molecule  {
0 1
  O        2.4822540     0.5405090    -0.0540980
  O        1.5746620    -1.5220150     0.0896580
  N       -1.1191790    -1.6921850    -0.1509940
  C       -1.0974424    -0.3727780    -0.0537304
  C        0.1267050     0.4076130    -0.0279230
  C       -2.3003260     0.4165330    -0.0467730
  C        0.1050810     1.8109880     0.0359760
  C       -2.2954060     1.8037730     0.0119910
  C       -1.0915490     2.5140600     0.0407670
  C        1.4212810    -0.3016580     0.0102200
  C       -2.3257850    -2.4585570     0.0736050
  C        3.7618060    -0.1198990    -0.0066490
  H       -3.2501560    -0.1077310    -0.0690300
  H        1.0507040     2.3420820     0.0640380
  H       -0.2300450    -2.1418000     0.0381510
  H       -3.2442430     2.3364260     0.0191250
  H       -1.0894800     3.5992760     0.0899090
  H       -2.7979590    -2.2384410     1.0412790
  H       -2.0612830    -3.5169920     0.0485590
  H       -3.0612710    -2.2783540    -0.7172980
  H        3.8686140    -0.8046650    -0.8491430
  H        3.8704280    -0.6765840     0.9253170
  H        4.4925120     0.6845290    -0.0653970
units angstrom
no_reorient  #important for SAPT in psi4, default
symmetry c1  #important for SAPT in psi4, default
}

set PROPERTIES_ORIGIN ["COM"]
properties('MP2/aug-cc-pvtz', properties = ['dipole'])
--------------------------------------------------------------------------

    Molecular point group: c1
  Charge       = 0
  Multiplicity = 1
  Basis Set: AUG-CC-PVTZ
    Blend: AUG-CC-PVTZ
  Basis Set: (AUG-CC-PVTZ AUX)
    Blend: AUG-CC-PVTZ-JKFIT

    Orbital Energies [Eh]
    ---------------------

    Doubly Occupied:

       1A    -20.600568     2A    -20.540114     3A    -15.571475
       4A    -11.382804     5A    -11.302015     6A    -11.282985
       7A    -11.263807     8A    -11.250330     9A    -11.248479
      10A    -11.238389    11A    -11.227150    12A    -11.219462
      13A     -1.452215    14A     -1.348778    15A     -1.265532
      16A     -1.137813    17A     -1.042335    18A     -1.007027
      19A     -0.967713    20A     -0.930189    21A     -0.862277
      22A     -0.807454    23A     -0.783157    24A     -0.727749
      25A     -0.705783    26A     -0.671765    27A     -0.667121
      28A     -0.664366    29A     -0.632194    30A     -0.619591
      31A     -0.614264    32A     -0.582512    33A     -0.572701
      34A     -0.554745    35A     -0.547656    36A     -0.535029
      37A     -0.522486    38A     -0.505620    39A     -0.497381
      40A     -0.464315    41A     -0.442098    42A     -0.435843
      43A     -0.347433    44A     -0.285694

  @DF-RHF Final Energy:  -551.59851302228856

   => Energetics <=

    Nuclear Repulsion Energy =            687.9219371538637233
    One-Electron Energy =               -2116.3840726872940650
    Two-Electron Energy =                 876.8636225111416707
    Total Energy =                       -551.5985130222885573
  Basis Set: (AUG-CC-PVTZ AUX)
    Blend: AUG-CC-PVTZ-RI
    Molecular point group: c1

    Geometry (in Angstrom), charge = 0, multiplicity = 1:

       Center              X                  Y                   Z               Mass
    ------------   -----------------  -----------------  -----------------  -----------------
         O            2.467721038152     0.527292163805    -0.050668274032    15.994914619570
         O            1.560129038152    -1.535231836195     0.093087725968    15.994914619570
         N           -1.133711961848    -1.705401836195    -0.147564274032    14.003074004430
         C           -1.111975361848    -0.385994836195    -0.050300674032    12.000000000000
         C            0.112172038152     0.394396163805    -0.024493274032    12.000000000000
         C           -2.314858961848     0.403316163805    -0.043343274032    12.000000000000
         C            0.090548038152     1.797771163805     0.039405725968    12.000000000000
         C           -2.309938961848     1.790556163805     0.015420725968    12.000000000000
         C           -1.106081961848     2.500843163805     0.044196725968    12.000000000000
         C            1.406748038152    -0.314874836195     0.013649725968    12.000000000000
         C           -2.340317961848    -2.471773836195     0.077034725968    12.000000000000
         C            3.747273038152    -0.133115836195    -0.003219274032    12.000000000000
         H           -3.264688961848    -0.120947836195    -0.065600274032     1.007825032230
         H            1.036171038152     2.328865163805     0.067467725968     1.007825032230
         H           -0.244577961848    -2.155016836195     0.041580725968     1.007825032230
         H           -3.258775961848     2.323209163805     0.022554725968     1.007825032230
         H           -1.104012961848     3.586059163805     0.093338725968     1.007825032230
         H           -2.812491961848    -2.251657836195     1.044708725968     1.007825032230
         H           -2.075815961848    -3.530208836195     0.051988725968     1.007825032230
         H           -3.075803961848    -2.291570836195    -0.713868274032     1.007825032230
         H            3.854081038152    -0.817881836195    -0.845713274032     1.007825032230
         H            3.855895038152    -0.689800836195     0.928746725968     1.007825032230
         H            4.477979038152     0.671312163805    -0.061967274032     1.007825032230

  Basis Set: AUG-CC-PVTZ
    Blend: AUG-CC-PVTZ
  Basis Set: (AUG-CC-PVTZ AUX)
    Blend: AUG-CC-PVTZ-JKFIT
	 Reference Energy          =    -551.5985130222885573 [Eh]
	 Singles Energy            =      -0.0000000000000000 [Eh]
	 Same-Spin Energy          =      -0.5790075627084436 [Eh]
	 Opposite-Spin Energy      =      -1.7998103180906826 [Eh]
	 Correlation Energy        =      -2.3788178807991263 [Eh]
	 Total Energy              =    -553.9773309030877044 [Eh]

	 ================> DF-SCS-MP2 Energies <==================
	-----------------------------------------------------------
	 SCS Same-Spin Scale       =       0.3333333333333333 [-]
	 SCS Opposite-Spin Scale   =       1.2000000000000000 [-]
	 SCS Same-Spin Energy      =      -0.1930025209028145 [Eh]
	 SCS Opposite-Spin Energy  =      -2.1597723817088190 [Eh]
	 SCS Correlation Energy    =      -2.3527749026116336 [Eh]
	 SCS Total Energy          =    -553.9512879249001571 [Eh]
	-----------------------------------------------------------

  Dipole Moment: [D]
     X:    -0.2949      Y:    -0.4742      Z:     0.3020     Total:     0.6348

*** Psi4 exiting successfully. Buy a developer a beer!
