                               Psi4 1.3.2 release

  ==> Input File <==

--------------------------------------------------------------------------
#psi4
#
memory 32 gb

molecule  {
0 1
  O        2.4822540     0.5405090    -0.0540980
  O        1.5746620    -1.5220150     0.0896580
  N       -1.1191790    -1.6921850    -0.1509940
  C       -1.0836933    -0.3441608    -0.0495335
  C        0.1267050     0.4076130    -0.0279230
  C       -2.3003260     0.4165330    -0.0467730
  C        0.1050810     1.8109880     0.0359760
  C       -2.2954060     1.8037730     0.0119910
  C       -1.0915490     2.5140600     0.0407670
  C        1.4212810    -0.3016580     0.0102200
  C       -2.3257850    -2.4585570     0.0736050
  C        3.7618060    -0.1198990    -0.0066490
  H       -3.2501560    -0.1077310    -0.0690300
  H        1.0507040     2.3420820     0.0640380
  H       -0.2300450    -2.1418000     0.0381510
  H       -3.2442430     2.3364260     0.0191250
  H       -1.0894800     3.5992760     0.0899090
  H       -2.7979590    -2.2384410     1.0412790
  H       -2.0612830    -3.5169920     0.0485590
  H       -3.0612710    -2.2783540    -0.7172980
  H        3.8686140    -0.8046650    -0.8491430
  H        3.8704280    -0.6765840     0.9253170
  H        4.4925120     0.6845290    -0.0653970
units angstrom
no_reorient  #important for SAPT in psi4, default
symmetry c1  #important for SAPT in psi4, default
}

set PROPERTIES_ORIGIN ["COM"]
properties('MP2/aug-cc-pvtz', properties = ['dipole'])
--------------------------------------------------------------------------

    Molecular point group: c1
  Charge       = 0
  Multiplicity = 1
  Basis Set: AUG-CC-PVTZ
    Blend: AUG-CC-PVTZ
  Basis Set: (AUG-CC-PVTZ AUX)
    Blend: AUG-CC-PVTZ-JKFIT

    Orbital Energies [Eh]
    ---------------------

    Doubly Occupied:

       1A    -20.601906     2A    -20.541183     3A    -15.566717
       4A    -11.384382     5A    -11.300126     6A    -11.283779
       7A    -11.261065     8A    -11.250589     9A    -11.249092
      10A    -11.238302    11A    -11.228606    12A    -11.221770
      13A     -1.453377    14A     -1.349598    15A     -1.253513
      16A     -1.140470    17A     -1.044976    18A     -1.007700
      19A     -0.968228    20A     -0.926527    21A     -0.862666
      22A     -0.809177    23A     -0.784055    24A     -0.728062
      25A     -0.701878    26A     -0.672324    27A     -0.668050
      28A     -0.662554    29A     -0.630927    30A     -0.615182
      31A     -0.614754    32A     -0.583408    33A     -0.575136
      34A     -0.555630    35A     -0.544368    36A     -0.534943
      37A     -0.523242    38A     -0.505929    39A     -0.501001
      40A     -0.464956    41A     -0.443301    42A     -0.431201
      43A     -0.348617    44A     -0.288997

  @DF-RHF Final Energy:  -551.60096342729992

   => Energetics <=

    Nuclear Repulsion Energy =            688.0313925937532531
    One-Electron Energy =               -2116.6201837970211272
    Two-Electron Energy =                 876.9878277759679577
    Total Energy =                       -551.6009634272999165
  Basis Set: (AUG-CC-PVTZ AUX)
    Blend: AUG-CC-PVTZ-RI
    Molecular point group: c1

    Geometry (in Angstrom), charge = 0, multiplicity = 1:

       Center              X                  Y                   Z               Mass
    ------------   -----------------  -----------------  -----------------  -----------------
         O            2.466721582005     0.525211908627    -0.050973357092    15.994914619570
         O            1.559129582005    -1.537312091373     0.092782642908    15.994914619570
         N           -1.134711417995    -1.707482091373    -0.147869357092    14.003074004430
         C           -1.099225717995    -0.359457891373    -0.046408857092    12.000000000000
         C            0.111172582005     0.392315908627    -0.024798357092    12.000000000000
         C           -2.315858417995     0.401235908627    -0.043648357092    12.000000000000
         C            0.089548582005     1.795690908627     0.039100642908    12.000000000000
         C           -2.310938417995     1.788475908627     0.015115642908    12.000000000000
         C           -1.107081417995     2.498762908627     0.043891642908    12.000000000000
         C            1.405748582005    -0.316955091373     0.013344642908    12.000000000000
         C           -2.341317417995    -2.473854091373     0.076729642908    12.000000000000
         C            3.746273582005    -0.135196091373    -0.003524357092    12.000000000000
         H           -3.265688417995    -0.123028091373    -0.065905357092     1.007825032230
         H            1.035171582005     2.326784908627     0.067162642908     1.007825032230
         H           -0.245577417995    -2.157097091373     0.041275642908     1.007825032230
         H           -3.259775417995     2.321128908627     0.022249642908     1.007825032230
         H           -1.105012417995     3.583978908627     0.093033642908     1.007825032230
         H           -2.813491417995    -2.253738091373     1.044403642908     1.007825032230
         H           -2.076815417995    -3.532289091373     0.051683642908     1.007825032230
         H           -3.076803417995    -2.293651091373    -0.714173357092     1.007825032230
         H            3.853081582005    -0.819962091373    -0.846018357092     1.007825032230
         H            3.854895582005    -0.691881091373     0.928441642908     1.007825032230
         H            4.476979582005     0.669231908627    -0.062272357092     1.007825032230

  Basis Set: AUG-CC-PVTZ
    Blend: AUG-CC-PVTZ
  Basis Set: (AUG-CC-PVTZ AUX)
    Blend: AUG-CC-PVTZ-JKFIT
	 Reference Energy          =    -551.6009634272999165 [Eh]
	 Singles Energy            =      -0.0000000000000000 [Eh]
	 Same-Spin Energy          =      -0.5789250769764542 [Eh]
	 Opposite-Spin Energy      =      -1.7998645920597895 [Eh]
	 Correlation Energy        =      -2.3787896690362436 [Eh]
	 Total Energy              =    -553.9797530963361396 [Eh]

	 ================> DF-SCS-MP2 Energies <==================
	-----------------------------------------------------------
	 SCS Same-Spin Scale       =       0.3333333333333333 [-]
	 SCS Opposite-Spin Scale   =       1.2000000000000000 [-]
	 SCS Same-Spin Energy      =      -0.1929750256588181 [Eh]
	 SCS Opposite-Spin Energy  =      -2.1598375104717475 [Eh]
	 SCS Correlation Energy    =      -2.3528125361305658 [Eh]
	 SCS Total Energy          =    -553.9537759634305303 [Eh]
	-----------------------------------------------------------

  Dipole Moment: [D]
     X:    -0.2298      Y:    -0.2631      Z:     0.3176     Total:     0.4722

*** Psi4 exiting successfully. Buy a developer a beer!
