                               Psi4 1.4a3.dev225

  ==> Input File <==

--------------------------------------------------------------------------
#psi4
#
memory 32 gb

molecule  {
0 1
  O        2.4822540     0.5405090    -0.0540980
  O        1.5746620    -1.5220150     0.0896580
  N       -1.1191790    -1.6921850    -0.1509940
  C       -1.0966210    -0.3229200    -0.0500550
  C        0.1267050     0.4076130    -0.0279230
  C       -2.3003260     0.4165330    -0.0467730
  C        0.1050810     1.8109880     0.0359760
  C       -2.2954060     1.8037730     0.0119910
  C       -1.0915490     2.5140600     0.0407670
  C        1.4150588    -0.2521514     0.0069974
  C       -2.3257850    -2.4585570     0.0736050
  C        3.7618060    -0.1198990    -0.0066490
  H       -3.2501560    -0.1077310    -0.0690300
  H        1.0507040     2.3420820     0.0640380
  H       -0.2300450    -2.1418000     0.0381510
  H       -3.2442430     2.3364260     0.0191250
  H       -1.0894800     3.5992760     0.0899090
  H       -2.7979590    -2.2384410     1.0412790
  H       -2.0612830    -3.5169920     0.0485590
  H       -3.0612710    -2.2783540    -0.7172980
  H        3.8686140    -0.8046650    -0.8491430
  H        3.8704280    -0.6765840     0.9253170
  H        4.4925120     0.6845290    -0.0653970
units angstrom
no_reorient  #important for SAPT in psi4, default
symmetry c1  #important for SAPT in psi4, default
}

set PROPERTIES_ORIGIN ["COM"]
properties('MP2/aug-cc-pvtz', properties = ['dipole'])
--------------------------------------------------------------------------

    Molecular point group: c1
  Charge       = 0
  Multiplicity = 1
  Basis Set: AUG-CC-PVTZ
    Blend: AUG-CC-PVTZ
  Basis Set: (AUG-CC-PVTZ AUX)
    Blend: AUG-CC-PVTZ-JKFIT

    Orbital Energies [Eh]
    ---------------------

    Doubly Occupied:

       1A    -20.608163     2A    -20.529742     3A    -15.563216
       4A    -11.385951     5A    -11.301394     6A    -11.286870
       7A    -11.258183     8A    -11.254429     9A    -11.252200
      10A    -11.239236    11A    -11.229134    12A    -11.224772
      13A     -1.456469    14A     -1.321709    15A     -1.245078
      16A     -1.144845    17A     -1.052054    18A     -1.011110
      19A     -0.974280    20A     -0.924370    21A     -0.868543
      22A     -0.811101    23A     -0.785780    24A     -0.731645
      25A     -0.699114    26A     -0.671073    27A     -0.670319
      28A     -0.658848    29A     -0.631033    30A     -0.615543
      31A     -0.611897    32A     -0.583390    33A     -0.577461
      34A     -0.551388    35A     -0.542129    36A     -0.533714
      37A     -0.521020    38A     -0.506325    39A     -0.501368
      40A     -0.455908    41A     -0.439902    42A     -0.427462
      43A     -0.351395    44A     -0.292685

  @DF-RHF Final Energy:  -551.59488856870655

   => Energetics <=

    Nuclear Repulsion Energy =            687.9805887289121529
    One-Electron Energy =               -2116.5464654317611348
    Two-Electron Energy =                 876.9709881341424307
    Total Energy =                       -551.5948885687065513
  Basis Set: (AUG-CC-PVTZ AUX)
    Blend: AUG-CC-PVTZ-RI
    Molecular point group: c1

    Geometry (in Angstrom), charge = 0, multiplicity = 1:

       Center              X                  Y                   Z               Mass
    ------------   -----------------  -----------------  -----------------  -----------------
         O            2.468113635687     0.520069104818    -0.050701189186    15.994914619570
         O            1.560521635687    -1.542454895182     0.093054810814    15.994914619570
         N           -1.133319364313    -1.712624895182    -0.147597189186    14.003074004430
         C           -1.110761364313    -0.343359895182    -0.046658189186    12.000000000000
         C            0.112564635687     0.387173104818    -0.024526189186    12.000000000000
         C           -2.314466364313     0.396093104818    -0.043376189186    12.000000000000
         C            0.090940635687     1.790548104818     0.039372810814    12.000000000000
         C           -2.309546364313     1.783333104818     0.015387810814    12.000000000000
         C           -1.105689364313     2.493620104818     0.044163810814    12.000000000000
         C            1.400918435687    -0.272591295182     0.010394210814    12.000000000000
         C           -2.339925364313    -2.478996895182     0.077001810814    12.000000000000
         C            3.747665635687    -0.140338895182    -0.003252189186    12.000000000000
         H           -3.264296364313    -0.128170895182    -0.065633189186     1.007825032230
         H            1.036563635687     2.321642104818     0.067434810814     1.007825032230
         H           -0.244185364313    -2.162239895182     0.041547810814     1.007825032230
         H           -3.258383364313     2.315986104818     0.022521810814     1.007825032230
         H           -1.103620364313     3.578836104818     0.093305810814     1.007825032230
         H           -2.812099364313    -2.258880895182     1.044675810814     1.007825032230
         H           -2.075423364313    -3.537431895182     0.051955810814     1.007825032230
         H           -3.075411364313    -2.298793895182    -0.713901189186     1.007825032230
         H            3.854473635687    -0.825104895182    -0.845746189186     1.007825032230
         H            3.856287635687    -0.697023895182     0.928713810814     1.007825032230
         H            4.478371635687     0.664089104818    -0.062000189186     1.007825032230

  Basis Set: AUG-CC-PVTZ
    Blend: AUG-CC-PVTZ
  Basis Set: (AUG-CC-PVTZ AUX)
    Blend: AUG-CC-PVTZ-JKFIT
	 Reference Energy          =    -551.5948885687065513 [Eh]
	 Singles Energy            =      -0.0000000000000000 [Eh]
	 Same-Spin Energy          =      -0.5798027165216739 [Eh]
	 Opposite-Spin Energy      =      -1.8014335343460788 [Eh]
	 Correlation Energy        =      -2.3812362508677527 [Eh]
	 Total Energy              =    -553.9761248195743519 [Eh]

	 ================> DF-SCS-MP2 Energies <==================
	-----------------------------------------------------------
	 SCS Same-Spin Scale       =       0.3333333333333333 [-]
	 SCS Opposite-Spin Scale   =       1.2000000000000000 [-]
	 SCS Same-Spin Energy      =      -0.1932675721738913 [Eh]
	 SCS Opposite-Spin Energy  =      -2.1617202412152943 [Eh]
	 SCS Correlation Energy    =      -2.3549878133891857 [Eh]
	 SCS Total Energy          =    -553.9498763820956810 [Eh]
	-----------------------------------------------------------

  Dipole Moment: [D]
     X:    -0.2160      Y:     0.1888      Z:     0.3024     Total:     0.4168

*** Psi4 exiting successfully. Buy a developer a beer!
