                               Psi4 1.3.2 release

  ==> Input File <==

--------------------------------------------------------------------------
#psi4
#
memory 32 gb

molecule  {
0 1
  O        2.4822540     0.5405090    -0.0540980
  O        1.5746620    -1.5220150     0.0896580
  N       -1.1191790    -1.6921850    -0.1509940
  C       -1.0966210    -0.3229200    -0.0500550
  C        0.1267050     0.4076130    -0.0279230
  C       -2.3003260     0.4165330    -0.0467730
  C        0.1050810     1.8109880     0.0359760
  C       -2.2954060     1.8037730     0.0119910
  C       -1.0915490     2.5140600     0.0407670
  C        1.4212810    -0.3016580     0.0102200
  C       -2.4024945    -2.3361655     0.0280568
  C        3.7618060    -0.1198990    -0.0066490
  H       -3.2501560    -0.1077310    -0.0690300
  H        1.0507040     2.3420820     0.0640380
  H       -0.2300450    -2.1418000     0.0381510
  H       -3.2442430     2.3364260     0.0191250
  H       -1.0894800     3.5992760     0.0899090
  H       -2.7979590    -2.2384410     1.0412790
  H       -2.0612830    -3.5169920     0.0485590
  H       -3.0612710    -2.2783540    -0.7172980
  H        3.8686140    -0.8046650    -0.8491430
  H        3.8704280    -0.6765840     0.9253170
  H        4.4925120     0.6845290    -0.0653970
units angstrom
no_reorient  #important for SAPT in psi4, default
symmetry c1  #important for SAPT in psi4, default
}

set PROPERTIES_ORIGIN ["COM"]
properties('MP2/aug-cc-pvtz', properties = ['dipole'])
--------------------------------------------------------------------------

    Molecular point group: c1
  Charge       = 0
  Multiplicity = 1
  Basis Set: AUG-CC-PVTZ
    Blend: AUG-CC-PVTZ
  Basis Set: (AUG-CC-PVTZ AUX)
    Blend: AUG-CC-PVTZ-JKFIT

    Orbital Energies [Eh]
    ---------------------

    Doubly Occupied:

       1A    -20.603111     2A    -20.542724     3A    -15.565548
       4A    -11.386103     5A    -11.296381     6A    -11.284539
       7A    -11.262168     8A    -11.252173     9A    -11.250050
      10A    -11.239146    11A    -11.227560    12A    -11.223401
      13A     -1.454539    14A     -1.350693    15A     -1.248306
      16A     -1.141894    17A     -1.046497    18A     -1.007425
      19A     -0.968905    20A     -0.927243    21A     -0.864604
      22A     -0.810442    23A     -0.784096    24A     -0.729177
      25A     -0.699466    26A     -0.673928    27A     -0.669281
      28A     -0.664539    29A     -0.638428    30A     -0.628047
      31A     -0.612712    32A     -0.589380    33A     -0.576834
      34A     -0.558686    35A     -0.535636    36A     -0.526600
      37A     -0.513817    38A     -0.502231    39A     -0.490149
      40A     -0.465948    41A     -0.445971    42A     -0.431842
      43A     -0.349680    44A     -0.292657

  @DF-RHF Final Energy:  -551.57687777334650

   => Energetics <=

    Nuclear Repulsion Energy =            688.7466360146677289
    One-Electron Energy =               -2117.9819110358771468
    Two-Electron Energy =                 877.6583972478629221
    Total Energy =                       -551.5768777733464958
  Basis Set: (AUG-CC-PVTZ AUX)
    Blend: AUG-CC-PVTZ-RI
    Molecular point group: c1

    Geometry (in Angstrom), charge = 0, multiplicity = 1:

       Center              X                  Y                   Z               Mass
    ------------   -----------------  -----------------  -----------------  -----------------
         O            2.473237532183     0.514770920837    -0.047624436444    15.994914619570
         O            1.565645532183    -1.547753079163     0.096131563556    15.994914619570
         N           -1.128195467817    -1.717923079163    -0.144520436444    14.003074004430
         C           -1.105637467817    -0.348658079163    -0.043581436444    12.000000000000
         C            0.117688532183     0.381874920837    -0.021449436444    12.000000000000
         C           -2.309342467817     0.390794920837    -0.040299436444    12.000000000000
         C            0.096064532183     1.785249920837     0.042449563556    12.000000000000
         C           -2.304422467817     1.778034920837     0.018464563556    12.000000000000
         C           -1.100565467817     2.488321920837     0.047240563556    12.000000000000
         C            1.412264532183    -0.327396079163     0.016693563556    12.000000000000
         C           -2.411510967817    -2.361903579163     0.034530363556    12.000000000000
         C            3.752789532183    -0.145637079163    -0.000175436444    12.000000000000
         H           -3.259172467817    -0.133469079163    -0.062556436444     1.007825032230
         H            1.041687532183     2.316343920837     0.070511563556     1.007825032230
         H           -0.239061467817    -2.167538079163     0.044624563556     1.007825032230
         H           -3.253259467817     2.310687920837     0.025598563556     1.007825032230
         H           -1.098496467817     3.573537920837     0.096382563556     1.007825032230
         H           -2.806975467817    -2.264179079163     1.047752563556     1.007825032230
         H           -2.070299467817    -3.542730079163     0.055032563556     1.007825032230
         H           -3.070287467817    -2.304092079163    -0.710824436444     1.007825032230
         H            3.859597532183    -0.830403079163    -0.842669436444     1.007825032230
         H            3.861411532183    -0.702322079163     0.931790563556     1.007825032230
         H            4.483495532183     0.658790920837    -0.058923436444     1.007825032230

  Basis Set: AUG-CC-PVTZ
    Blend: AUG-CC-PVTZ
  Basis Set: (AUG-CC-PVTZ AUX)
    Blend: AUG-CC-PVTZ-JKFIT
	 Reference Energy          =    -551.5768777733464958 [Eh]
	 Singles Energy            =      -0.0000000000000000 [Eh]
	 Same-Spin Energy          =      -0.5796638961367380 [Eh]
	 Opposite-Spin Energy      =      -1.8016038096159863 [Eh]
	 Correlation Energy        =      -2.3812677057527241 [Eh]
	 Total Energy              =    -553.9581454790992439 [Eh]

	 ================> DF-SCS-MP2 Energies <==================
	-----------------------------------------------------------
	 SCS Same-Spin Scale       =       0.3333333333333333 [-]
	 SCS Opposite-Spin Scale   =       1.2000000000000000 [-]
	 SCS Same-Spin Energy      =      -0.1932212987122460 [Eh]
	 SCS Opposite-Spin Energy  =      -2.1619245715391835 [Eh]
	 SCS Correlation Energy    =      -2.3551458702514294 [Eh]
	 SCS Total Energy          =    -553.9320236435979723 [Eh]
	-----------------------------------------------------------

  Dipole Moment: [D]
     X:    -0.2149      Y:     0.0036      Z:     0.2919     Total:     0.3625

*** Psi4 exiting successfully. Buy a developer a beer!
