                               Psi4 1.3.2 release

  ==> Input File <==

--------------------------------------------------------------------------
#psi4
#
memory 32 gb

molecule  {
0 1
  O        2.4822540     0.5405090    -0.0540980
  O        1.5746620    -1.5220150     0.0896580
  N       -1.1191790    -1.6921850    -0.1509940
  C       -1.2360606    -0.3256042    -0.0848147
  C        0.1267050     0.4076130    -0.0279230
  C       -2.3003260     0.4165330    -0.0467730
  C        0.1050810     1.8109880     0.0359760
  C       -2.2954060     1.8037730     0.0119910
  C       -1.0915490     2.5140600     0.0407670
  C        1.4212810    -0.3016580     0.0102200
  C       -2.3257850    -2.4585570     0.0736050
  C        3.7618060    -0.1198990    -0.0066490
  H       -3.2501560    -0.1077310    -0.0690300
  H        1.0507040     2.3420820     0.0640380
  H       -0.2300450    -2.1418000     0.0381510
  H       -3.2442430     2.3364260     0.0191250
  H       -1.0894800     3.5992760     0.0899090
  H       -2.7979590    -2.2384410     1.0412790
  H       -2.0612830    -3.5169920     0.0485590
  H       -3.0612710    -2.2783540    -0.7172980
  H        3.8686140    -0.8046650    -0.8491430
  H        3.8704280    -0.6765840     0.9253170
  H        4.4925120     0.6845290    -0.0653970
units angstrom
no_reorient  #important for SAPT in psi4, default
symmetry c1  #important for SAPT in psi4, default
}

set PROPERTIES_ORIGIN ["COM"]
properties('MP2/aug-cc-pvtz', properties = ['dipole'])
--------------------------------------------------------------------------

    Molecular point group: c1
  Charge       = 0
  Multiplicity = 1
  Basis Set: AUG-CC-PVTZ
    Blend: AUG-CC-PVTZ
  Basis Set: (AUG-CC-PVTZ AUX)
    Blend: AUG-CC-PVTZ-JKFIT

    Orbital Energies [Eh]
    ---------------------

    Doubly Occupied:

       1A    -20.602152     2A    -20.541087     3A    -15.560450
       4A    -11.386127     5A    -11.293783     6A    -11.284049
       7A    -11.257394     8A    -11.253159     9A    -11.252804
      10A    -11.248110    11A    -11.225678    12A    -11.213785
      13A     -1.453305    14A     -1.348967    15A     -1.244697
      16A     -1.143327    17A     -1.047284    18A     -1.016738
      19A     -0.964809    20A     -0.920787    21A     -0.873122
      22A     -0.802470    23A     -0.777906    24A     -0.728911
      25A     -0.710889    26A     -0.676368    27A     -0.667938
      28A     -0.653737    29A     -0.632010    30A     -0.622248
      31A     -0.610488    32A     -0.579779    33A     -0.573333
      34A     -0.553600    35A     -0.542828    36A     -0.537144
      37A     -0.526656    38A     -0.509340    39A     -0.481947
      40A     -0.464657    41A     -0.445758    42A     -0.426676
      43A     -0.351570    44A     -0.293181

  @DF-RHF Final Energy:  -551.57760611097478

   => Energetics <=

    Nuclear Repulsion Energy =            687.2474319831952698
    One-Electron Energy =               -2115.0479794188941014
    Two-Electron Energy =                 876.2229413247239336
    Total Energy =                       -551.5776061109747843
  Basis Set: (AUG-CC-PVTZ AUX)
    Blend: AUG-CC-PVTZ-RI
    Molecular point group: c1

    Geometry (in Angstrom), charge = 0, multiplicity = 1:

       Center              X                  Y                   Z               Mass
    ------------   -----------------  -----------------  -----------------  -----------------
         O            2.477797538589     0.523862983392    -0.048408679242    15.994914619570
         O            1.570205538589    -1.538661016608     0.095347320758    15.994914619570
         N           -1.123635461411    -1.708831016608    -0.145304679242    14.003074004430
         C           -1.240517061411    -0.342250216608    -0.079125379242    12.000000000000
         C            0.122248538589     0.390966983392    -0.022233679242    12.000000000000
         C           -2.304782461411     0.399886983392    -0.041083679242    12.000000000000
         C            0.100624538589     1.794341983392     0.041665320758    12.000000000000
         C           -2.299862461411     1.787126983392     0.017680320758    12.000000000000
         C           -1.096005461411     2.497413983392     0.046456320758    12.000000000000
         C            1.416824538589    -0.318304016608     0.015909320758    12.000000000000
         C           -2.330241461411    -2.475203016608     0.079294320758    12.000000000000
         C            3.757349538589    -0.136545016608    -0.000959679242    12.000000000000
         H           -3.254612461411    -0.124377016608    -0.063340679242     1.007825032230
         H            1.046247538589     2.325435983392     0.069727320758     1.007825032230
         H           -0.234501461411    -2.158446016608     0.043840320758     1.007825032230
         H           -3.248699461411     2.319779983392     0.024814320758     1.007825032230
         H           -1.093936461411     3.582629983392     0.095598320758     1.007825032230
         H           -2.802415461411    -2.255087016608     1.046968320758     1.007825032230
         H           -2.065739461411    -3.533638016608     0.054248320758     1.007825032230
         H           -3.065727461411    -2.295000016608    -0.711608679242     1.007825032230
         H            3.864157538589    -0.821311016608    -0.843453679242     1.007825032230
         H            3.865971538589    -0.693230016608     0.931006320758     1.007825032230
         H            4.488055538589     0.667882983392    -0.059707679242     1.007825032230

  Basis Set: AUG-CC-PVTZ
    Blend: AUG-CC-PVTZ
  Basis Set: (AUG-CC-PVTZ AUX)
    Blend: AUG-CC-PVTZ-JKFIT
	 Reference Energy          =    -551.5776061109747843 [Eh]
	 Singles Energy            =      -0.0000000000000000 [Eh]
	 Same-Spin Energy          =      -0.5789666956158832 [Eh]
	 Opposite-Spin Energy      =      -1.8007234509244365 [Eh]
	 Correlation Energy        =      -2.3796901465403195 [Eh]
	 Total Energy              =    -553.9572962575150541 [Eh]

	 ================> DF-SCS-MP2 Energies <==================
	-----------------------------------------------------------
	 SCS Same-Spin Scale       =       0.3333333333333333 [-]
	 SCS Opposite-Spin Scale   =       1.2000000000000000 [-]
	 SCS Same-Spin Energy      =      -0.1929888985386277 [Eh]
	 SCS Opposite-Spin Energy  =      -2.1608681411093236 [Eh]
	 SCS Correlation Energy    =      -2.3538570396479512 [Eh]
	 SCS Total Energy          =    -553.9314631506227897 [Eh]
	-----------------------------------------------------------

  Dipole Moment: [D]
     X:    -0.0837      Y:     0.0662      Z:     0.3155     Total:     0.3331

*** Psi4 exiting successfully. Buy a developer a beer!
