                               Psi4 1.4a3.dev225

  ==> Input File <==

--------------------------------------------------------------------------
#psi4
#
memory 32 gb

molecule  {
0 1
  O        2.4822540     0.5405090    -0.0540980
  O        1.5746620    -1.5220150     0.0896580
  N       -1.1191790    -1.6921850    -0.1509940
  C       -1.0966210    -0.3229200    -0.0500550
  C        0.1267050     0.4076130    -0.0279230
  C       -2.3003260     0.4165330    -0.0467730
  C        0.1050810     1.8109880     0.0359760
  C       -2.2954060     1.8037730     0.0119910
  C       -1.0915490     2.5140600     0.0407670
  C        1.4212810    -0.3016580     0.0102200
  C       -2.3674798    -2.4850393     0.0813661
  C        3.7618060    -0.1198990    -0.0066490
  H       -3.2501560    -0.1077310    -0.0690300
  H        1.0507040     2.3420820     0.0640380
  H       -0.2300450    -2.1418000     0.0381510
  H       -3.2442430     2.3364260     0.0191250
  H       -1.0894800     3.5992760     0.0899090
  H       -2.7979590    -2.2384410     1.0412790
  H       -2.0612830    -3.5169920     0.0485590
  H       -3.0612710    -2.2783540    -0.7172980
  H        3.8686140    -0.8046650    -0.8491430
  H        3.8704280    -0.6765840     0.9253170
  H        4.4925120     0.6845290    -0.0653970
units angstrom
no_reorient  #important for SAPT in psi4, default
symmetry c1  #important for SAPT in psi4, default
}

set PROPERTIES_ORIGIN ["COM"]
properties('MP2/aug-cc-pvtz', properties = ['dipole'])
--------------------------------------------------------------------------

    Molecular point group: c1
  Charge       = 0
  Multiplicity = 1
  Basis Set: AUG-CC-PVTZ
    Blend: AUG-CC-PVTZ
  Basis Set: (AUG-CC-PVTZ AUX)
    Blend: AUG-CC-PVTZ-JKFIT

    Orbital Energies [Eh]
    ---------------------

    Doubly Occupied:

       1A    -20.601866     2A    -20.540674     3A    -15.562336
       4A    -11.384493     5A    -11.297351     6A    -11.283672
       7A    -11.259020     8A    -11.251005     9A    -11.249114
      10A    -11.238249    11A    -11.226557    12A    -11.222151
      13A     -1.453113    14A     -1.348928    15A     -1.236629
      16A     -1.139048    17A     -1.044959    18A     -1.007095
      19A     -0.967854    20A     -0.926983    21A     -0.863229
      22A     -0.808439    23A     -0.782930    24A     -0.727003
      25A     -0.697676    26A     -0.672317    27A     -0.667784
      28A     -0.655207    29A     -0.626601    30A     -0.616482
      31A     -0.614908    32A     -0.575772    33A     -0.573810
      34A     -0.556270    35A     -0.552108    36A     -0.534224
      37A     -0.524447    38A     -0.508112    39A     -0.499621
      40A     -0.464473    41A     -0.443411    42A     -0.429505
      43A     -0.348689    44A     -0.289961

  @DF-RHF Final Energy:  -551.59962322469971

   => Energetics <=

    Nuclear Repulsion Energy =            687.0190941142793690
    One-Electron Energy =               -2114.6892833122037700
    Two-Electron Energy =                 876.0705659732246886
    Total Energy =                       -551.5996232246997124
  Basis Set: (AUG-CC-PVTZ AUX)
    Blend: AUG-CC-PVTZ-RI
    Molecular point group: c1

    Geometry (in Angstrom), charge = 0, multiplicity = 1:

       Center              X                  Y                   Z               Mass
    ------------   -----------------  -----------------  -----------------  -----------------
         O            2.470692226877     0.525592926250    -0.051499621555    15.994914619570
         O            1.563100226877    -1.536931073750     0.092256378445    15.994914619570
         N           -1.130740773123    -1.707101073750    -0.148395621555    14.003074004430
         C           -1.108182773123    -0.337836073750    -0.047456621555    12.000000000000
         C            0.115143226877     0.392696926250    -0.025324621555    12.000000000000
         C           -2.311887773123     0.401616926250    -0.044174621555    12.000000000000
         C            0.093519226877     1.796071926250     0.038574378445    12.000000000000
         C           -2.306967773123     1.788856926250     0.014589378445    12.000000000000
         C           -1.103110773123     2.499143926250     0.043365378445    12.000000000000
         C            1.409719226877    -0.316574073750     0.012818378445    12.000000000000
         C           -2.379041573123    -2.499955373750     0.083964478445    12.000000000000
         C            3.750244226877    -0.134815073750    -0.004050621555    12.000000000000
         H           -3.261717773123    -0.122647073750    -0.066431621555     1.007825032230
         H            1.039142226877     2.327165926250     0.066636378445     1.007825032230
         H           -0.241606773123    -2.156716073750     0.040749378445     1.007825032230
         H           -3.255804773123     2.321509926250     0.021723378445     1.007825032230
         H           -1.101041773123     3.584359926250     0.092507378445     1.007825032230
         H           -2.809520773123    -2.253357073750     1.043877378445     1.007825032230
         H           -2.072844773123    -3.531908073750     0.051157378445     1.007825032230
         H           -3.072832773123    -2.293270073750    -0.714699621555     1.007825032230
         H            3.857052226877    -0.819581073750    -0.846544621555     1.007825032230
         H            3.858866226877    -0.691500073750     0.927915378445     1.007825032230
         H            4.480950226877     0.669612926250    -0.062798621555     1.007825032230

  Basis Set: AUG-CC-PVTZ
    Blend: AUG-CC-PVTZ
  Basis Set: (AUG-CC-PVTZ AUX)
    Blend: AUG-CC-PVTZ-JKFIT
	 Reference Energy          =    -551.5996232246997124 [Eh]
	 Singles Energy            =      -0.0000000000000000 [Eh]
	 Same-Spin Energy          =      -0.5786740811569488 [Eh]
	 Opposite-Spin Energy      =      -1.8000324521388689 [Eh]
	 Correlation Energy        =      -2.3787065332958175 [Eh]
	 Total Energy              =    -553.9783297579955388 [Eh]

	 ================> DF-SCS-MP2 Energies <==================
	-----------------------------------------------------------
	 SCS Same-Spin Scale       =       0.3333333333333333 [-]
	 SCS Opposite-Spin Scale   =       1.2000000000000000 [-]
	 SCS Same-Spin Energy      =      -0.1928913603856496 [Eh]
	 SCS Opposite-Spin Energy  =      -2.1600389425666426 [Eh]
	 SCS Correlation Energy    =      -2.3529303029522923 [Eh]
	 SCS Total Energy          =    -553.9525535276519577 [Eh]
	-----------------------------------------------------------

  Dipole Moment: [D]
     X:    -0.3069      Y:    -0.2222      Z:     0.3511     Total:     0.5165

*** Psi4 exiting successfully. Buy a developer a beer!
