                               Psi4 1.3.2 release

  ==> Input File <==

--------------------------------------------------------------------------
#psi4
#
memory 32 gb

molecule  {
0 1
  O        2.4822540     0.5405090    -0.0540980
  O        1.4459926    -1.5312722     0.0911251
  N       -1.1191790    -1.6921850    -0.1509940
  C       -1.0966210    -0.3229200    -0.0500550
  C        0.1267050     0.4076130    -0.0279230
  C       -2.3003260     0.4165330    -0.0467730
  C        0.1050810     1.8109880     0.0359760
  C       -2.2954060     1.8037730     0.0119910
  C       -1.0915490     2.5140600     0.0407670
  C        1.4212810    -0.3016580     0.0102200
  C       -2.3257850    -2.4585570     0.0736050
  C        3.7618060    -0.1198990    -0.0066490
  H       -3.2501560    -0.1077310    -0.0690300
  H        1.0507040     2.3420820     0.0640380
  H       -0.2300450    -2.1418000     0.0381510
  H       -3.2442430     2.3364260     0.0191250
  H       -1.0894800     3.5992760     0.0899090
  H       -2.7979590    -2.2384410     1.0412790
  H       -2.0612830    -3.5169920     0.0485590
  H       -3.0612710    -2.2783540    -0.7172980
  H        3.8686140    -0.8046650    -0.8491430
  H        3.8704280    -0.6765840     0.9253170
  H        4.4925120     0.6845290    -0.0653970
units angstrom
no_reorient  #important for SAPT in psi4, default
symmetry c1  #important for SAPT in psi4, default
}

set PROPERTIES_ORIGIN ["COM"]
properties('MP2/aug-cc-pvtz', properties = ['dipole'])
--------------------------------------------------------------------------

    Molecular point group: c1
  Charge       = 0
  Multiplicity = 1
  Basis Set: AUG-CC-PVTZ
    Blend: AUG-CC-PVTZ
  Basis Set: (AUG-CC-PVTZ AUX)
    Blend: AUG-CC-PVTZ-JKFIT

    Orbital Energies [Eh]
    ---------------------

    Doubly Occupied:

       1A    -20.612267     2A    -20.544708     3A    -15.557021
       4A    -11.388216     5A    -11.294445     6A    -11.290430
       7A    -11.254836     8A    -11.248633     9A    -11.246383
      10A    -11.234616    11A    -11.224692    12A    -11.220544
      13A     -1.455916    14A     -1.361220    15A     -1.240566
      16A     -1.138792    17A     -1.043188    18A     -1.006363
      19A     -0.972098    20A     -0.920746    21A     -0.861867
      22A     -0.806723    23A     -0.789359    24A     -0.728568
      25A     -0.696209    26A     -0.679006    27A     -0.673470
      28A     -0.660163    29A     -0.627747    30A     -0.614343
      31A     -0.608658    32A     -0.580744    33A     -0.576094
      34A     -0.560402    35A     -0.537963    36A     -0.537812
      37A     -0.528228    38A     -0.504804    39A     -0.498470
      40A     -0.471458    41A     -0.441942    42A     -0.423503
      43A     -0.346151    44A     -0.287804

  @DF-RHF Final Energy:  -551.59684608656062

   => Energetics <=

    Nuclear Repulsion Energy =            689.0559493332198144
    One-Electron Energy =               -2118.7112612616633669
    Two-Electron Energy =                 878.0584658418829349
    Total Energy =                       -551.5968460865606176
  Basis Set: (AUG-CC-PVTZ AUX)
    Blend: AUG-CC-PVTZ-RI
    Molecular point group: c1

    Geometry (in Angstrom), charge = 0, multiplicity = 1:

       Center              X                  Y                   Z               Mass
    ------------   -----------------  -----------------  -----------------  -----------------
         O            2.480128428145     0.524564815476    -0.051077598949    15.994914619570
         O            1.443867028145    -1.547216384524     0.094145501051    15.994914619570
         N           -1.121304571855    -1.708129184524    -0.147973598949    14.003074004430
         C           -1.098746571855    -0.338864184524    -0.047034598949    12.000000000000
         C            0.124579428145     0.391668815476    -0.024902598949    12.000000000000
         C           -2.302451571855     0.400588815476    -0.043752598949    12.000000000000
         C            0.102955428145     1.795043815476     0.038996401051    12.000000000000
         C           -2.297531571855     1.787828815476     0.015011401051    12.000000000000
         C           -1.093674571855     2.498115815476     0.043787401051    12.000000000000
         C            1.419155428145    -0.317602184524     0.013240401051    12.000000000000
         C           -2.327910571855    -2.474501184524     0.076625401051    12.000000000000
         C            3.759680428145    -0.135843184524    -0.003628598949    12.000000000000
         H           -3.252281571855    -0.123675184524    -0.066009598949     1.007825032230
         H            1.048578428145     2.326137815476     0.067058401051     1.007825032230
         H           -0.232170571855    -2.157744184524     0.041171401051     1.007825032230
         H           -3.246368571855     2.320481815476     0.022145401051     1.007825032230
         H           -1.091605571855     3.583331815476     0.092929401051     1.007825032230
         H           -2.800084571855    -2.254385184524     1.044299401051     1.007825032230
         H           -2.063408571855    -3.532936184524     0.051579401051     1.007825032230
         H           -3.063396571855    -2.294298184524    -0.714277598949     1.007825032230
         H            3.866488428145    -0.820609184524    -0.846122598949     1.007825032230
         H            3.868302428145    -0.692528184524     0.928337401051     1.007825032230
         H            4.490386428145     0.668584815476    -0.062376598949     1.007825032230

  Basis Set: AUG-CC-PVTZ
    Blend: AUG-CC-PVTZ
  Basis Set: (AUG-CC-PVTZ AUX)
    Blend: AUG-CC-PVTZ-JKFIT
	 Reference Energy          =    -551.5968460865606176 [Eh]
	 Singles Energy            =      -0.0000000000000000 [Eh]
	 Same-Spin Energy          =      -0.5795752673777529 [Eh]
	 Opposite-Spin Energy      =      -1.8007309567986143 [Eh]
	 Correlation Energy        =      -2.3803062241763673 [Eh]
	 Total Energy              =    -553.9771523107369831 [Eh]

	 ================> DF-SCS-MP2 Energies <==================
	-----------------------------------------------------------
	 SCS Same-Spin Scale       =       0.3333333333333333 [-]
	 SCS Opposite-Spin Scale   =       1.2000000000000000 [-]
	 SCS Same-Spin Energy      =      -0.1931917557925843 [Eh]
	 SCS Opposite-Spin Energy  =      -2.1608771481583369 [Eh]
	 SCS Correlation Energy    =      -2.3540689039509211 [Eh]
	 SCS Total Energy          =    -553.9509149905115919 [Eh]
	-----------------------------------------------------------

  Dipole Moment: [D]
     X:     0.3543      Y:    -0.1384      Z:     0.3247     Total:     0.5001

*** Psi4 exiting successfully. Buy a developer a beer!
