                               Psi4 1.3.2 release

  ==> Input File <==

--------------------------------------------------------------------------
#psi4
#
memory 32 gb

molecule  {
0 1
  O        2.4822540     0.5405090    -0.0540980
  O        1.5746620    -1.5220150     0.0896580
  N       -1.0998370    -1.7119112    -0.1087143
  C       -1.0966210    -0.3229200    -0.0500550
  C        0.1267050     0.4076130    -0.0279230
  C       -2.3003260     0.4165330    -0.0467730
  C        0.1050810     1.8109880     0.0359760
  C       -2.2954060     1.8037730     0.0119910
  C       -1.0915490     2.5140600     0.0407670
  C        1.4212810    -0.3016580     0.0102200
  C       -2.3257850    -2.4585570     0.0736050
  C        3.7618060    -0.1198990    -0.0066490
  H       -3.2501560    -0.1077310    -0.0690300
  H        1.0507040     2.3420820     0.0640380
  H       -0.2300450    -2.1418000     0.0381510
  H       -3.2442430     2.3364260     0.0191250
  H       -1.0894800     3.5992760     0.0899090
  H       -2.7979590    -2.2384410     1.0412790
  H       -2.0612830    -3.5169920     0.0485590
  H       -3.0612710    -2.2783540    -0.7172980
  H        3.8686140    -0.8046650    -0.8491430
  H        3.8704280    -0.6765840     0.9253170
  H        4.4925120     0.6845290    -0.0653970
units angstrom
no_reorient  #important for SAPT in psi4, default
symmetry c1  #important for SAPT in psi4, default
}

set PROPERTIES_ORIGIN ["COM"]
properties('MP2/aug-cc-pvtz', properties = ['dipole'])
--------------------------------------------------------------------------

    Molecular point group: c1
  Charge       = 0
  Multiplicity = 1
  Basis Set: AUG-CC-PVTZ
    Blend: AUG-CC-PVTZ
  Basis Set: (AUG-CC-PVTZ AUX)
    Blend: AUG-CC-PVTZ-JKFIT

    Orbital Energies [Eh]
    ---------------------

    Doubly Occupied:

       1A    -20.602776     2A    -20.541606     3A    -15.560174
       4A    -11.385573     5A    -11.299665     6A    -11.284308
       7A    -11.257863     8A    -11.252397     9A    -11.250276
      10A    -11.240307    11A    -11.228897    12A    -11.224315
      13A     -1.454036    14A     -1.349895    15A     -1.242313
      16A     -1.142999    17A     -1.046444    18A     -1.009887
      19A     -0.968315    20A     -0.923671    21A     -0.864865
      22A     -0.811635    23A     -0.784061    24A     -0.729337
      25A     -0.701841    26A     -0.673462    27A     -0.668599
      28A     -0.660514    29A     -0.628766    30A     -0.616777
      31A     -0.610126    32A     -0.587197    33A     -0.576711
      34A     -0.555855    35A     -0.541773    36A     -0.534627
      37A     -0.525052    38A     -0.506276    39A     -0.501384
      40A     -0.465181    41A     -0.446043    42A     -0.425093
      43A     -0.349686    44A     -0.292475

  @DF-RHF Final Energy:  -551.60094221153008

   => Energetics <=

    Nuclear Repulsion Energy =            687.8377350129326260
    One-Electron Energy =               -2116.2312426926937405
    Two-Electron Energy =                 876.7925654682310324
    Total Energy =                       -551.6009422115300822
  Basis Set: (AUG-CC-PVTZ AUX)
    Blend: AUG-CC-PVTZ-RI
    Molecular point group: c1

    Geometry (in Angstrom), charge = 0, multiplicity = 1:

       Center              X                  Y                   Z               Mass
    ------------   -----------------  -----------------  -----------------  -----------------
         O            2.466020614150     0.525341166989    -0.054521887456    15.994914619570
         O            1.558428614150    -1.537182833011     0.089234112544    15.994914619570
         N           -1.116070385850    -1.727079033011    -0.109138187456    14.003074004430
         C           -1.112854385850    -0.338087833011    -0.050478887456    12.000000000000
         C            0.110471614150     0.392445166989    -0.028346887456    12.000000000000
         C           -2.316559385850     0.401365166989    -0.047196887456    12.000000000000
         C            0.088847614150     1.795820166989     0.035552112544    12.000000000000
         C           -2.311639385850     1.788605166989     0.011567112544    12.000000000000
         C           -1.107782385850     2.498892166989     0.040343112544    12.000000000000
         C            1.405047614150    -0.316825833011     0.009796112544    12.000000000000
         C           -2.342018385850    -2.473724833011     0.073181112544    12.000000000000
         C            3.745572614150    -0.135066833011    -0.007072887456    12.000000000000
         H           -3.266389385850    -0.122898833011    -0.069453887456     1.007825032230
         H            1.034470614150     2.326914166989     0.063614112544     1.007825032230
         H           -0.246278385850    -2.156967833011     0.037727112544     1.007825032230
         H           -3.260476385850     2.321258166989     0.018701112544     1.007825032230
         H           -1.105713385850     3.584108166989     0.089485112544     1.007825032230
         H           -2.814192385850    -2.253608833011     1.040855112544     1.007825032230
         H           -2.077516385850    -3.532159833011     0.048135112544     1.007825032230
         H           -3.077504385850    -2.293521833011    -0.717721887456     1.007825032230
         H            3.852380614150    -0.819832833011    -0.849566887456     1.007825032230
         H            3.854194614150    -0.691751833011     0.924893112544     1.007825032230
         H            4.476278614150     0.669361166989    -0.065820887456     1.007825032230

  Basis Set: AUG-CC-PVTZ
    Blend: AUG-CC-PVTZ
  Basis Set: (AUG-CC-PVTZ AUX)
    Blend: AUG-CC-PVTZ-JKFIT
	 Reference Energy          =    -551.6009422115300822 [Eh]
	 Singles Energy            =      -0.0000000000000000 [Eh]
	 Same-Spin Energy          =      -0.5786880805765542 [Eh]
	 Opposite-Spin Energy      =      -1.7995736900521109 [Eh]
	 Correlation Energy        =      -2.3782617706286651 [Eh]
	 Total Energy              =    -553.9792039821587650 [Eh]

	 ================> DF-SCS-MP2 Energies <==================
	-----------------------------------------------------------
	 SCS Same-Spin Scale       =       0.3333333333333333 [-]
	 SCS Opposite-Spin Scale   =       1.2000000000000000 [-]
	 SCS Same-Spin Energy      =      -0.1928960268588514 [Eh]
	 SCS Opposite-Spin Energy  =      -2.1594884280625330 [Eh]
	 SCS Correlation Energy    =      -2.3523844549213844 [Eh]
	 SCS Total Energy          =    -553.9533266664515168 [Eh]
	-----------------------------------------------------------

  Dipole Moment: [D]
     X:    -0.1838      Y:    -0.0191      Z:     0.2624     Total:     0.3209

*** Psi4 exiting successfully. Buy a developer a beer!
