                               Psi4 1.3.2 release

  ==> Input File <==

--------------------------------------------------------------------------
#psi4
#
memory 32 gb

molecule  {
0 1
  O        2.4822540     0.5405090    -0.0540980
  O        1.5746620    -1.5220150     0.0896580
  N       -1.1191790    -1.6921850    -0.1509940
  C       -1.0966210    -0.3229200    -0.0500550
  C        0.1267050     0.4076130    -0.0279230
  C       -2.3003260     0.4165330    -0.0467730
  C        0.1050810     1.8109880     0.0359760
  C       -2.2954060     1.8037730     0.0119910
  C       -1.0915490     2.5140600     0.0407670
  C        1.3430447    -0.3637595     0.0149628
  C       -2.3257850    -2.4585570     0.0736050
  C        3.7618060    -0.1198990    -0.0066490
  H       -3.2501560    -0.1077310    -0.0690300
  H        1.0507040     2.3420820     0.0640380
  H       -0.2300450    -2.1418000     0.0381510
  H       -3.2442430     2.3364260     0.0191250
  H       -1.0894800     3.5992760     0.0899090
  H       -2.7979590    -2.2384410     1.0412790
  H       -2.0612830    -3.5169920     0.0485590
  H       -3.0612710    -2.2783540    -0.7172980
  H        3.8686140    -0.8046650    -0.8491430
  H        3.8704280    -0.6765840     0.9253170
  H        4.4925120     0.6845290    -0.0653970
units angstrom
no_reorient  #important for SAPT in psi4, default
symmetry c1  #important for SAPT in psi4, default
}

set PROPERTIES_ORIGIN ["COM"]
properties('MP2/aug-cc-pvtz', properties = ['dipole'])
--------------------------------------------------------------------------

    Molecular point group: c1
  Charge       = 0
  Multiplicity = 1
  Basis Set: AUG-CC-PVTZ
    Blend: AUG-CC-PVTZ
  Basis Set: (AUG-CC-PVTZ AUX)
    Blend: AUG-CC-PVTZ-JKFIT

    Orbital Energies [Eh]
    ---------------------

    Doubly Occupied:

       1A    -20.574492     2A    -20.556063     3A    -15.569719
       4A    -11.383673     5A    -11.302353     6A    -11.270019
       7A    -11.262786     8A    -11.256434     9A    -11.254878
      10A    -11.241249    11A    -11.230774    12A    -11.226909
      13A     -1.449428    14A     -1.343389    15A     -1.252574
      16A     -1.146699    17A     -1.051787    18A     -1.013971
      19A     -0.950664    20A     -0.923272    21A     -0.873245
      22A     -0.812438    23A     -0.778236    24A     -0.720664
      25A     -0.708663    26A     -0.677904    27A     -0.658994
      28A     -0.649838    29A     -0.629141    30A     -0.619297
      31A     -0.615401    32A     -0.591715    33A     -0.570508
      34A     -0.564822    35A     -0.547402    36A     -0.538909
      37A     -0.515937    38A     -0.511241    39A     -0.505543
      40A     -0.455537    41A     -0.441899    42A     -0.431788
      43A     -0.353681    44A     -0.296794

  @DF-RHF Final Energy:  -551.59107418941414

   => Energetics <=

    Nuclear Repulsion Energy =            688.2970052651735386
    One-Electron Energy =               -2117.1146990200213622
    Two-Electron Energy =                 877.2266195654336798
    Total Energy =                       -551.5910741894141438
  Basis Set: (AUG-CC-PVTZ AUX)
    Blend: AUG-CC-PVTZ-RI
    Molecular point group: c1

    Geometry (in Angstrom), charge = 0, multiplicity = 1:

       Center              X                  Y                   Z               Mass
    ------------   -----------------  -----------------  -----------------  -----------------
         O            2.473348519058     0.528182174158    -0.051280213849    15.994914619570
         O            1.565756519058    -1.534341825842     0.092475786151    15.994914619570
         N           -1.128084480942    -1.704511825842    -0.148176213849    14.003074004430
         C           -1.105526480942    -0.335246825842    -0.047237213849    12.000000000000
         C            0.117799519058     0.395286174158    -0.025105213849    12.000000000000
         C           -2.309231480942     0.404206174158    -0.043955213849    12.000000000000
         C            0.096175519058     1.798661174158     0.038793786151    12.000000000000
         C           -2.304311480942     1.791446174158     0.014808786151    12.000000000000
         C           -1.100454480942     2.501733174158     0.043584786151    12.000000000000
         C            1.334139219058    -0.376086325842     0.017780586151    12.000000000000
         C           -2.334690480942    -2.470883825842     0.076422786151    12.000000000000
         C            3.752900519058    -0.132225825842    -0.003831213849    12.000000000000
         H           -3.259061480942    -0.120057825842    -0.066212213849     1.007825032230
         H            1.041798519058     2.329755174158     0.066855786151     1.007825032230
         H           -0.238950480942    -2.154126825842     0.040968786151     1.007825032230
         H           -3.253148480942     2.324099174158     0.021942786151     1.007825032230
         H           -1.098385480942     3.586949174158     0.092726786151     1.007825032230
         H           -2.806864480942    -2.250767825842     1.044096786151     1.007825032230
         H           -2.070188480942    -3.529318825842     0.051376786151     1.007825032230
         H           -3.070176480942    -2.290680825842    -0.714480213849     1.007825032230
         H            3.859708519058    -0.816991825842    -0.846325213849     1.007825032230
         H            3.861522519058    -0.688910825842     0.928134786151     1.007825032230
         H            4.483606519058     0.672202174158    -0.062579213849     1.007825032230

  Basis Set: AUG-CC-PVTZ
    Blend: AUG-CC-PVTZ
  Basis Set: (AUG-CC-PVTZ AUX)
    Blend: AUG-CC-PVTZ-JKFIT
	 Reference Energy          =    -551.5910741894141438 [Eh]
	 Singles Energy            =      -0.0000000000000000 [Eh]
	 Same-Spin Energy          =      -0.5791182954392069 [Eh]
	 Opposite-Spin Energy      =      -1.8006957249830498 [Eh]
	 Correlation Energy        =      -2.3798140204222564 [Eh]
	 Total Energy              =    -553.9708882098364029 [Eh]

	 ================> DF-SCS-MP2 Energies <==================
	-----------------------------------------------------------
	 SCS Same-Spin Scale       =       0.3333333333333333 [-]
	 SCS Opposite-Spin Scale   =       1.2000000000000000 [-]
	 SCS Same-Spin Energy      =      -0.1930394318130690 [Eh]
	 SCS Opposite-Spin Energy  =      -2.1608348699796598 [Eh]
	 SCS Correlation Energy    =      -2.3538743017927288 [Eh]
	 SCS Total Energy          =    -553.9449484912069011 [Eh]
	-----------------------------------------------------------

  Dipole Moment: [D]
     X:    -1.1516      Y:    -0.4185      Z:     0.3679     Total:     1.2793

*** Psi4 exiting successfully. Buy a developer a beer!
