                               Psi4 1.3.2 release

  ==> Input File <==

--------------------------------------------------------------------------
#psi4
#
memory 32 gb

molecule  {
0 1
  O        2.4822540     0.5405090    -0.0540980
  O        1.5746620    -1.5220150     0.0896580
  N       -1.1191790    -1.6921850    -0.1509940
  C       -1.2364619    -0.3305433    -0.0177243
  C        0.1267050     0.4076130    -0.0279230
  C       -2.3003260     0.4165330    -0.0467730
  C        0.1050810     1.8109880     0.0359760
  C       -2.2954060     1.8037730     0.0119910
  C       -1.0915490     2.5140600     0.0407670
  C        1.4212810    -0.3016580     0.0102200
  C       -2.3257850    -2.4585570     0.0736050
  C        3.7618060    -0.1198990    -0.0066490
  H       -3.2501560    -0.1077310    -0.0690300
  H        1.0507040     2.3420820     0.0640380
  H       -0.2300450    -2.1418000     0.0381510
  H       -3.2442430     2.3364260     0.0191250
  H       -1.0894800     3.5992760     0.0899090
  H       -2.7979590    -2.2384410     1.0412790
  H       -2.0612830    -3.5169920     0.0485590
  H       -3.0612710    -2.2783540    -0.7172980
  H        3.8686140    -0.8046650    -0.8491430
  H        3.8704280    -0.6765840     0.9253170
  H        4.4925120     0.6845290    -0.0653970
units angstrom
no_reorient  #important for SAPT in psi4, default
symmetry c1  #important for SAPT in psi4, default
}

set PROPERTIES_ORIGIN ["COM"]
properties('MP2/aug-cc-pvtz', properties = ['dipole'])
--------------------------------------------------------------------------

    Molecular point group: c1
  Charge       = 0
  Multiplicity = 1
  Basis Set: AUG-CC-PVTZ
    Blend: AUG-CC-PVTZ
  Basis Set: (AUG-CC-PVTZ AUX)
    Blend: AUG-CC-PVTZ-JKFIT

    Orbital Energies [Eh]
    ---------------------

    Doubly Occupied:

       1A    -20.602075     2A    -20.540983     3A    -15.560763
       4A    -11.385988     5A    -11.293617     6A    -11.284008
       7A    -11.257391     8A    -11.253008     9A    -11.252840
      10A    -11.248236    11A    -11.225924    12A    -11.214258
      13A     -1.453230    14A     -1.348896    15A     -1.245300
      16A     -1.143247    17A     -1.047115    18A     -1.016501
      19A     -0.964720    20A     -0.920774    21A     -0.872987
      22A     -0.802450    23A     -0.777661    24A     -0.728622
      25A     -0.710391    26A     -0.676219    27A     -0.667842
      28A     -0.653811    29A     -0.631856    30A     -0.622190
      31A     -0.610720    32A     -0.579813    33A     -0.573144
      34A     -0.553585    35A     -0.542832    36A     -0.536947
      37A     -0.526551    38A     -0.508797    39A     -0.481341
      40A     -0.464629    41A     -0.445707    42A     -0.427398
      43A     -0.351515    44A     -0.293567

  @DF-RHF Final Energy:  -551.57685388831794

   => Energetics <=

    Nuclear Repulsion Energy =            687.2404165913980023
    One-Electron Energy =               -2115.0356372645642296
    Two-Electron Energy =                 876.2183667848481718
    Total Energy =                       -551.5768538883179417
  Basis Set: (AUG-CC-PVTZ AUX)
    Blend: AUG-CC-PVTZ-RI
    Molecular point group: c1

    Geometry (in Angstrom), charge = 0, multiplicity = 1:

       Center              X                  Y                   Z               Mass
    ------------   -----------------  -----------------  -----------------  -----------------
         O            2.477826710081     0.524222018810    -0.053285646660    15.994914619570
         O            1.570234710081    -1.538301981190     0.090470353340    15.994914619570
         N           -1.123606289919    -1.708471981190    -0.150181646660    14.003074004430
         C           -1.240889189919    -0.346830281190    -0.016911946660    12.000000000000
         C            0.122277710081     0.391326018810    -0.027110646660    12.000000000000
         C           -2.304753289919     0.400246018810    -0.045960646660    12.000000000000
         C            0.100653710081     1.794701018810     0.036788353340    12.000000000000
         C           -2.299833289919     1.787486018810     0.012803353340    12.000000000000
         C           -1.095976289919     2.497773018810     0.041579353340    12.000000000000
         C            1.416853710081    -0.317944981190     0.011032353340    12.000000000000
         C           -2.330212289919    -2.474843981190     0.074417353340    12.000000000000
         C            3.757378710081    -0.136185981190    -0.005836646660    12.000000000000
         H           -3.254583289919    -0.124017981190    -0.068217646660     1.007825032230
         H            1.046276710081     2.325795018810     0.064850353340     1.007825032230
         H           -0.234472289919    -2.158086981190     0.038963353340     1.007825032230
         H           -3.248670289919     2.320139018810     0.019937353340     1.007825032230
         H           -1.093907289919     3.582989018810     0.090721353340     1.007825032230
         H           -2.802386289919    -2.254727981190     1.042091353340     1.007825032230
         H           -2.065710289919    -3.533278981190     0.049371353340     1.007825032230
         H           -3.065698289919    -2.294640981190    -0.716485646660     1.007825032230
         H            3.864186710081    -0.820951981190    -0.848330646660     1.007825032230
         H            3.866000710081    -0.692870981190     0.926129353340     1.007825032230
         H            4.488084710081     0.668242018810    -0.064584646660     1.007825032230

  Basis Set: AUG-CC-PVTZ
    Blend: AUG-CC-PVTZ
  Basis Set: (AUG-CC-PVTZ AUX)
    Blend: AUG-CC-PVTZ-JKFIT
	 Reference Energy          =    -551.5768538883179417 [Eh]
	 Singles Energy            =      -0.0000000000000000 [Eh]
	 Same-Spin Energy          =      -0.5790286585170750 [Eh]
	 Opposite-Spin Energy      =      -1.8007106464782430 [Eh]
	 Correlation Energy        =      -2.3797393049953177 [Eh]
	 Total Energy              =    -553.9565931933132106 [Eh]

	 ================> DF-SCS-MP2 Energies <==================
	-----------------------------------------------------------
	 SCS Same-Spin Scale       =       0.3333333333333333 [-]
	 SCS Opposite-Spin Scale   =       1.2000000000000000 [-]
	 SCS Same-Spin Energy      =      -0.1930095528390250 [Eh]
	 SCS Opposite-Spin Energy  =      -2.1608527757738916 [Eh]
	 SCS Correlation Energy    =      -2.3538623286129168 [Eh]
	 SCS Total Energy          =    -553.9307162169308185 [Eh]
	-----------------------------------------------------------

  Dipole Moment: [D]
     X:    -0.0858      Y:     0.0795      Z:     0.3352     Total:     0.3550

*** Psi4 exiting successfully. Buy a developer a beer!
