                               Psi4 1.3.2 release

  ==> Input File <==

--------------------------------------------------------------------------
#psi4
#
memory 32 gb

molecule  {
0 1
  O        2.4822540     0.5405090    -0.0540980
  O        1.5746620    -1.5220150     0.0896580
  N       -1.1191790    -1.6921850    -0.1509940
  C       -1.0982638    -0.4226359    -0.0574058
  C        0.1267050     0.4076130    -0.0279230
  C       -2.3003260     0.4165330    -0.0467730
  C        0.1050810     1.8109880     0.0359760
  C       -2.2954060     1.8037730     0.0119910
  C       -1.0915490     2.5140600     0.0407670
  C        1.4212810    -0.3016580     0.0102200
  C       -2.3257850    -2.4585570     0.0736050
  C        3.7618060    -0.1198990    -0.0066490
  H       -3.2501560    -0.1077310    -0.0690300
  H        1.0507040     2.3420820     0.0640380
  H       -0.2300450    -2.1418000     0.0381510
  H       -3.2442430     2.3364260     0.0191250
  H       -1.0894800     3.5992760     0.0899090
  H       -2.7979590    -2.2384410     1.0412790
  H       -2.0612830    -3.5169920     0.0485590
  H       -3.0612710    -2.2783540    -0.7172980
  H        3.8686140    -0.8046650    -0.8491430
  H        3.8704280    -0.6765840     0.9253170
  H        4.4925120     0.6845290    -0.0653970
units angstrom
no_reorient  #important for SAPT in psi4, default
symmetry c1  #important for SAPT in psi4, default
}

set PROPERTIES_ORIGIN ["COM"]
properties('MP2/aug-cc-pvtz', properties = ['dipole'])
--------------------------------------------------------------------------

    Molecular point group: c1
  Charge       = 0
  Multiplicity = 1
  Basis Set: AUG-CC-PVTZ
    Blend: AUG-CC-PVTZ
  Basis Set: (AUG-CC-PVTZ AUX)
    Blend: AUG-CC-PVTZ-JKFIT

    Orbital Energies [Eh]
    ---------------------

    Doubly Occupied:

       1A    -20.598249     2A    -20.538311     3A    -15.580275
       4A    -11.379870     5A    -11.305304     6A    -11.281583
       7A    -11.269689     8A    -11.248820     9A    -11.246864
      10A    -11.236788    11A    -11.226644    12A    -11.215042
      13A     -1.450253    14A     -1.347648    15A     -1.288878
      16A     -1.132881    17A     -1.038755    18A     -1.005513
      19A     -0.967902    20A     -0.935411    21A     -0.860534
      22A     -0.807016    23A     -0.782054    24A     -0.729061
      25A     -0.708819    26A     -0.671757    27A     -0.668971
      28A     -0.665346    29A     -0.633790    30A     -0.628585
      31A     -0.611889    32A     -0.581206    33A     -0.568154
      34A     -0.554514    35A     -0.553360    36A     -0.533815
      37A     -0.519895    38A     -0.506725    39A     -0.491872
      40A     -0.463262    41A     -0.444290    42A     -0.437569
      43A     -0.345453    44A     -0.279612

  @DF-RHF Final Energy:  -551.58786791830403

   => Energetics <=

    Nuclear Repulsion Energy =            687.9135746380723049
    One-Electron Energy =               -2116.3184240395944471
    Two-Electron Energy =                 876.8169814832181146
    Total Energy =                       -551.5878679183040276
  Basis Set: (AUG-CC-PVTZ AUX)
    Blend: AUG-CC-PVTZ-RI
    Molecular point group: c1

    Geometry (in Angstrom), charge = 0, multiplicity = 1:

       Center              X                  Y                   Z               Mass
    ------------   -----------------  -----------------  -----------------  -----------------
         O            2.467780747753     0.530916458098    -0.050401100099    15.994914619570
         O            1.560188747753    -1.531607541902     0.093354899901    15.994914619570
         N           -1.133652252247    -1.701777541902    -0.147297100099    14.003074004430
         C           -1.112737052247    -0.432228441902    -0.053708900099    12.000000000000
         C            0.112231747753     0.398020458098    -0.024226100099    12.000000000000
         C           -2.314799252247     0.406940458098    -0.043076100099    12.000000000000
         C            0.090607747753     1.801395458098     0.039672899901    12.000000000000
         C           -2.309879252247     1.794180458098     0.015687899901    12.000000000000
         C           -1.106022252247     2.504467458098     0.044463899901    12.000000000000
         C            1.406807747753    -0.311250541902     0.013916899901    12.000000000000
         C           -2.340258252247    -2.468149541902     0.077301899901    12.000000000000
         C            3.747332747753    -0.129491541902    -0.002952100099    12.000000000000
         H           -3.264629252247    -0.117323541902    -0.065333100099     1.007825032230
         H            1.036230747753     2.332489458098     0.067734899901     1.007825032230
         H           -0.244518252247    -2.151392541902     0.041847899901     1.007825032230
         H           -3.258716252247     2.326833458098     0.022821899901     1.007825032230
         H           -1.103953252247     3.589683458098     0.093605899901     1.007825032230
         H           -2.812432252247    -2.248033541902     1.044975899901     1.007825032230
         H           -2.075756252247    -3.526584541902     0.052255899901     1.007825032230
         H           -3.075744252247    -2.287946541902    -0.713601100099     1.007825032230
         H            3.854140747753    -0.814257541902    -0.845446100099     1.007825032230
         H            3.855954747753    -0.686176541902     0.929013899901     1.007825032230
         H            4.478038747753     0.674936458098    -0.061700100099     1.007825032230

  Basis Set: AUG-CC-PVTZ
    Blend: AUG-CC-PVTZ
  Basis Set: (AUG-CC-PVTZ AUX)
    Blend: AUG-CC-PVTZ-JKFIT
	 Reference Energy          =    -551.5878679183040276 [Eh]
	 Singles Energy            =      -0.0000000000000000 [Eh]
	 Same-Spin Energy          =      -0.5790956679199583 [Eh]
	 Opposite-Spin Energy      =      -1.7998549349041753 [Eh]
	 Correlation Energy        =      -2.3789506028241334 [Eh]
	 Total Energy              =    -553.9668185211281752 [Eh]

	 ================> DF-SCS-MP2 Energies <==================
	-----------------------------------------------------------
	 SCS Same-Spin Scale       =       0.3333333333333333 [-]
	 SCS Opposite-Spin Scale   =       1.2000000000000000 [-]
	 SCS Same-Spin Energy      =      -0.1930318893066527 [Eh]
	 SCS Opposite-Spin Energy  =      -2.1598259218850102 [Eh]
	 SCS Correlation Energy    =      -2.3528578111916629 [Eh]
	 SCS Total Energy          =    -553.9407257294957390 [Eh]
	-----------------------------------------------------------

  Dipole Moment: [D]
     X:    -0.4271      Y:    -0.8722      Z:     0.2767     Total:     1.0098

*** Psi4 exiting successfully. Buy a developer a beer!
