                               Psi4 1.3.2 release

  ==> Input File <==

--------------------------------------------------------------------------
#psi4
#
memory 32 gb

molecule  {
0 1
  O        2.4822540     0.5405090    -0.0540980
  O        1.5746620    -1.5220150     0.0896580
  N       -1.1191790    -1.6921850    -0.1509940
  C       -1.1899155    -0.3263371    -0.0283562
  C        0.1267050     0.4076130    -0.0279230
  C       -2.3003260     0.4165330    -0.0467730
  C        0.1050810     1.8109880     0.0359760
  C       -2.2954060     1.8037730     0.0119910
  C       -1.0915490     2.5140600     0.0407670
  C        1.4212810    -0.3016580     0.0102200
  C       -2.3257850    -2.4585570     0.0736050
  C        3.7618060    -0.1198990    -0.0066490
  H       -3.2501560    -0.1077310    -0.0690300
  H        1.0507040     2.3420820     0.0640380
  H       -0.2300450    -2.1418000     0.0381510
  H       -3.2442430     2.3364260     0.0191250
  H       -1.0894800     3.5992760     0.0899090
  H       -2.7979590    -2.2384410     1.0412790
  H       -2.0612830    -3.5169920     0.0485590
  H       -3.0612710    -2.2783540    -0.7172980
  H        3.8686140    -0.8046650    -0.8491430
  H        3.8704280    -0.6765840     0.9253170
  H        4.4925120     0.6845290    -0.0653970
units angstrom
no_reorient  #important for SAPT in psi4, default
symmetry c1  #important for SAPT in psi4, default
}

set PROPERTIES_ORIGIN ["COM"]
properties('MP2/aug-cc-pvtz', properties = ['dipole'])
--------------------------------------------------------------------------

    Molecular point group: c1
  Charge       = 0
  Multiplicity = 1
  Basis Set: AUG-CC-PVTZ
    Blend: AUG-CC-PVTZ
  Basis Set: (AUG-CC-PVTZ AUX)
    Blend: AUG-CC-PVTZ-JKFIT

    Orbital Energies [Eh]
    ---------------------

    Doubly Occupied:

       1A    -20.602312     2A    -20.541223     3A    -15.561667
       4A    -11.385931     5A    -11.295557     6A    -11.284126
       7A    -11.255687     8A    -11.254780     9A    -11.251992
      10A    -11.245846    11A    -11.224770    12A    -11.218666
      13A     -1.453507    14A     -1.349242    15A     -1.245388
      16A     -1.142514    17A     -1.045467    18A     -1.014701
      19A     -0.966122    20A     -0.921462    21A     -0.870355
      22A     -0.803805    23A     -0.780713    24A     -0.728577
      25A     -0.706459    26A     -0.675422    27A     -0.668107
      28A     -0.656514    29A     -0.629933    30A     -0.621163
      31A     -0.610997    32A     -0.580327    33A     -0.574778
      34A     -0.554281    35A     -0.541709    36A     -0.537043
      37A     -0.526766    38A     -0.507857    39A     -0.489493
      40A     -0.464867    41A     -0.446016    42A     -0.427334
      43A     -0.350360    44A     -0.292835

  @DF-RHF Final Energy:  -551.59051619886804

   => Energetics <=

    Nuclear Repulsion Energy =            687.4733371829994439
    One-Electron Energy =               -2115.5143682841567170
    Two-Electron Energy =                 876.4505149022893420
    Total Energy =                       -551.5905161988680447
  Basis Set: (AUG-CC-PVTZ AUX)
    Blend: AUG-CC-PVTZ-RI
    Molecular point group: c1

    Geometry (in Angstrom), charge = 0, multiplicity = 1:

       Center              X                  Y                   Z               Mass
    ------------   -----------------  -----------------  -----------------  -----------------
         O            2.474443136928     0.523916259709    -0.052512787504    15.994914619570
         O            1.566851136928    -1.538607740291     0.091243212496    15.994914619570
         N           -1.126989863072    -1.708777740291    -0.149408787504    14.003074004430
         C           -1.197726363072    -0.342929840291    -0.026770987504    12.000000000000
         C            0.118894136928     0.391020259709    -0.026337787504    12.000000000000
         C           -2.308136863072     0.399940259709    -0.045187787504    12.000000000000
         C            0.097270136928     1.794395259709     0.037561212496    12.000000000000
         C           -2.303216863072     1.787180259709     0.013576212496    12.000000000000
         C           -1.099359863072     2.497467259709     0.042352212496    12.000000000000
         C            1.413470136928    -0.318250740291     0.011805212496    12.000000000000
         C           -2.333595863072    -2.475149740291     0.075190212496    12.000000000000
         C            3.753995136928    -0.136491740291    -0.005063787504    12.000000000000
         H           -3.257966863072    -0.124323740291    -0.067444787504     1.007825032230
         H            1.042893136928     2.325489259709     0.065623212496     1.007825032230
         H           -0.237855863072    -2.158392740291     0.039736212496     1.007825032230
         H           -3.252053863072     2.319833259709     0.020710212496     1.007825032230
         H           -1.097290863072     3.582683259709     0.091494212496     1.007825032230
         H           -2.805769863072    -2.255033740291     1.042864212496     1.007825032230
         H           -2.069093863072    -3.533584740291     0.050144212496     1.007825032230
         H           -3.069081863072    -2.294946740291    -0.715712787504     1.007825032230
         H            3.860803136928    -0.821257740291    -0.847557787504     1.007825032230
         H            3.862617136928    -0.693176740291     0.926902212496     1.007825032230
         H            4.484701136928     0.667936259709    -0.063811787504     1.007825032230

  Basis Set: AUG-CC-PVTZ
    Blend: AUG-CC-PVTZ
  Basis Set: (AUG-CC-PVTZ AUX)
    Blend: AUG-CC-PVTZ-JKFIT
	 Reference Energy          =    -551.5905161988680447 [Eh]
	 Singles Energy            =      -0.0000000000000000 [Eh]
	 Same-Spin Energy          =      -0.5790033349432786 [Eh]
	 Opposite-Spin Energy      =      -1.8001203404248591 [Eh]
	 Correlation Energy        =      -2.3791236753681377 [Eh]
	 Total Energy              =    -553.9696398742362362 [Eh]

	 ================> DF-SCS-MP2 Energies <==================
	-----------------------------------------------------------
	 SCS Same-Spin Scale       =       0.3333333333333333 [-]
	 SCS Opposite-Spin Scale   =       1.2000000000000000 [-]
	 SCS Same-Spin Energy      =      -0.1930011116477595 [Eh]
	 SCS Opposite-Spin Energy  =      -2.1601444085098307 [Eh]
	 SCS Correlation Energy    =      -2.3531455201575904 [Eh]
	 SCS Total Energy          =    -553.9436617190256129 [Eh]
	-----------------------------------------------------------

  Dipole Moment: [D]
     X:    -0.1138      Y:     0.0172      Z:     0.3314     Total:     0.3508

*** Psi4 exiting successfully. Buy a developer a beer!
