                               Psi4 1.4a3.dev225

  ==> Input File <==

--------------------------------------------------------------------------
#psi4
#
memory 32 gb

molecule  {
0 1
  O        2.4822540     0.5405090    -0.0540980
  O        1.5746620    -1.5220150     0.0896580
  N       -1.1191790    -1.6921850    -0.1509940
  C       -1.0966210    -0.3229200    -0.0500550
  C        0.1267050     0.4076130    -0.0279230
  C       -2.3003260     0.4165330    -0.0467730
  C        0.1050810     1.8109880     0.0359760
  C       -2.2954060     1.8037730     0.0119910
  C       -1.0915490     2.5140600     0.0407670
  C        1.4237699    -0.3214606     0.0115090
  C       -2.3257850    -2.4585570     0.0736050
  C        3.7618060    -0.1198990    -0.0066490
  H       -3.2501560    -0.1077310    -0.0690300
  H        1.0507040     2.3420820     0.0640380
  H       -0.2300450    -2.1418000     0.0381510
  H       -3.2442430     2.3364260     0.0191250
  H       -1.0894800     3.5992760     0.0899090
  H       -2.7979590    -2.2384410     1.0412790
  H       -2.0612830    -3.5169920     0.0485590
  H       -3.0612710    -2.2783540    -0.7172980
  H        3.8686140    -0.8046650    -0.8491430
  H        3.8704280    -0.6765840     0.9253170
  H        4.4925120     0.6845290    -0.0653970
units angstrom
no_reorient  #important for SAPT in psi4, default
symmetry c1  #important for SAPT in psi4, default
}

set PROPERTIES_ORIGIN ["COM"]
properties('MP2/aug-cc-pvtz', properties = ['dipole'])
--------------------------------------------------------------------------

    Molecular point group: c1
  Charge       = 0
  Multiplicity = 1
  Basis Set: AUG-CC-PVTZ
    Blend: AUG-CC-PVTZ
  Basis Set: (AUG-CC-PVTZ AUX)
    Blend: AUG-CC-PVTZ-JKFIT

    Orbital Energies [Eh]
    ---------------------

    Doubly Occupied:

       1A    -20.600392     2A    -20.546543     3A    -15.563164
       4A    -11.385243     5A    -11.297186     6A    -11.283240
       7A    -11.258489     8A    -11.250726     9A    -11.249126
      10A    -11.239905    11A    -11.226955    12A    -11.222873
      13A     -1.455782    14A     -1.359477    15A     -1.245721
      16A     -1.141033    17A     -1.043746    18A     -1.009057
      19A     -0.966021    20A     -0.922732    21A     -0.862902
      22A     -0.808332    23A     -0.783695    24A     -0.727827
      25A     -0.700656    26A     -0.676594    27A     -0.668027
      28A     -0.660911    29A     -0.628614    30A     -0.616430
      31A     -0.611916    32A     -0.583552    33A     -0.575705
      34A     -0.558876    35A     -0.542194    36A     -0.535847
      37A     -0.525563    38A     -0.507310    39A     -0.501132
      40A     -0.467887    41A     -0.445451    42A     -0.427483
      43A     -0.348570    44A     -0.291055

  @DF-RHF Final Energy:  -551.60232173430040

   => Energetics <=

    Nuclear Repulsion Energy =            688.0051722339261460
    One-Electron Energy =               -2116.5671111636215755
    Two-Electron Energy =                 876.9596171953949124
    Total Energy =                       -551.6023217343004035
  Basis Set: (AUG-CC-PVTZ AUX)
    Blend: AUG-CC-PVTZ-RI
    Molecular point group: c1

    Geometry (in Angstrom), charge = 0, multiplicity = 1:

       Center              X                  Y                   Z               Mass
    ------------   -----------------  -----------------  -----------------  -----------------
         O            2.467480404243     0.525107362305    -0.051029148569    15.994914619570
         O            1.559888404243    -1.537416637695     0.092726851431    15.994914619570
         N           -1.133952595757    -1.707586637695    -0.147925148569    14.003074004430
         C           -1.111394595757    -0.338321637695    -0.046986148569    12.000000000000
         C            0.111931404243     0.392211362305    -0.024854148569    12.000000000000
         C           -2.315099595757     0.401131362305    -0.043704148569    12.000000000000
         C            0.090307404243     1.795586362305     0.039044851431    12.000000000000
         C           -2.310179595757     1.788371362305     0.015059851431    12.000000000000
         C           -1.106322595757     2.498658362305     0.043835851431    12.000000000000
         C            1.408996304243    -0.336862237695     0.014577851431    12.000000000000
         C           -2.340558595757    -2.473958637695     0.076673851431    12.000000000000
         C            3.747032404243    -0.135300637695    -0.003580148569    12.000000000000
         H           -3.264929595757    -0.123132637695    -0.065961148569     1.007825032230
         H            1.035930404243     2.326680362305     0.067106851431     1.007825032230
         H           -0.244818595757    -2.157201637695     0.041219851431     1.007825032230
         H           -3.259016595757     2.321024362305     0.022193851431     1.007825032230
         H           -1.104253595757     3.583874362305     0.092977851431     1.007825032230
         H           -2.812732595757    -2.253842637695     1.044347851431     1.007825032230
         H           -2.076056595757    -3.532393637695     0.051627851431     1.007825032230
         H           -3.076044595757    -2.293755637695    -0.714229148569     1.007825032230
         H            3.853840404243    -0.820066637695    -0.846074148569     1.007825032230
         H            3.855654404243    -0.691985637695     0.928385851431     1.007825032230
         H            4.477738404243     0.669127362305    -0.062328148569     1.007825032230

  Basis Set: AUG-CC-PVTZ
    Blend: AUG-CC-PVTZ
  Basis Set: (AUG-CC-PVTZ AUX)
    Blend: AUG-CC-PVTZ-JKFIT
	 Reference Energy          =    -551.6023217343004035 [Eh]
	 Singles Energy            =      -0.0000000000000000 [Eh]
	 Same-Spin Energy          =      -0.5785662701403622 [Eh]
	 Opposite-Spin Energy      =      -1.7992471849662368 [Eh]
	 Correlation Energy        =      -2.3778134551065992 [Eh]
	 Total Energy              =    -553.9801351894069512 [Eh]

	 ================> DF-SCS-MP2 Energies <==================
	-----------------------------------------------------------
	 SCS Same-Spin Scale       =       0.3333333333333333 [-]
	 SCS Opposite-Spin Scale   =       1.2000000000000000 [-]
	 SCS Same-Spin Energy      =      -0.1928554233801207 [Eh]
	 SCS Opposite-Spin Energy  =      -2.1590966219594843 [Eh]
	 SCS Correlation Energy    =      -2.3519520453396048 [Eh]
	 SCS Total Energy          =    -553.9542737796400615 [Eh]
	-----------------------------------------------------------

  Dipole Moment: [D]
     X:    -0.1560      Y:    -0.2124      Z:     0.3369     Total:     0.4277

*** Psi4 exiting successfully. Buy a developer a beer!
