                               Psi4 1.3.2 release

  ==> Input File <==

--------------------------------------------------------------------------
#psi4
#
memory 32 gb

molecule  {
0 1
  O        2.4822540     0.5405090    -0.0540980
  O        1.5318895    -1.5265944     0.0902447
  N       -1.1191790    -1.6921850    -0.1509940
  C       -1.0966210    -0.3229200    -0.0500550
  C        0.1267050     0.4076130    -0.0279230
  C       -2.3003260     0.4165330    -0.0467730
  C        0.1050810     1.8109880     0.0359760
  C       -2.2954060     1.8037730     0.0119910
  C       -1.0915490     2.5140600     0.0407670
  C        1.4212810    -0.3016580     0.0102200
  C       -2.3257850    -2.4585570     0.0736050
  C        3.7618060    -0.1198990    -0.0066490
  H       -3.2501560    -0.1077310    -0.0690300
  H        1.0507040     2.3420820     0.0640380
  H       -0.2300450    -2.1418000     0.0381510
  H       -3.2442430     2.3364260     0.0191250
  H       -1.0894800     3.5992760     0.0899090
  H       -2.7979590    -2.2384410     1.0412790
  H       -2.0612830    -3.5169920     0.0485590
  H       -3.0612710    -2.2783540    -0.7172980
  H        3.8686140    -0.8046650    -0.8491430
  H        3.8704280    -0.6765840     0.9253170
  H        4.4925120     0.6845290    -0.0653970
units angstrom
no_reorient  #important for SAPT in psi4, default
symmetry c1  #important for SAPT in psi4, default
}

set PROPERTIES_ORIGIN ["COM"]
properties('MP2/aug-cc-pvtz', properties = ['dipole'])
--------------------------------------------------------------------------

    Molecular point group: c1
  Charge       = 0
  Multiplicity = 1
  Basis Set: AUG-CC-PVTZ
    Blend: AUG-CC-PVTZ
  Basis Set: (AUG-CC-PVTZ AUX)
    Blend: AUG-CC-PVTZ-JKFIT

    Orbital Energies [Eh]
    ---------------------

    Doubly Occupied:

       1A    -20.605970     2A    -20.542861     3A    -15.561144
       4A    -11.386439     5A    -11.297088     6A    -11.286380
       7A    -11.257222     8A    -11.250741     9A    -11.248826
      10A    -11.238037    11A    -11.226621    12A    -11.222475
      13A     -1.454543    14A     -1.353792    15A     -1.243944
      16A     -1.141002    17A     -1.045126    18A     -1.008559
      19A     -0.969639    20A     -0.922346    21A     -0.863669
      22A     -0.808253    23A     -0.785919    24A     -0.728609
      25A     -0.698791    26A     -0.674958    27A     -0.670203
      28A     -0.660782    29A     -0.628837    30A     -0.615699
      31A     -0.610833    32A     -0.581854    33A     -0.576997
      34A     -0.557375    35A     -0.540820    36A     -0.535855
      37A     -0.526258    38A     -0.506161    39A     -0.500346
      40A     -0.467383    41A     -0.444076    42A     -0.426221
      43A     -0.348355    44A     -0.290291

  @DF-RHF Final Energy:  -551.60105051885159

   => Energetics <=

    Nuclear Repulsion Energy =            688.3019527050061015
    One-Electron Energy =               -2117.1834048879945840
    Two-Electron Energy =                 877.2804016641370026
    Total Energy =                       -551.6010505188515936
  Basis Set: (AUG-CC-PVTZ AUX)
    Blend: AUG-CC-PVTZ-RI
    Molecular point group: c1

    Geometry (in Angstrom), charge = 0, multiplicity = 1:

       Center              X                  Y                   Z               Mass
    ------------   -----------------  -----------------  -----------------  -----------------
         O            2.471805662926     0.524111571749    -0.050992294794    15.994914619570
         O            1.521441162926    -1.542991828251     0.093350405206    15.994914619570
         N           -1.129627337074    -1.708582428251    -0.147888294794    14.003074004430
         C           -1.107069337074    -0.339317428251    -0.046949294794    12.000000000000
         C            0.116256662926     0.391215571749    -0.024817294794    12.000000000000
         C           -2.310774337074     0.400135571749    -0.043667294794    12.000000000000
         C            0.094632662926     1.794590571749     0.039081705206    12.000000000000
         C           -2.305854337074     1.787375571749     0.015096705206    12.000000000000
         C           -1.101997337074     2.497662571749     0.043872705206    12.000000000000
         C            1.410832662926    -0.318055428251     0.013325705206    12.000000000000
         C           -2.336233337074    -2.474954428251     0.076710705206    12.000000000000
         C            3.751357662926    -0.136296428251    -0.003543294794    12.000000000000
         H           -3.260604337074    -0.124128428251    -0.065924294794     1.007825032230
         H            1.040255662926     2.325684571749     0.067143705206     1.007825032230
         H           -0.240493337074    -2.158197428251     0.041256705206     1.007825032230
         H           -3.254691337074     2.320028571749     0.022230705206     1.007825032230
         H           -1.099928337074     3.582878571749     0.093014705206     1.007825032230
         H           -2.808407337074    -2.254838428251     1.044384705206     1.007825032230
         H           -2.071731337074    -3.533389428251     0.051664705206     1.007825032230
         H           -3.071719337074    -2.294751428251    -0.714192294794     1.007825032230
         H            3.858165662926    -0.821062428251    -0.846037294794     1.007825032230
         H            3.859979662926    -0.692981428251     0.928422705206     1.007825032230
         H            4.482063662926     0.668131571749    -0.062291294794     1.007825032230

  Basis Set: AUG-CC-PVTZ
    Blend: AUG-CC-PVTZ
  Basis Set: (AUG-CC-PVTZ AUX)
    Blend: AUG-CC-PVTZ-JKFIT
	 Reference Energy          =    -551.6010505188515936 [Eh]
	 Singles Energy            =      -0.0000000000000000 [Eh]
	 Same-Spin Energy          =      -0.5790779688943309 [Eh]
	 Opposite-Spin Energy      =      -1.8000659736575830 [Eh]
	 Correlation Energy        =      -2.3791439425519139 [Eh]
	 Total Energy              =    -553.9801944614034710 [Eh]

	 ================> DF-SCS-MP2 Energies <==================
	-----------------------------------------------------------
	 SCS Same-Spin Scale       =       0.3333333333333333 [-]
	 SCS Opposite-Spin Scale   =       1.2000000000000000 [-]
	 SCS Same-Spin Energy      =      -0.1930259896314436 [Eh]
	 SCS Opposite-Spin Energy  =      -2.1600791683890996 [Eh]
	 SCS Correlation Energy    =      -2.3531051580205431 [Eh]
	 SCS Total Energy          =    -553.9541556768721193 [Eh]
	-----------------------------------------------------------

  Dipole Moment: [D]
     X:     0.0033      Y:    -0.1053      Z:     0.3258     Total:     0.3424

*** Psi4 exiting successfully. Buy a developer a beer!
