                               Psi4 1.4a3.dev225

  ==> Input File <==

--------------------------------------------------------------------------
#psi4
#
memory 32 gb

molecule  {
0 1
  O        2.4822540     0.5405090    -0.0540980
  O        1.5746620    -1.5220150     0.0896580
  N       -1.1191790    -1.6921850    -0.1509940
  C       -1.0966210    -0.3229200    -0.0500550
  C        0.1267050     0.4076130    -0.0279230
  C       -2.3003260     0.4165330    -0.0467730
  C        0.1050810     1.8109880     0.0359760
  C       -2.2954060     1.8037730     0.0119910
  C       -1.0915490     2.5140600     0.0407670
  C        1.4212810    -0.3016580     0.0102200
  C       -2.3257850    -2.4585570     0.0736050
  C        3.7440432    -0.1107312    -0.0073077
  H       -3.2501560    -0.1077310    -0.0690300
  H        1.0507040     2.3420820     0.0640380
  H       -0.2300450    -2.1418000     0.0381510
  H       -3.2442430     2.3364260     0.0191250
  H       -1.0894800     3.5992760     0.0899090
  H       -2.7979590    -2.2384410     1.0412790
  H       -2.0612830    -3.5169920     0.0485590
  H       -3.0612710    -2.2783540    -0.7172980
  H        3.8686140    -0.8046650    -0.8491430
  H        3.8704280    -0.6765840     0.9253170
  H        4.4925120     0.6845290    -0.0653970
units angstrom
no_reorient  #important for SAPT in psi4, default
symmetry c1  #important for SAPT in psi4, default
}

set PROPERTIES_ORIGIN ["COM"]
properties('MP2/aug-cc-pvtz', properties = ['dipole'])
--------------------------------------------------------------------------

    Molecular point group: c1
  Charge       = 0
  Multiplicity = 1
  Basis Set: AUG-CC-PVTZ
    Blend: AUG-CC-PVTZ
  Basis Set: (AUG-CC-PVTZ AUX)
    Blend: AUG-CC-PVTZ-JKFIT

    Orbital Energies [Eh]
    ---------------------

    Doubly Occupied:

       1A    -20.604542     2A    -20.542861     3A    -15.563609
       4A    -11.386734     5A    -11.298903     6A    -11.283896
       7A    -11.258702     8A    -11.252233     9A    -11.250570
      10A    -11.240378    11A    -11.228017    12A    -11.223879
      13A     -1.458727    14A     -1.352892    15A     -1.246062
      16A     -1.142685    17A     -1.047123    18A     -1.010105
      19A     -0.968344    20A     -0.923261    21A     -0.864470
      22A     -0.809572    23A     -0.785828    24A     -0.730245
      25A     -0.700602    26A     -0.675836    27A     -0.670592
      28A     -0.661597    29A     -0.630717    30A     -0.617163
      31A     -0.612298    32A     -0.583813    33A     -0.577144
      34A     -0.553676    35A     -0.542611    36A     -0.534143
      37A     -0.524163    38A     -0.506475    39A     -0.501334
      40A     -0.464824    41A     -0.445716    42A     -0.427960
      43A     -0.349917    44A     -0.291970

  @DF-RHF Final Energy:  -551.60163659762236

   => Energetics <=

    Nuclear Repulsion Energy =            688.4046412381596838
    One-Electron Energy =               -2117.3201783457056990
    Two-Electron Energy =                 877.3139005099236556
    Total Energy =                       -551.6016365976223597
  Basis Set: (AUG-CC-PVTZ AUX)
    Blend: AUG-CC-PVTZ-RI
    Molecular point group: c1

    Geometry (in Angstrom), charge = 0, multiplicity = 1:

       Center              X                  Y                   Z               Mass
    ------------   -----------------  -----------------  -----------------  -----------------
         O            2.468952550497     0.523001432144    -0.050887565430    15.994914619570
         O            1.561360550497    -1.539522567856     0.092868434570    15.994914619570
         N           -1.132480449503    -1.709692567856    -0.147783565430    14.003074004430
         C           -1.109922449503    -0.340427567856    -0.046844565430    12.000000000000
         C            0.113403550497     0.390105432144    -0.024712565430    12.000000000000
         C           -2.313627449503     0.399025432144    -0.043562565430    12.000000000000
         C            0.091779550497     1.793480432144     0.039186434570    12.000000000000
         C           -2.308707449503     1.786265432144     0.015201434570    12.000000000000
         C           -1.104850449503     2.496552432144     0.043977434570    12.000000000000
         C            1.407979550497    -0.319165567856     0.013430434570    12.000000000000
         C           -2.339086449503    -2.476064567856     0.076815434570    12.000000000000
         C            3.730741750497    -0.128238767856    -0.004097265430    12.000000000000
         H           -3.263457449503    -0.125238567856    -0.065819565430     1.007825032230
         H            1.037402550497     2.324574432144     0.067248434570     1.007825032230
         H           -0.243346449503    -2.159307567856     0.041361434570     1.007825032230
         H           -3.257544449503     2.318918432144     0.022335434570     1.007825032230
         H           -1.102781449503     3.581768432144     0.093119434570     1.007825032230
         H           -2.811260449503    -2.255948567856     1.044489434570     1.007825032230
         H           -2.074584449503    -3.534499567856     0.051769434570     1.007825032230
         H           -3.074572449503    -2.295861567856    -0.714087565430     1.007825032230
         H            3.855312550497    -0.822172567856    -0.845932565430     1.007825032230
         H            3.857126550497    -0.694091567856     0.928527434570     1.007825032230
         H            4.479210550497     0.667021432144    -0.062186565430     1.007825032230

  Basis Set: AUG-CC-PVTZ
    Blend: AUG-CC-PVTZ
  Basis Set: (AUG-CC-PVTZ AUX)
    Blend: AUG-CC-PVTZ-JKFIT
	 Reference Energy          =    -551.6016365976223597 [Eh]
	 Singles Energy            =      -0.0000000000000000 [Eh]
	 Same-Spin Energy          =      -0.5789317007814684 [Eh]
	 Opposite-Spin Energy      =      -1.7996539731948291 [Eh]
	 Correlation Energy        =      -2.3785856739762976 [Eh]
	 Total Energy              =    -553.9802222715986773 [Eh]

	 ================> DF-SCS-MP2 Energies <==================
	-----------------------------------------------------------
	 SCS Same-Spin Scale       =       0.3333333333333333 [-]
	 SCS Opposite-Spin Scale   =       1.2000000000000000 [-]
	 SCS Same-Spin Energy      =      -0.1929772335938228 [Eh]
	 SCS Opposite-Spin Energy  =      -2.1595847678337949 [Eh]
	 SCS Correlation Energy    =      -2.3525620014276178 [Eh]
	 SCS Total Energy          =    -553.9541985990499597 [Eh]
	-----------------------------------------------------------

  Dipole Moment: [D]
     X:    -0.2641      Y:    -0.0777      Z:     0.3259     Total:     0.4266

*** Psi4 exiting successfully. Buy a developer a beer!
