                               Psi4 1.3.2 release

  ==> Input File <==

--------------------------------------------------------------------------
#psi4
#
memory 32 gb

molecule  {
0 1
  O        2.4822540     0.5405090    -0.0540980
  O        1.5746620    -1.5220150     0.0896580
  N       -1.1191790    -1.6921850    -0.1509940
  C       -1.0733638    -0.3239328    -0.0443591
  C        0.1267050     0.4076130    -0.0279230
  C       -2.3003260     0.4165330    -0.0467730
  C        0.1050810     1.8109880     0.0359760
  C       -2.2954060     1.8037730     0.0119910
  C       -1.0915490     2.5140600     0.0407670
  C        1.4212810    -0.3016580     0.0102200
  C       -2.3257850    -2.4585570     0.0736050
  C        3.7618060    -0.1198990    -0.0066490
  H       -3.2501560    -0.1077310    -0.0690300
  H        1.0507040     2.3420820     0.0640380
  H       -0.2300450    -2.1418000     0.0381510
  H       -3.2442430     2.3364260     0.0191250
  H       -1.0894800     3.5992760     0.0899090
  H       -2.7979590    -2.2384410     1.0412790
  H       -2.0612830    -3.5169920     0.0485590
  H       -3.0612710    -2.2783540    -0.7172980
  H        3.8686140    -0.8046650    -0.8491430
  H        3.8704280    -0.6765840     0.9253170
  H        4.4925120     0.6845290    -0.0653970
units angstrom
no_reorient  #important for SAPT in psi4, default
symmetry c1  #important for SAPT in psi4, default
}

set PROPERTIES_ORIGIN ["COM"]
properties('MP2/aug-cc-pvtz', properties = ['dipole'])
--------------------------------------------------------------------------

    Molecular point group: c1
  Charge       = 0
  Multiplicity = 1
  Basis Set: AUG-CC-PVTZ
    Blend: AUG-CC-PVTZ
  Basis Set: (AUG-CC-PVTZ AUX)
    Blend: AUG-CC-PVTZ-JKFIT

    Orbital Energies [Eh]
    ---------------------

    Doubly Occupied:

       1A    -20.602861     2A    -20.541955     3A    -15.563426
       4A    -11.385506     5A    -11.298713     6A    -11.284345
       7A    -11.259197     8A    -11.250724     9A    -11.249486
      10A    -11.238083    11A    -11.229743    12A    -11.223335
      13A     -1.454209    14A     -1.350211    15A     -1.245703
      16A     -1.142223    17A     -1.046952    18A     -1.008186
      19A     -0.968828    20A     -0.923680    21A     -0.862964
      22A     -0.810841    23A     -0.784500    24A     -0.728667
      25A     -0.698802    26A     -0.672729    27A     -0.668748
      28A     -0.661776    29A     -0.629925    30A     -0.614893
      31A     -0.612166    32A     -0.584083    33A     -0.576580
      34A     -0.556307    35A     -0.542372    36A     -0.534727
      37A     -0.523427    38A     -0.506623    39A     -0.503049
      40A     -0.465420    41A     -0.444028    42A     -0.427765
      43A     -0.349486    44A     -0.291287

  @DF-RHF Final Energy:  -551.60093676122904

   => Energetics <=

    Nuclear Repulsion Energy =            688.1245684986686229
    One-Electron Energy =               -2116.8139516010301122
    Two-Electron Energy =                 877.0884463411324532
    Total Energy =                       -551.6009367612290362
  Basis Set: (AUG-CC-PVTZ AUX)
    Blend: AUG-CC-PVTZ-RI
    Molecular point group: c1

    Geometry (in Angstrom), charge = 0, multiplicity = 1:

       Center              X                  Y                   Z               Mass
    ------------   -----------------  -----------------  -----------------  -----------------
         O            2.465970705054     0.523741485185    -0.051349497050    15.994914619570
         O            1.558378705054    -1.538782514815     0.092406502950    15.994914619570
         N           -1.135462294946    -1.708952514815    -0.148245497050    14.003074004430
         C           -1.089647094946    -0.340700314815    -0.041610597050    12.000000000000
         C            0.110421705054     0.390845485185    -0.025174497050    12.000000000000
         C           -2.316609294946     0.399765485185    -0.044024497050    12.000000000000
         C            0.088797705054     1.794220485185     0.038724502950    12.000000000000
         C           -2.311689294946     1.787005485185     0.014739502950    12.000000000000
         C           -1.107832294946     2.497292485185     0.043515502950    12.000000000000
         C            1.404997705054    -0.318425514815     0.012968502950    12.000000000000
         C           -2.342068294946    -2.475324514815     0.076353502950    12.000000000000
         C            3.745522705054    -0.136666514815    -0.003900497050    12.000000000000
         H           -3.266439294946    -0.124498514815    -0.066281497050     1.007825032230
         H            1.034420705054     2.325314485185     0.066786502950     1.007825032230
         H           -0.246328294946    -2.158567514815     0.040899502950     1.007825032230
         H           -3.260526294946     2.319658485185     0.021873502950     1.007825032230
         H           -1.105763294946     3.582508485185     0.092657502950     1.007825032230
         H           -2.814242294946    -2.255208514815     1.044027502950     1.007825032230
         H           -2.077566294946    -3.533759514815     0.051307502950     1.007825032230
         H           -3.077554294946    -2.295121514815    -0.714549497050     1.007825032230
         H            3.852330705054    -0.821432514815    -0.846394497050     1.007825032230
         H            3.854144705054    -0.693351514815     0.928065502950     1.007825032230
         H            4.476228705054     0.667761485185    -0.062648497050     1.007825032230

  Basis Set: AUG-CC-PVTZ
    Blend: AUG-CC-PVTZ
  Basis Set: (AUG-CC-PVTZ AUX)
    Blend: AUG-CC-PVTZ-JKFIT
	 Reference Energy          =    -551.6009367612290362 [Eh]
	 Singles Energy            =      -0.0000000000000000 [Eh]
	 Same-Spin Energy          =      -0.5788736006950344 [Eh]
	 Opposite-Spin Energy      =      -1.7999483682875468 [Eh]
	 Correlation Energy        =      -2.3788219689825811 [Eh]
	 Total Energy              =    -553.9797587302116426 [Eh]

	 ================> DF-SCS-MP2 Energies <==================
	-----------------------------------------------------------
	 SCS Same-Spin Scale       =       0.3333333333333333 [-]
	 SCS Opposite-Spin Scale   =       1.2000000000000000 [-]
	 SCS Same-Spin Energy      =      -0.1929578668983448 [Eh]
	 SCS Opposite-Spin Energy  =      -2.1599380419450562 [Eh]
	 SCS Correlation Energy    =      -2.3528959088434012 [Eh]
	 SCS Total Energy          =    -553.9538326700724156 [Eh]
	-----------------------------------------------------------

  Dipole Moment: [D]
     X:    -0.1835      Y:    -0.1158      Z:     0.3294     Total:     0.3945

*** Psi4 exiting successfully. Buy a developer a beer!
