                               Psi4 1.3.2 release

  ==> Input File <==

--------------------------------------------------------------------------
#psi4
#
memory 32 gb

molecule  {
0 1
  O        2.4822540     0.5405090    -0.0540980
  O        1.5746620    -1.5220150     0.0896580
  N       -1.1191790    -1.6921850    -0.1509940
  C       -0.9574285    -0.3352378    -0.0164012
  C        0.1267050     0.4076130    -0.0279230
  C       -2.3003260     0.4165330    -0.0467730
  C        0.1050810     1.8109880     0.0359760
  C       -2.2954060     1.8037730     0.0119910
  C       -1.0915490     2.5140600     0.0407670
  C        1.4212810    -0.3016580     0.0102200
  C       -2.3257850    -2.4585570     0.0736050
  C        3.7618060    -0.1198990    -0.0066490
  H       -3.2501560    -0.1077310    -0.0690300
  H        1.0507040     2.3420820     0.0640380
  H       -0.2300450    -2.1418000     0.0381510
  H       -3.2442430     2.3364260     0.0191250
  H       -1.0894800     3.5992760     0.0899090
  H       -2.7979590    -2.2384410     1.0412790
  H       -2.0612830    -3.5169920     0.0485590
  H       -3.0612710    -2.2783540    -0.7172980
  H        3.8686140    -0.8046650    -0.8491430
  H        3.8704280    -0.6765840     0.9253170
  H        4.4925120     0.6845290    -0.0653970
units angstrom
no_reorient  #important for SAPT in psi4, default
symmetry c1  #important for SAPT in psi4, default
}

set PROPERTIES_ORIGIN ["COM"]
properties('MP2/aug-cc-pvtz', properties = ['dipole'])
--------------------------------------------------------------------------

    Molecular point group: c1
  Charge       = 0
  Multiplicity = 1
  Basis Set: AUG-CC-PVTZ
    Blend: AUG-CC-PVTZ
  Basis Set: (AUG-CC-PVTZ AUX)
    Blend: AUG-CC-PVTZ-JKFIT

    Orbital Energies [Eh]
    ---------------------

    Doubly Occupied:

       1A    -20.603428     2A    -20.542912     3A    -15.564128
       4A    -11.384969     5A    -11.298533     6A    -11.284536
       7A    -11.262853     8A    -11.247001     9A    -11.245526
      10A    -11.238995    11A    -11.229602    12A    -11.224196
      13A     -1.455056    14A     -1.351488    15A     -1.245981
      16A     -1.144572    17A     -1.053935    18A     -1.001578
      19A     -0.969879    20A     -0.927000    21A     -0.855846
      22A     -0.820105    23A     -0.782888    24A     -0.728739
      25A     -0.695084    26A     -0.670319    27A     -0.669184
      28A     -0.663773    29A     -0.635226    30A     -0.613533
      31A     -0.609492    32A     -0.585731    33A     -0.575589
      34A     -0.559001    35A     -0.542741    36A     -0.534047
      37A     -0.514843    38A     -0.508751    39A     -0.504102
      40A     -0.466047    41A     -0.437870    42A     -0.429275
      43A     -0.351642    44A     -0.290429

  @DF-RHF Final Energy:  -551.57696536280650

   => Energetics <=

    Nuclear Repulsion Energy =            688.8757558398017409
    One-Electron Energy =               -2118.2645933851586051
    Two-Electron Energy =                 877.8118721825503599
    Total Energy =                       -551.5769653628065043
  Basis Set: (AUG-CC-PVTZ AUX)
    Blend: AUG-CC-PVTZ-RI
    Molecular point group: c1

    Geometry (in Angstrom), charge = 0, multiplicity = 1:

       Center              X                  Y                   Z               Mass
    ------------   -----------------  -----------------  -----------------  -----------------
         O            2.457543080824     0.524563273647    -0.053381826077    15.994914619570
         O            1.549951080824    -1.537960726353     0.090374173923    15.994914619570
         N           -1.143889919176    -1.708130726353    -0.150277826077    14.003074004430
         C           -0.982139419176    -0.351183526353    -0.015685026077    12.000000000000
         C            0.101994080824     0.391667273647    -0.027206826077    12.000000000000
         C           -2.325036919176     0.400587273647    -0.046056826077    12.000000000000
         C            0.080370080824     1.795042273647     0.036692173923    12.000000000000
         C           -2.320116919176     1.787827273647     0.012707173923    12.000000000000
         C           -1.116259919176     2.498114273647     0.041483173923    12.000000000000
         C            1.396570080824    -0.317603726353     0.010936173923    12.000000000000
         C           -2.350495919176    -2.474502726353     0.074321173923    12.000000000000
         C            3.737095080824    -0.135844726353    -0.005932826077    12.000000000000
         H           -3.274866919176    -0.123676726353    -0.068313826077     1.007825032230
         H            1.025993080824     2.326136273647     0.064754173923     1.007825032230
         H           -0.254755919176    -2.157745726353     0.038867173923     1.007825032230
         H           -3.268953919176     2.320480273647     0.019841173923     1.007825032230
         H           -1.114190919176     3.583330273647     0.090625173923     1.007825032230
         H           -2.822669919176    -2.254386726353     1.041995173923     1.007825032230
         H           -2.085993919176    -3.532937726353     0.049275173923     1.007825032230
         H           -3.085981919176    -2.294299726353    -0.716581826077     1.007825032230
         H            3.843903080824    -0.820610726353    -0.848426826077     1.007825032230
         H            3.845717080824    -0.692529726353     0.926033173923     1.007825032230
         H            4.467801080824     0.668583273647    -0.064680826077     1.007825032230

  Basis Set: AUG-CC-PVTZ
    Blend: AUG-CC-PVTZ
  Basis Set: (AUG-CC-PVTZ AUX)
    Blend: AUG-CC-PVTZ-JKFIT
	 Reference Energy          =    -551.5769653628065043 [Eh]
	 Singles Energy            =      -0.0000000000000000 [Eh]
	 Same-Spin Energy          =      -0.5786569413149325 [Eh]
	 Opposite-Spin Energy      =      -1.8015672903775160 [Eh]
	 Correlation Energy        =      -2.3802242316924485 [Eh]
	 Total Energy              =    -553.9571895944989137 [Eh]

	 ================> DF-SCS-MP2 Energies <==================
	-----------------------------------------------------------
	 SCS Same-Spin Scale       =       0.3333333333333333 [-]
	 SCS Opposite-Spin Scale   =       1.2000000000000000 [-]
	 SCS Same-Spin Energy      =      -0.1928856471049775 [Eh]
	 SCS Opposite-Spin Energy  =      -2.1618807484530191 [Eh]
	 SCS Correlation Energy    =      -2.3547663955579967 [Eh]
	 SCS Total Energy          =    -553.9317317583645490 [Eh]
	-----------------------------------------------------------

  Dipole Moment: [D]
     X:    -0.2175      Y:    -0.2024      Z:     0.3458     Total:     0.4559

*** Psi4 exiting successfully. Buy a developer a beer!
