                               Psi4 1.3.2 release

  ==> Input File <==

--------------------------------------------------------------------------
#psi4
#
memory 32 gb

molecule  {
0 1
  O        2.3881612     0.6465944    -0.0605320
  O        1.5746620    -1.5220150     0.0896580
  N       -1.1191790    -1.6921850    -0.1509940
  C       -1.0966210    -0.3229200    -0.0500550
  C        0.1267050     0.4076130    -0.0279230
  C       -2.3003260     0.4165330    -0.0467730
  C        0.1050810     1.8109880     0.0359760
  C       -2.2954060     1.8037730     0.0119910
  C       -1.0915490     2.5140600     0.0407670
  C        1.4212810    -0.3016580     0.0102200
  C       -2.3257850    -2.4585570     0.0736050
  C        3.7618060    -0.1198990    -0.0066490
  H       -3.2501560    -0.1077310    -0.0690300
  H        1.0507040     2.3420820     0.0640380
  H       -0.2300450    -2.1418000     0.0381510
  H       -3.2442430     2.3364260     0.0191250
  H       -1.0894800     3.5992760     0.0899090
  H       -2.7979590    -2.2384410     1.0412790
  H       -2.0612830    -3.5169920     0.0485590
  H       -3.0612710    -2.2783540    -0.7172980
  H        3.8686140    -0.8046650    -0.8491430
  H        3.8704280    -0.6765840     0.9253170
  H        4.4925120     0.6845290    -0.0653970
units angstrom
no_reorient  #important for SAPT in psi4, default
symmetry c1  #important for SAPT in psi4, default
}

set PROPERTIES_ORIGIN ["COM"]
properties('MP2/aug-cc-pvtz', properties = ['dipole'])
--------------------------------------------------------------------------

    Molecular point group: c1
  Charge       = 0
  Multiplicity = 1
  Basis Set: AUG-CC-PVTZ
    Blend: AUG-CC-PVTZ
  Basis Set: (AUG-CC-PVTZ AUX)
    Blend: AUG-CC-PVTZ-JKFIT

    Orbital Energies [Eh]
    ---------------------

    Doubly Occupied:

       1A    -20.608621     2A    -20.545153     3A    -15.560168
       4A    -11.383659     5A    -11.300535     6A    -11.292805
       7A    -11.256312     8A    -11.247482     9A    -11.244083
      10A    -11.231755    11A    -11.223479    12A    -11.219288
      13A     -1.438740    14A     -1.346309    15A     -1.242363
      16A     -1.136996    17A     -1.038977    18A     -1.005580
      19A     -0.962198    20A     -0.921144    21A     -0.863635
      22A     -0.805385    23A     -0.780443    24A     -0.720701
      25A     -0.696499    26A     -0.669494    27A     -0.656605
      28A     -0.655035    29A     -0.622126    30A     -0.612244
      31A     -0.608844    32A     -0.579972    33A     -0.567057
      34A     -0.562654    35A     -0.538865    36A     -0.535865
      37A     -0.528051    38A     -0.505428    39A     -0.497566
      40A     -0.474658    41A     -0.441515    42A     -0.424316
      43A     -0.344427    44A     -0.287683

  @DF-RHF Final Energy:  -551.58114555757174

   => Energetics <=

    Nuclear Repulsion Energy =            687.4402390068867135
    One-Electron Energy =               -2115.6733394326756752
    Two-Electron Energy =                 876.6519548682172172
    Total Energy =                       -551.5811455575717446
  Basis Set: (AUG-CC-PVTZ AUX)
    Blend: AUG-CC-PVTZ-RI
    Molecular point group: c1

    Geometry (in Angstrom), charge = 0, multiplicity = 1:

       Center              X                  Y                   Z               Mass
    ------------   -----------------  -----------------  -----------------  -----------------
         O            2.382685414996     0.619474382825    -0.056746041632    15.994914619570
         O            1.569186214996    -1.549135017175     0.093443958368    15.994914619570
         N           -1.124654785004    -1.719305017175    -0.147208041632    14.003074004430
         C           -1.102096785004    -0.350040017175    -0.046269041632    12.000000000000
         C            0.121229214996     0.380492982825    -0.024137041632    12.000000000000
         C           -2.305801785004     0.389412982825    -0.042987041632    12.000000000000
         C            0.099605214996     1.783867982825     0.039761958368    12.000000000000
         C           -2.300881785004     1.776652982825     0.015776958368    12.000000000000
         C           -1.097024785004     2.486939982825     0.044552958368    12.000000000000
         C            1.415805214996    -0.328778017175     0.014005958368    12.000000000000
         C           -2.331260785004    -2.485677017175     0.077390958368    12.000000000000
         C            3.756330214996    -0.147019017175    -0.002863041632    12.000000000000
         H           -3.255631785004    -0.134851017175    -0.065244041632     1.007825032230
         H            1.045228214996     2.314961982825     0.067823958368     1.007825032230
         H           -0.235520785004    -2.168920017175     0.041936958368     1.007825032230
         H           -3.249718785004     2.309305982825     0.022910958368     1.007825032230
         H           -1.094955785004     3.572155982825     0.093694958368     1.007825032230
         H           -2.803434785004    -2.265561017175     1.045064958368     1.007825032230
         H           -2.066758785004    -3.544112017175     0.052344958368     1.007825032230
         H           -3.066746785004    -2.305474017175    -0.713512041632     1.007825032230
         H            3.863138214996    -0.831785017175    -0.845357041632     1.007825032230
         H            3.864952214996    -0.703704017175     0.929102958368     1.007825032230
         H            4.487036214996     0.657408982825    -0.061611041632     1.007825032230

  Basis Set: AUG-CC-PVTZ
    Blend: AUG-CC-PVTZ
  Basis Set: (AUG-CC-PVTZ AUX)
    Blend: AUG-CC-PVTZ-JKFIT
	 Reference Energy          =    -551.5811455575717446 [Eh]
	 Singles Energy            =      -0.0000000000000000 [Eh]
	 Same-Spin Energy          =      -0.5807781175376155 [Eh]
	 Opposite-Spin Energy      =      -1.8051476859273370 [Eh]
	 Correlation Energy        =      -2.3859258034649526 [Eh]
	 Total Energy              =    -553.9670713610366874 [Eh]

	 ================> DF-SCS-MP2 Energies <==================
	-----------------------------------------------------------
	 SCS Same-Spin Scale       =       0.3333333333333333 [-]
	 SCS Opposite-Spin Scale   =       1.2000000000000000 [-]
	 SCS Same-Spin Energy      =      -0.1935927058458718 [Eh]
	 SCS Opposite-Spin Energy  =      -2.1661772231128045 [Eh]
	 SCS Correlation Energy    =      -2.3597699289586762 [Eh]
	 SCS Total Energy          =    -553.9409154865304572 [Eh]
	-----------------------------------------------------------

  Dipole Moment: [D]
     X:     0.3975      Y:    -0.3247      Z:     0.3382     Total:     0.6147

*** Psi4 exiting successfully. Buy a developer a beer!
