                               Psi4 1.3.2 release

  ==> Input File <==

--------------------------------------------------------------------------
#psi4
#
memory 32 gb

molecule  {
0 1
  O        2.4822540     0.5405090    -0.0540980
  O        1.5746620    -1.5220150     0.0896580
  N       -1.1191790    -1.6921850    -0.1509940
  C       -1.0966210    -0.3229200    -0.0500550
  C        0.1267050     0.4076130    -0.0279230
  C       -2.3003260     0.4165330    -0.0467730
  C        0.1050810     1.8109880     0.0359760
  C       -2.2954060     1.8037730     0.0119910
  C       -1.0915490     2.5140600     0.0407670
  C        1.5089518    -0.3496910     0.0128031
  C       -2.3257850    -2.4585570     0.0736050
  C        3.7618060    -0.1198990    -0.0066490
  H       -3.2501560    -0.1077310    -0.0690300
  H        1.0507040     2.3420820     0.0640380
  H       -0.2300450    -2.1418000     0.0381510
  H       -3.2442430     2.3364260     0.0191250
  H       -1.0894800     3.5992760     0.0899090
  H       -2.7979590    -2.2384410     1.0412790
  H       -2.0612830    -3.5169920     0.0485590
  H       -3.0612710    -2.2783540    -0.7172980
  H        3.8686140    -0.8046650    -0.8491430
  H        3.8704280    -0.6765840     0.9253170
  H        4.4925120     0.6845290    -0.0653970
units angstrom
no_reorient  #important for SAPT in psi4, default
symmetry c1  #important for SAPT in psi4, default
}

set PROPERTIES_ORIGIN ["COM"]
properties('MP2/aug-cc-pvtz', properties = ['dipole'])
--------------------------------------------------------------------------

    Molecular point group: c1
  Charge       = 0
  Multiplicity = 1
  Basis Set: AUG-CC-PVTZ
    Blend: AUG-CC-PVTZ
  Basis Set: (AUG-CC-PVTZ AUX)
    Blend: AUG-CC-PVTZ-JKFIT

    Orbital Energies [Eh]
    ---------------------

    Doubly Occupied:

       1A    -20.615704     2A    -20.553170     3A    -15.557688
       4A    -11.386219     5A    -11.292023     6A    -11.288859
       7A    -11.255106     8A    -11.242425     9A    -11.241104
      10A    -11.237818    11A    -11.221569    12A    -11.217543
      13A     -1.485349    14A     -1.391750    15A     -1.240134
      16A     -1.132844    17A     -1.031615    18A     -1.002761
      19A     -0.975046    20A     -0.918562    21A     -0.848116
      22A     -0.802692    23A     -0.792721    24A     -0.731086
      25A     -0.697292    26A     -0.691226    27A     -0.686842
      28A     -0.659932    29A     -0.625941    30A     -0.611896
      31A     -0.608130    32A     -0.578638    33A     -0.574350
      34A     -0.568026    35A     -0.543002    36A     -0.537732
      37A     -0.530728    38A     -0.505599    39A     -0.496511
      40A     -0.482795    41A     -0.438464    42A     -0.422991
      43A     -0.340969    44A     -0.284471

  @DF-RHF Final Energy:  -551.59501371951308

   => Energetics <=

    Nuclear Repulsion Energy =            687.8956808628679482
    One-Electron Energy =               -2116.2865077983988158
    Two-Electron Energy =                 876.7958132160177911
    Total Energy =                       -551.5950137195130765
  Basis Set: (AUG-CC-PVTZ AUX)
    Blend: AUG-CC-PVTZ-RI
    Molecular point group: c1

    Geometry (in Angstrom), charge = 0, multiplicity = 1:

       Center              X                  Y                   Z               Mass
    ------------   -----------------  -----------------  -----------------  -----------------
         O            2.461288320861     0.527159500033    -0.051123219905    15.994914619570
         O            1.553696320861    -1.535364499967     0.092632780095    15.994914619570
         N           -1.140144679139    -1.705534499967    -0.148019219905    14.003074004430
         C           -1.117586679139    -0.336269499967    -0.047080219905    12.000000000000
         C            0.105739320861     0.394263500033    -0.024948219905    12.000000000000
         C           -2.321291679139     0.403183500033    -0.043798219905    12.000000000000
         C            0.084115320861     1.797638500033     0.038950780095    12.000000000000
         C           -2.316371679139     1.790423500033     0.014965780095    12.000000000000
         C           -1.112514679139     2.500710500033     0.043741780095    12.000000000000
         C            1.487986120861    -0.363040499967     0.015777880095    12.000000000000
         C           -2.346750679139    -2.471906499967     0.076579780095    12.000000000000
         C            3.740840320861    -0.133248499967    -0.003674219905    12.000000000000
         H           -3.271121679139    -0.121080499967    -0.066055219905     1.007825032230
         H            1.029738320861     2.328732500033     0.067012780095     1.007825032230
         H           -0.251010679139    -2.155149499967     0.041125780095     1.007825032230
         H           -3.265208679139     2.323076500033     0.022099780095     1.007825032230
         H           -1.110445679139     3.585926500033     0.092883780095     1.007825032230
         H           -2.818924679139    -2.251790499967     1.044253780095     1.007825032230
         H           -2.082248679139    -3.530341499967     0.051533780095     1.007825032230
         H           -3.082236679139    -2.291703499967    -0.714323219905     1.007825032230
         H            3.847648320861    -0.818014499967    -0.846168219905     1.007825032230
         H            3.849462320861    -0.689933499967     0.928291780095     1.007825032230
         H            4.471546320861     0.671179500033    -0.062422219905     1.007825032230

  Basis Set: AUG-CC-PVTZ
    Blend: AUG-CC-PVTZ
  Basis Set: (AUG-CC-PVTZ AUX)
    Blend: AUG-CC-PVTZ-JKFIT
	 Reference Energy          =    -551.5950137195130765 [Eh]
	 Singles Energy            =      -0.0000000000000000 [Eh]
	 Same-Spin Energy          =      -0.5776224113977440 [Eh]
	 Opposite-Spin Energy      =      -1.7972554381250521 [Eh]
	 Correlation Energy        =      -2.3748778495227958 [Eh]
	 Total Energy              =    -553.9698915690358945 [Eh]

	 ================> DF-SCS-MP2 Energies <==================
	-----------------------------------------------------------
	 SCS Same-Spin Scale       =       0.3333333333333333 [-]
	 SCS Opposite-Spin Scale   =       1.2000000000000000 [-]
	 SCS Same-Spin Energy      =      -0.1925408037992480 [Eh]
	 SCS Opposite-Spin Energy  =      -2.1567065257500624 [Eh]
	 SCS Correlation Energy    =      -2.3492473295493106 [Eh]
	 SCS Total Energy          =    -553.9442610490623338 [Eh]
	-----------------------------------------------------------

  Dipole Moment: [D]
     X:     0.7961      Y:    -0.4292      Z:     0.3417     Total:     0.9668

*** Psi4 exiting successfully. Buy a developer a beer!
