                               Psi4 1.3.2 release

  ==> Input File <==

--------------------------------------------------------------------------
#psi4
#
memory 32 gb

molecule  {
0 1
  O        2.5647226     0.4251966    -0.0469593
  O        1.5746620    -1.5220150     0.0896580
  N       -1.1191790    -1.6921850    -0.1509940
  C       -1.0966210    -0.3229200    -0.0500550
  C        0.1267050     0.4076130    -0.0279230
  C       -2.3003260     0.4165330    -0.0467730
  C        0.1050810     1.8109880     0.0359760
  C       -2.2954060     1.8037730     0.0119910
  C       -1.0915490     2.5140600     0.0407670
  C        1.4212810    -0.3016580     0.0102200
  C       -2.3257850    -2.4585570     0.0736050
  C        3.7618060    -0.1198990    -0.0066490
  H       -3.2501560    -0.1077310    -0.0690300
  H        1.0507040     2.3420820     0.0640380
  H       -0.2300450    -2.1418000     0.0381510
  H       -3.2442430     2.3364260     0.0191250
  H       -1.0894800     3.5992760     0.0899090
  H       -2.7979590    -2.2384410     1.0412790
  H       -2.0612830    -3.5169920     0.0485590
  H       -3.0612710    -2.2783540    -0.7172980
  H        3.8686140    -0.8046650    -0.8491430
  H        3.8704280    -0.6765840     0.9253170
  H        4.4925120     0.6845290    -0.0653970
units angstrom
no_reorient  #important for SAPT in psi4, default
symmetry c1  #important for SAPT in psi4, default
}

set PROPERTIES_ORIGIN ["COM"]
properties('MP2/aug-cc-pvtz', properties = ['dipole'])
--------------------------------------------------------------------------

    Molecular point group: c1
  Charge       = 0
  Multiplicity = 1
  Basis Set: AUG-CC-PVTZ
    Blend: AUG-CC-PVTZ
  Basis Set: (AUG-CC-PVTZ AUX)
    Blend: AUG-CC-PVTZ-JKFIT

    Orbital Energies [Eh]
    ---------------------

    Doubly Occupied:

       1A    -20.592846     2A    -20.538629     3A    -15.566084
       4A    -11.389931     5A    -11.303816     6A    -11.269756
       7A    -11.260439     8A    -11.255968     9A    -11.255659
      10A    -11.247979    11A    -11.231649    12A    -11.227485
      13A     -1.477710    14A     -1.356378    15A     -1.248811
      16A     -1.147027    17A     -1.053252    18A     -1.013699
      19A     -0.980239    20A     -0.925897    21A     -0.866765
      22A     -0.813000    23A     -0.785508    24A     -0.738713
      25A     -0.703589    26A     -0.686844    27A     -0.681100
      28A     -0.665946    29A     -0.639435    30A     -0.620728
      31A     -0.614898    32A     -0.593761    33A     -0.585936
      34A     -0.553773    35A     -0.545029    36A     -0.535397
      37A     -0.509183    38A     -0.506473    39A     -0.498964
      40A     -0.449471    41A     -0.444539    42A     -0.430098
      43A     -0.354149    44A     -0.295290

  @DF-RHF Final Energy:  -551.59095302285175

   => Energetics <=

    Nuclear Repulsion Energy =            689.0221328451309546
    One-Electron Energy =               -2118.3024866880286936
    Two-Electron Energy =                 877.6894008200459893
    Total Energy =                       -551.5909530228517497
  Basis Set: (AUG-CC-PVTZ AUX)
    Blend: AUG-CC-PVTZ-RI
    Molecular point group: c1

    Geometry (in Angstrom), charge = 0, multiplicity = 1:

       Center              X                  Y                   Z               Mass
    ------------   -----------------  -----------------  -----------------  -----------------
         O            2.542139339882     0.419528368741    -0.044488434441    15.994914619570
         O            1.552078739882    -1.527683231259     0.092128865559    15.994914619570
         N           -1.141762260118    -1.697853231259    -0.148523134441    14.003074004430
         C           -1.119204260118    -0.328588231259    -0.047584134441    12.000000000000
         C            0.104121739882     0.401944768741    -0.025452134441    12.000000000000
         C           -2.322909260118     0.410864768741    -0.044302134441    12.000000000000
         C            0.082497739882     1.805319768741     0.038446865559    12.000000000000
         C           -2.317989260118     1.798104768741     0.014461865559    12.000000000000
         C           -1.114132260118     2.508391768741     0.043237865559    12.000000000000
         C            1.398697739882    -0.307326231259     0.012690865559    12.000000000000
         C           -2.348368260118    -2.464225231259     0.076075865559    12.000000000000
         C            3.739222739882    -0.125567231259    -0.004178134441    12.000000000000
         H           -3.272739260118    -0.113399231259    -0.066559134441     1.007825032230
         H            1.028120739882     2.336413768741     0.066508865559     1.007825032230
         H           -0.252628260118    -2.147468231259     0.040621865559     1.007825032230
         H           -3.266826260118     2.330757768741     0.021595865559     1.007825032230
         H           -1.112063260118     3.593607768741     0.092379865559     1.007825032230
         H           -2.820542260118    -2.244109231259     1.043749865559     1.007825032230
         H           -2.083866260118    -3.522660231259     0.051029865559     1.007825032230
         H           -3.083854260118    -2.284022231259    -0.714827134441     1.007825032230
         H            3.846030739882    -0.810333231259    -0.846672134441     1.007825032230
         H            3.847844739882    -0.682252231259     0.927787865559     1.007825032230
         H            4.469928739882     0.678860768741    -0.062926134441     1.007825032230

  Basis Set: AUG-CC-PVTZ
    Blend: AUG-CC-PVTZ
  Basis Set: (AUG-CC-PVTZ AUX)
    Blend: AUG-CC-PVTZ-JKFIT
	 Reference Energy          =    -551.5909530228517497 [Eh]
	 Singles Energy            =      -0.0000000000000000 [Eh]
	 Same-Spin Energy          =      -0.5781936642514918 [Eh]
	 Opposite-Spin Energy      =      -1.7967128389013052 [Eh]
	 Correlation Energy        =      -2.3749065031527969 [Eh]
	 Total Energy              =    -553.9658595260045786 [Eh]

	 ================> DF-SCS-MP2 Energies <==================
	-----------------------------------------------------------
	 SCS Same-Spin Scale       =       0.3333333333333333 [-]
	 SCS Opposite-Spin Scale   =       1.2000000000000000 [-]
	 SCS Same-Spin Energy      =      -0.1927312214171639 [Eh]
	 SCS Opposite-Spin Energy  =      -2.1560554066815660 [Eh]
	 SCS Correlation Energy    =      -2.3487866280987300 [Eh]
	 SCS Total Energy          =    -553.9397396509505143 [Eh]
	-----------------------------------------------------------

  Dipole Moment: [D]
     X:    -0.8163      Y:     0.1922      Z:     0.3114     Total:     0.8945

*** Psi4 exiting successfully. Buy a developer a beer!
