                               Psi4 1.3.2 release

  ==> Input File <==

--------------------------------------------------------------------------
#psi4
#
memory 32 gb

molecule  {
0 1
  O        2.4822540     0.5405090    -0.0540980
  O        1.5746620    -1.5220150     0.0896580
  N       -1.1191790    -1.6921850    -0.1509940
  C       -1.1199521    -0.3231490    -0.0445800
  C        0.1267050     0.4076130    -0.0279230
  C       -2.3003260     0.4165330    -0.0467730
  C        0.1050810     1.8109880     0.0359760
  C       -2.2954060     1.8037730     0.0119910
  C       -1.0915490     2.5140600     0.0407670
  C        1.4212810    -0.3016580     0.0102200
  C       -2.3257850    -2.4585570     0.0736050
  C        3.7618060    -0.1198990    -0.0066490
  H       -3.2501560    -0.1077310    -0.0690300
  H        1.0507040     2.3420820     0.0640380
  H       -0.2300450    -2.1418000     0.0381510
  H       -3.2442430     2.3364260     0.0191250
  H       -1.0894800     3.5992760     0.0899090
  H       -2.7979590    -2.2384410     1.0412790
  H       -2.0612830    -3.5169920     0.0485590
  H       -3.0612710    -2.2783540    -0.7172980
  H        3.8686140    -0.8046650    -0.8491430
  H        3.8704280    -0.6765840     0.9253170
  H        4.4925120     0.6845290    -0.0653970
units angstrom
no_reorient  #important for SAPT in psi4, default
symmetry c1  #important for SAPT in psi4, default
}

set PROPERTIES_ORIGIN ["COM"]
properties('MP2/aug-cc-pvtz', properties = ['dipole'])
--------------------------------------------------------------------------

    Molecular point group: c1
  Charge       = 0
  Multiplicity = 1
  Basis Set: AUG-CC-PVTZ
    Blend: AUG-CC-PVTZ
  Basis Set: (AUG-CC-PVTZ AUX)
    Blend: AUG-CC-PVTZ-JKFIT

    Orbital Energies [Eh]
    ---------------------

    Doubly Occupied:

       1A    -20.602645     2A    -20.541642     3A    -15.562840
       4A    -11.385715     5A    -11.297849     6A    -11.284266
       7A    -11.257494     8A    -11.252787     9A    -11.250514
      10A    -11.241395    11A    -11.225384    12A    -11.223622
      13A     -1.453921    14A     -1.349800    15A     -1.245562
      16A     -1.142052    17A     -1.045489    18A     -1.011013
      19A     -0.967928    20A     -0.922689    21A     -0.866012
      22A     -0.807442    23A     -0.783756    24A     -0.728630
      25A     -0.701422    26A     -0.673934    27A     -0.668497
      28A     -0.659973    29A     -0.629095    30A     -0.617820
      31A     -0.611666    32A     -0.582363    33A     -0.576308
      34A     -0.555434    35A     -0.541842    36A     -0.535663
      37A     -0.525706    38A     -0.506933    39A     -0.498841
      40A     -0.465199    41A     -0.445230    42A     -0.427439
      43A     -0.349468    44A     -0.291816

  @DF-RHF Final Energy:  -551.60093955522962

   => Energetics <=

    Nuclear Repulsion Energy =            687.8519197132603722
    One-Electron Energy =               -2116.2755254398675788
    Two-Electron Energy =                 876.8226661713774774
    Total Energy =                       -551.6009395552296155
  Basis Set: (AUG-CC-PVTZ AUX)
    Blend: AUG-CC-PVTZ-RI
    Molecular point group: c1

    Geometry (in Angstrom), charge = 0, multiplicity = 1:

       Center              X                  Y                   Z               Mass
    ------------   -----------------  -----------------  -----------------  -----------------
         O            2.469357324021     0.523684508820    -0.051333439282    15.994914619570
         O            1.561765324021    -1.538839491180     0.092422560718    15.994914619570
         N           -1.132075675979    -1.709009491180    -0.148229439282    14.003074004430
         C           -1.132848775979    -0.339973491180    -0.041815439282    12.000000000000
         C            0.113808324021     0.390788508820    -0.025158439282    12.000000000000
         C           -2.313222675979     0.399708508820    -0.044008439282    12.000000000000
         C            0.092184324021     1.794163508820     0.038740560718    12.000000000000
         C           -2.308302675979     1.786948508820     0.014755560718    12.000000000000
         C           -1.104445675979     2.497235508820     0.043531560718    12.000000000000
         C            1.408384324021    -0.318482491180     0.012984560718    12.000000000000
         C           -2.338681675979    -2.475381491180     0.076369560718    12.000000000000
         C            3.748909324021    -0.136723491180    -0.003884439282    12.000000000000
         H           -3.263052675979    -0.124555491180    -0.066265439282     1.007825032230
         H            1.037807324021     2.325257508820     0.066802560718     1.007825032230
         H           -0.242941675979    -2.158624491180     0.040915560718     1.007825032230
         H           -3.257139675979     2.319601508820     0.021889560718     1.007825032230
         H           -1.102376675979     3.582451508820     0.092673560718     1.007825032230
         H           -2.810855675979    -2.255265491180     1.044043560718     1.007825032230
         H           -2.074179675979    -3.533816491180     0.051323560718     1.007825032230
         H           -3.074167675979    -2.295178491180    -0.714533439282     1.007825032230
         H            3.855717324021    -0.821489491180    -0.846378439282     1.007825032230
         H            3.857531324021    -0.693408491180     0.928081560718     1.007825032230
         H            4.479615324021     0.667704508820    -0.062632439282     1.007825032230

  Basis Set: AUG-CC-PVTZ
    Blend: AUG-CC-PVTZ
  Basis Set: (AUG-CC-PVTZ AUX)
    Blend: AUG-CC-PVTZ-JKFIT
	 Reference Energy          =    -551.6009395552296155 [Eh]
	 Singles Energy            =      -0.0000000000000000 [Eh]
	 Same-Spin Energy          =      -0.5789456878342326 [Eh]
	 Opposite-Spin Energy      =      -1.7998015700077556 [Eh]
	 Correlation Energy        =      -2.3787472578419884 [Eh]
	 Total Energy              =    -553.9796868130715666 [Eh]

	 ================> DF-SCS-MP2 Energies <==================
	-----------------------------------------------------------
	 SCS Same-Spin Scale       =       0.3333333333333333 [-]
	 SCS Opposite-Spin Scale   =       1.2000000000000000 [-]
	 SCS Same-Spin Energy      =      -0.1929818959447442 [Eh]
	 SCS Opposite-Spin Energy  =      -2.1597618840093067 [Eh]
	 SCS Correlation Energy    =      -2.3527437799540509 [Eh]
	 SCS Total Energy          =    -553.9536833351836549 [Eh]
	-----------------------------------------------------------

  Dipole Moment: [D]
     X:    -0.1577      Y:    -0.0684      Z:     0.3276     Total:     0.3700

*** Psi4 exiting successfully. Buy a developer a beer!
