                               Psi4 1.3.2 release

  ==> Input File <==

--------------------------------------------------------------------------
#psi4
#
memory 32 gb

molecule  {
0 1
  O        2.4822540     0.5405090    -0.0540980
  O        1.5746620    -1.5220150     0.0896580
  N       -1.1191790    -1.6921850    -0.1509940
  C       -1.0966210    -0.3229200    -0.0500550
  C        0.1267050     0.4076130    -0.0279230
  C       -2.3003260     0.4165330    -0.0467730
  C        0.1050810     1.8109880     0.0359760
  C       -2.2954060     1.8037730     0.0119910
  C       -1.0915490     2.5140600     0.0407670
  C        1.4212810    -0.3016580     0.0102200
  C       -2.3257850    -2.4585570     0.0736050
  C        3.5841779    -0.0282208    -0.0132359
  H       -3.2501560    -0.1077310    -0.0690300
  H        1.0507040     2.3420820     0.0640380
  H       -0.2300450    -2.1418000     0.0381510
  H       -3.2442430     2.3364260     0.0191250
  H       -1.0894800     3.5992760     0.0899090
  H       -2.7979590    -2.2384410     1.0412790
  H       -2.0612830    -3.5169920     0.0485590
  H       -3.0612710    -2.2783540    -0.7172980
  H        3.8686140    -0.8046650    -0.8491430
  H        3.8704280    -0.6765840     0.9253170
  H        4.4925120     0.6845290    -0.0653970
units angstrom
no_reorient  #important for SAPT in psi4, default
symmetry c1  #important for SAPT in psi4, default
}

set PROPERTIES_ORIGIN ["COM"]
properties('MP2/aug-cc-pvtz', properties = ['dipole'])
--------------------------------------------------------------------------

    Molecular point group: c1
  Charge       = 0
  Multiplicity = 1
  Basis Set: AUG-CC-PVTZ
    Blend: AUG-CC-PVTZ
  Basis Set: (AUG-CC-PVTZ AUX)
    Blend: AUG-CC-PVTZ-JKFIT

    Orbital Energies [Eh]
    ---------------------

    Doubly Occupied:

       1A    -20.620098     2A    -20.553933     3A    -15.568353
       4A    -11.397701     5A    -11.304195     6A    -11.288062
       7A    -11.261914     8A    -11.256875     9A    -11.256231
      10A    -11.246745    11A    -11.232485    12A    -11.228523
      13A     -1.521758    14A     -1.378338    15A     -1.250726
      16A     -1.148778    17A     -1.059135    18A     -1.014796
      19A     -0.977322    20A     -0.925279    21A     -0.863225
      22A     -0.814557    23A     -0.798704    24A     -0.746288
      25A     -0.708040    26A     -0.703557    27A     -0.701108
      28A     -0.668674    29A     -0.644625    30A     -0.624245
      31A     -0.616321    32A     -0.593426    33A     -0.587321
      34A     -0.547774    35A     -0.546472    36A     -0.536583
      37A     -0.510924    38A     -0.504082    39A     -0.479820
      40A     -0.454499    41A     -0.440244    42A     -0.430327
      43A     -0.354395    44A     -0.296456

  @DF-RHF Final Energy:  -551.55920606002292

   => Energetics <=

    Nuclear Repulsion Energy =            692.5211609477590855
    One-Electron Energy =               -2124.8349011508480544
    Two-Electron Energy =                 880.7545341430659391
    Total Energy =                       -551.5592060600229161
  Basis Set: (AUG-CC-PVTZ AUX)
    Blend: AUG-CC-PVTZ-RI
    Molecular point group: c1

    Geometry (in Angstrom), charge = 0, multiplicity = 1:

       Center              X                  Y                   Z               Mass
    ------------   -----------------  -----------------  -----------------  -----------------
         O            2.480573555281     0.517003546718    -0.050456629883    15.994914619570
         O            1.572981555281    -1.545520453282     0.093299370117    15.994914619570
         N           -1.120859444719    -1.715690453282    -0.147352629883    14.003074004430
         C           -1.098301444719    -0.346425453282    -0.046413629883    12.000000000000
         C            0.125024555281     0.384107546718    -0.024281629883    12.000000000000
         C           -2.302006444719     0.393027546718    -0.043131629883    12.000000000000
         C            0.103400555281     1.787482546718     0.039617370117    12.000000000000
         C           -2.297086444719     1.780267546718     0.015632370117    12.000000000000
         C           -1.093229444719     2.490554546718     0.044408370117    12.000000000000
         C            1.419600555281    -0.325163453282     0.013861370117    12.000000000000
         C           -2.327465444719    -2.482062453282     0.077246370117    12.000000000000
         C            3.582497455281    -0.051726253282    -0.009594529883    12.000000000000
         H           -3.251836444719    -0.131236453282    -0.065388629883     1.007825032230
         H            1.049023555281     2.318576546718     0.067679370117     1.007825032230
         H           -0.231725444719    -2.165305453282     0.041792370117     1.007825032230
         H           -3.245923444719     2.312920546718     0.022766370117     1.007825032230
         H           -1.091160444719     3.575770546718     0.093550370117     1.007825032230
         H           -2.799639444719    -2.261946453282     1.044920370117     1.007825032230
         H           -2.062963444719    -3.540497453282     0.052200370117     1.007825032230
         H           -3.062951444719    -2.301859453282    -0.713656629883     1.007825032230
         H            3.866933555281    -0.828170453282    -0.845501629883     1.007825032230
         H            3.868747555281    -0.700089453282     0.928958370117     1.007825032230
         H            4.490831555281     0.661023546718    -0.061755629883     1.007825032230

  Basis Set: AUG-CC-PVTZ
    Blend: AUG-CC-PVTZ
  Basis Set: (AUG-CC-PVTZ AUX)
    Blend: AUG-CC-PVTZ-JKFIT
	 Reference Energy          =    -551.5592060600229161 [Eh]
	 Singles Energy            =      -0.0000000000000000 [Eh]
	 Same-Spin Energy          =      -0.5802803670058203 [Eh]
	 Opposite-Spin Energy      =      -1.7999622912039324 [Eh]
	 Correlation Energy        =      -2.3802426582097524 [Eh]
	 Total Energy              =    -553.9394487182327111 [Eh]

	 ================> DF-SCS-MP2 Energies <==================
	-----------------------------------------------------------
	 SCS Same-Spin Scale       =       0.3333333333333333 [-]
	 SCS Opposite-Spin Scale   =       1.2000000000000000 [-]
	 SCS Same-Spin Energy      =      -0.1934267890019401 [Eh]
	 SCS Opposite-Spin Energy  =      -2.1599547494447187 [Eh]
	 SCS Correlation Energy    =      -2.3533815384466585 [Eh]
	 SCS Total Energy          =    -553.9125875984695995 [Eh]
	-----------------------------------------------------------

  Dipole Moment: [D]
     X:    -1.2570      Y:     0.1052      Z:     0.3144     Total:     1.3000

*** Psi4 exiting successfully. Buy a developer a beer!
