                               Psi4 1.4a3.dev225

  ==> Input File <==

--------------------------------------------------------------------------
#psi4
#
memory 32 gb

molecule  {
0 1
  O        2.4822540     0.5405090    -0.0540980
  O        1.5746620    -1.5220150     0.0896580
  N       -1.1191790    -1.6921850    -0.1509940
  C       -1.0962924    -0.3029768    -0.0485848
  C        0.1267050     0.4076130    -0.0279230
  C       -2.3003260     0.4165330    -0.0467730
  C        0.1050810     1.8109880     0.0359760
  C       -2.2954060     1.8037730     0.0119910
  C       -1.0915490     2.5140600     0.0407670
  C        1.4212810    -0.3016580     0.0102200
  C       -2.3257850    -2.4585570     0.0736050
  C        3.7618060    -0.1198990    -0.0066490
  H       -3.2501560    -0.1077310    -0.0690300
  H        1.0507040     2.3420820     0.0640380
  H       -0.2300450    -2.1418000     0.0381510
  H       -3.2442430     2.3364260     0.0191250
  H       -1.0894800     3.5992760     0.0899090
  H       -2.7979590    -2.2384410     1.0412790
  H       -2.0612830    -3.5169920     0.0485590
  H       -3.0612710    -2.2783540    -0.7172980
  H        3.8686140    -0.8046650    -0.8491430
  H        3.8704280    -0.6765840     0.9253170
  H        4.4925120     0.6845290    -0.0653970
units angstrom
no_reorient  #important for SAPT in psi4, default
symmetry c1  #important for SAPT in psi4, default
}

set PROPERTIES_ORIGIN ["COM"]
properties('MP2/aug-cc-pvtz', properties = ['dipole'])
--------------------------------------------------------------------------

    Molecular point group: c1
  Charge       = 0
  Multiplicity = 1
  Basis Set: AUG-CC-PVTZ
    Blend: AUG-CC-PVTZ
  Basis Set: (AUG-CC-PVTZ AUX)
    Blend: AUG-CC-PVTZ-JKFIT

    Orbital Energies [Eh]
    ---------------------

    Doubly Occupied:

       1A    -20.603592     2A    -20.542439     3A    -15.559948
       4A    -11.386712     5A    -11.296877     6A    -11.284813
       7A    -11.256342     8A    -11.252319     9A    -11.250583
      10A    -11.240219    11A    -11.227711    12A    -11.224852
      13A     -1.454773    14A     -1.350487    15A     -1.238689
      16A     -1.143520    17A     -1.047644    18A     -1.010812
      19A     -0.968897    20A     -0.920107    21A     -0.865452
      22A     -0.809945    23A     -0.784757    24A     -0.729390
      25A     -0.697524    26A     -0.674039    27A     -0.669240
      28A     -0.660113    29A     -0.628239    30A     -0.616901
      31A     -0.609238    32A     -0.583500    33A     -0.577640
      34A     -0.556314    35A     -0.540763    36A     -0.534599
      37A     -0.525369    38A     -0.507679    39A     -0.502041
      40A     -0.465690    41A     -0.445571    42A     -0.424101
      43A     -0.350216    44A     -0.293724

  @DF-RHF Final Energy:  -551.60111091224439

   => Energetics <=

    Nuclear Repulsion Energy =            688.0264412384465231
    One-Electron Energy =               -2116.6283441563150518
    Two-Electron Energy =                 877.0007920056241346
    Total Energy =                       -551.6011109122443941
  Basis Set: (AUG-CC-PVTZ AUX)
    Blend: AUG-CC-PVTZ-RI
    Molecular point group: c1

    Geometry (in Angstrom), charge = 0, multiplicity = 1:

       Center              X                  Y                   Z               Mass
    ------------   -----------------  -----------------  -----------------  -----------------
         O            2.467637441803     0.522218141618    -0.051042320446    15.994914619570
         O            1.560045441803    -1.540305858382     0.092713679554    15.994914619570
         N           -1.133795558197    -1.710475858382    -0.147938320446    14.003074004430
         C           -1.110908958197    -0.321267658382    -0.045529120446    12.000000000000
         C            0.112088441803     0.389322141618    -0.024867320446    12.000000000000
         C           -2.314942558197     0.398242141618    -0.043717320446    12.000000000000
         C            0.090464441803     1.792697141618     0.039031679554    12.000000000000
         C           -2.310022558197     1.785482141618     0.015046679554    12.000000000000
         C           -1.106165558197     2.495769141618     0.043822679554    12.000000000000
         C            1.406664441803    -0.319948858382     0.013275679554    12.000000000000
         C           -2.340401558197    -2.476847858382     0.076660679554    12.000000000000
         C            3.747189441803    -0.138189858382    -0.003593320446    12.000000000000
         H           -3.264772558197    -0.126021858382    -0.065974320446     1.007825032230
         H            1.036087441803     2.323791141618     0.067093679554     1.007825032230
         H           -0.244661558197    -2.160090858382     0.041206679554     1.007825032230
         H           -3.258859558197     2.318135141618     0.022180679554     1.007825032230
         H           -1.104096558197     3.580985141618     0.092964679554     1.007825032230
         H           -2.812575558197    -2.256731858382     1.044334679554     1.007825032230
         H           -2.075899558197    -3.535282858382     0.051614679554     1.007825032230
         H           -3.075887558197    -2.296644858382    -0.714242320446     1.007825032230
         H            3.853997441803    -0.822955858382    -0.846087320446     1.007825032230
         H            3.855811441803    -0.694874858382     0.928372679554     1.007825032230
         H            4.477895441803     0.666238141618    -0.062341320446     1.007825032230

  Basis Set: AUG-CC-PVTZ
    Blend: AUG-CC-PVTZ
  Basis Set: (AUG-CC-PVTZ AUX)
    Blend: AUG-CC-PVTZ-JKFIT
	 Reference Energy          =    -551.6011109122443941 [Eh]
	 Singles Energy            =      -0.0000000000000000 [Eh]
	 Same-Spin Energy          =      -0.5788801356043769 [Eh]
	 Opposite-Spin Energy      =      -1.7998961772040287 [Eh]
	 Correlation Energy        =      -2.3787763128084056 [Eh]
	 Total Energy              =    -553.9798872250528348 [Eh]

	 ================> DF-SCS-MP2 Energies <==================
	-----------------------------------------------------------
	 SCS Same-Spin Scale       =       0.3333333333333333 [-]
	 SCS Opposite-Spin Scale   =       1.2000000000000000 [-]
	 SCS Same-Spin Energy      =      -0.1929600452014590 [Eh]
	 SCS Opposite-Spin Energy  =      -2.1598754126448343 [Eh]
	 SCS Correlation Energy    =      -2.3528354578462931 [Eh]
	 SCS Total Energy          =    -553.9539463700906481 [Eh]
	-----------------------------------------------------------

  Dipole Moment: [D]
     X:    -0.1240      Y:     0.0527      Z:     0.3366     Total:     0.3626

*** Psi4 exiting successfully. Buy a developer a beer!
