                               Psi4 1.3.2 release

  ==> Input File <==

--------------------------------------------------------------------------
#psi4
#
memory 32 gb

molecule  {
0 1
  O        2.4822540     0.5405090    -0.0540980
  O        1.5746620    -1.5220150     0.0896580
  N       -1.1191790    -1.6921850    -0.1509940
  C       -1.0966210    -0.3229200    -0.0500550
  C        0.1267050     0.4076130    -0.0279230
  C       -2.3003260     0.4165330    -0.0467730
  C        0.1050810     1.8109880     0.0359760
  C       -2.2954060     1.8037730     0.0119910
  C       -1.0915490     2.5140600     0.0407670
  C        1.4212810    -0.3016580     0.0102200
  C       -2.3257850    -2.4585570     0.0736050
  C        3.9394341    -0.2115772    -0.0000621
  H       -3.2501560    -0.1077310    -0.0690300
  H        1.0507040     2.3420820     0.0640380
  H       -0.2300450    -2.1418000     0.0381510
  H       -3.2442430     2.3364260     0.0191250
  H       -1.0894800     3.5992760     0.0899090
  H       -2.7979590    -2.2384410     1.0412790
  H       -2.0612830    -3.5169920     0.0485590
  H       -3.0612710    -2.2783540    -0.7172980
  H        3.8686140    -0.8046650    -0.8491430
  H        3.8704280    -0.6765840     0.9253170
  H        4.4925120     0.6845290    -0.0653970
units angstrom
no_reorient  #important for SAPT in psi4, default
symmetry c1  #important for SAPT in psi4, default
}

set PROPERTIES_ORIGIN ["COM"]
properties('MP2/aug-cc-pvtz', properties = ['dipole'])
--------------------------------------------------------------------------

    Molecular point group: c1
  Charge       = 0
  Multiplicity = 1
  Basis Set: AUG-CC-PVTZ
    Blend: AUG-CC-PVTZ
  Basis Set: (AUG-CC-PVTZ AUX)
    Blend: AUG-CC-PVTZ-JKFIT

    Orbital Energies [Eh]
    ---------------------

    Doubly Occupied:

       1A    -20.582286     2A    -20.531823     3A    -15.558414
       4A    -11.374533     5A    -11.297763     6A    -11.292914
       7A    -11.255147     8A    -11.247028     9A    -11.244243
      10A    -11.233389    11A    -11.223044    12A    -11.218737
      13A     -1.421518    14A     -1.322122    15A     -1.240906
      16A     -1.136323    17A     -1.037519    18A     -1.004903
      19A     -0.976894    20A     -0.921419    21A     -0.862329
      22A     -0.803964    23A     -0.770468    24A     -0.714557
      25A     -0.694722    26A     -0.664331    27A     -0.657693
      28A     -0.655572    29A     -0.619176    30A     -0.610648
      31A     -0.607019    32A     -0.593357    33A     -0.578087
      34A     -0.576204    35A     -0.538543    36A     -0.528643
      37A     -0.506397    38A     -0.502569    39A     -0.497068
      40A     -0.458641    41A     -0.434691    42A     -0.422910
      43A     -0.344150    44A     -0.286851

  @DF-RHF Final Energy:  -551.57423129730284

   => Energetics <=

    Nuclear Repulsion Energy =            684.0834699602570481
    One-Electron Energy =               -2109.2163731165078389
    Two-Electron Energy =                 873.5586718589480597
    Total Energy =                       -551.5742312973028447
  Basis Set: (AUG-CC-PVTZ AUX)
    Blend: AUG-CC-PVTZ-RI
    Molecular point group: c1

    Geometry (in Angstrom), charge = 0, multiplicity = 1:

       Center              X                  Y                   Z               Mass
    ------------   -----------------  -----------------  -----------------  -----------------
         O            2.454749101821     0.530332177768    -0.051414266048    15.994914619570
         O            1.547157101821    -1.532191822232     0.092341733952    15.994914619570
         N           -1.146683898179    -1.702361822232    -0.148310266048    14.003074004430
         C           -1.124125898179    -0.333096822232    -0.047371266048    12.000000000000
         C            0.099200101821     0.397436177768    -0.025239266048    12.000000000000
         C           -2.327830898179     0.406356177768    -0.044089266048    12.000000000000
         C            0.077576101821     1.800811177768     0.038659733952    12.000000000000
         C           -2.322910898179     1.793596177768     0.014674733952    12.000000000000
         C           -1.119053898179     2.503883177768     0.043450733952    12.000000000000
         C            1.393776101821    -0.311834822232     0.012903733952    12.000000000000
         C           -2.353289898179    -2.468733822232     0.076288733952    12.000000000000
         C            3.911929201821    -0.221754022232     0.002621633952    12.000000000000
         H           -3.277660898179    -0.117907822232    -0.066346266048     1.007825032230
         H            1.023199101821     2.331905177768     0.066721733952     1.007825032230
         H           -0.257549898179    -2.151976822232     0.040834733952     1.007825032230
         H           -3.271747898179     2.326249177768     0.021808733952     1.007825032230
         H           -1.116984898179     3.589099177768     0.092592733952     1.007825032230
         H           -2.825463898179    -2.248617822232     1.043962733952     1.007825032230
         H           -2.088787898179    -3.527168822232     0.051242733952     1.007825032230
         H           -3.088775898179    -2.288530822232    -0.714614266048     1.007825032230
         H            3.841109101821    -0.814841822232    -0.846459266048     1.007825032230
         H            3.842923101821    -0.686760822232     0.928000733952     1.007825032230
         H            4.465007101821     0.674352177768    -0.062713266048     1.007825032230

  Basis Set: AUG-CC-PVTZ
    Blend: AUG-CC-PVTZ
  Basis Set: (AUG-CC-PVTZ AUX)
    Blend: AUG-CC-PVTZ-JKFIT
	 Reference Energy          =    -551.5742312973028447 [Eh]
	 Singles Energy            =      -0.0000000000000000 [Eh]
	 Same-Spin Energy          =      -0.5796141208239951 [Eh]
	 Opposite-Spin Energy      =      -1.8031701796797441 [Eh]
	 Correlation Energy        =      -2.3827843005037392 [Eh]
	 Total Energy              =    -553.9570155978066168 [Eh]

	 ================> DF-SCS-MP2 Energies <==================
	-----------------------------------------------------------
	 SCS Same-Spin Scale       =       0.3333333333333333 [-]
	 SCS Opposite-Spin Scale   =       1.2000000000000000 [-]
	 SCS Same-Spin Energy      =      -0.1932047069413317 [Eh]
	 SCS Opposite-Spin Energy  =      -2.1638042156156927 [Eh]
	 SCS Correlation Energy    =      -2.3570089225570245 [Eh]
	 SCS Total Energy          =    -553.9312402198598875 [Eh]
	-----------------------------------------------------------

  Dipole Moment: [D]
     X:     0.6312      Y:    -0.2323      Z:     0.3349     Total:     0.7514

*** Psi4 exiting successfully. Buy a developer a beer!
