                               Psi4 1.4a3.dev225

  ==> Input File <==

--------------------------------------------------------------------------
#psi4
#
memory 32 gb

molecule  {
0 1
  O        2.4822540     0.5405090    -0.0540980
  O        1.5746620    -1.5220150     0.0896580
  N       -1.1191790    -1.6921850    -0.1509940
  C       -1.0966210    -0.3229200    -0.0500550
  C        0.1267050     0.4076130    -0.0279230
  C       -2.3003260     0.4165330    -0.0467730
  C        0.1050810     1.8109880     0.0359760
  C       -2.2954060     1.8037730     0.0119910
  C       -1.0915490     2.5140600     0.0407670
  C        1.4603991    -0.2706073     0.0078486
  C       -2.3257850    -2.4585570     0.0736050
  C        3.7618060    -0.1198990    -0.0066490
  H       -3.2501560    -0.1077310    -0.0690300
  H        1.0507040     2.3420820     0.0640380
  H       -0.2300450    -2.1418000     0.0381510
  H       -3.2442430     2.3364260     0.0191250
  H       -1.0894800     3.5992760     0.0899090
  H       -2.7979590    -2.2384410     1.0412790
  H       -2.0612830    -3.5169920     0.0485590
  H       -3.0612710    -2.2783540    -0.7172980
  H        3.8686140    -0.8046650    -0.8491430
  H        3.8704280    -0.6765840     0.9253170
  H        4.4925120     0.6845290    -0.0653970
units angstrom
no_reorient  #important for SAPT in psi4, default
symmetry c1  #important for SAPT in psi4, default
}

set PROPERTIES_ORIGIN ["COM"]
properties('MP2/aug-cc-pvtz', properties = ['dipole'])
--------------------------------------------------------------------------

    Molecular point group: c1
  Charge       = 0
  Multiplicity = 1
  Basis Set: AUG-CC-PVTZ
    Blend: AUG-CC-PVTZ
  Basis Set: (AUG-CC-PVTZ AUX)
    Blend: AUG-CC-PVTZ-JKFIT

    Orbital Energies [Eh]
    ---------------------

    Doubly Occupied:

       1A    -20.616364     2A    -20.534419     3A    -15.559887
       4A    -11.386868     5A    -11.296465     6A    -11.291601
       7A    -11.256218     8A    -11.249477     9A    -11.247660
      10A    -11.239503    11A    -11.226040    12A    -11.221753
      13A     -1.474004    14A     -1.339102    15A     -1.242214
      16A     -1.139897    17A     -1.044636    18A     -1.007488
      19A     -0.979331    20A     -0.921812    21A     -0.859933
      22A     -0.807593    23A     -0.790458    24A     -0.733162
      25A     -0.695846    26A     -0.681072    27A     -0.675934
      28A     -0.660922    29A     -0.629533    30A     -0.613601
      31A     -0.609740    32A     -0.581379    33A     -0.575491
      34A     -0.554570    35A     -0.539688    36A     -0.536174
      37A     -0.525036    38A     -0.506934    39A     -0.499628
      40A     -0.463832    41A     -0.440793    42A     -0.425223
      43A     -0.347354    44A     -0.288959

  @DF-RHF Final Energy:  -551.59861761212358

   => Energetics <=

    Nuclear Repulsion Energy =            687.8954928088750194
    One-Electron Energy =               -2116.3530283550344393
    Two-Electron Energy =                 876.8589179340357305
    Total Energy =                       -551.5986176121235758
  Basis Set: (AUG-CC-PVTZ AUX)
    Blend: AUG-CC-PVTZ-RI
    Molecular point group: c1

    Geometry (in Angstrom), charge = 0, multiplicity = 1:

       Center              X                  Y                   Z               Mass
    ------------   -----------------  -----------------  -----------------  -----------------
         O            2.464817736932     0.521410709920    -0.050763065023    15.994914619570
         O            1.557225736932    -1.541113290080     0.092992934977    15.994914619570
         N           -1.136615263068    -1.711283290080    -0.147659065023    14.003074004430
         C           -1.114057263068    -0.342018290080    -0.046720065023    12.000000000000
         C            0.109268736932     0.388514709920    -0.024588065023    12.000000000000
         C           -2.317762263068     0.397434709920    -0.043438065023    12.000000000000
         C            0.087644736932     1.791889709920     0.039310934977    12.000000000000
         C           -2.312842263068     1.784674709920     0.015325934977    12.000000000000
         C           -1.108985263068     2.494961709920     0.044101934977    12.000000000000
         C            1.442962836932    -0.289705590080     0.011183534977    12.000000000000
         C           -2.343221263068    -2.477655290080     0.076939934977    12.000000000000
         C            3.744369736932    -0.138997290080    -0.003314065023    12.000000000000
         H           -3.267592263068    -0.126829290080    -0.065695065023     1.007825032230
         H            1.033267736932     2.322983709920     0.067372934977     1.007825032230
         H           -0.247481263068    -2.160898290080     0.041485934977     1.007825032230
         H           -3.261679263068     2.317327709920     0.022459934977     1.007825032230
         H           -1.106916263068     3.580177709920     0.093243934977     1.007825032230
         H           -2.815395263068    -2.257539290080     1.044613934977     1.007825032230
         H           -2.078719263068    -3.536090290080     0.051893934977     1.007825032230
         H           -3.078707263068    -2.297452290080    -0.713963065023     1.007825032230
         H            3.851177736932    -0.823763290080    -0.845808065023     1.007825032230
         H            3.852991736932    -0.695682290080     0.928651934977     1.007825032230
         H            4.475075736932     0.665430709920    -0.062062065023     1.007825032230

  Basis Set: AUG-CC-PVTZ
    Blend: AUG-CC-PVTZ
  Basis Set: (AUG-CC-PVTZ AUX)
    Blend: AUG-CC-PVTZ-JKFIT
	 Reference Energy          =    -551.5986176121235758 [Eh]
	 Singles Energy            =      -0.0000000000000000 [Eh]
	 Same-Spin Energy          =      -0.5790254986016865 [Eh]
	 Opposite-Spin Energy      =      -1.7997973348197984 [Eh]
	 Correlation Energy        =      -2.3788228334214852 [Eh]
	 Total Energy              =    -553.9774404455450849 [Eh]

	 ================> DF-SCS-MP2 Energies <==================
	-----------------------------------------------------------
	 SCS Same-Spin Scale       =       0.3333333333333333 [-]
	 SCS Opposite-Spin Scale   =       1.2000000000000000 [-]
	 SCS Same-Spin Energy      =      -0.1930084995338955 [Eh]
	 SCS Opposite-Spin Energy  =      -2.1597568017837578 [Eh]
	 SCS Correlation Energy    =      -2.3527653013176533 [Eh]
	 SCS Total Energy          =    -553.9513829134411935 [Eh]
	-----------------------------------------------------------

  Dipole Moment: [D]
     X:     0.3100      Y:     0.0725      Z:     0.3062     Total:     0.4417

*** Psi4 exiting successfully. Buy a developer a beer!
