                               Psi4 1.3.2 release

  ==> Input File <==

--------------------------------------------------------------------------
#psi4
#
memory 32 gb

molecule  {
0 1
  O        2.4822540     0.5405090    -0.0540980
  O        1.5746620    -1.5220150     0.0896580
  N       -1.1191790    -1.6921850    -0.1509940
  C       -1.0966210    -0.3229200    -0.0500550
  C        0.1267050     0.4076130    -0.0279230
  C       -2.3003260     0.4165330    -0.0467730
  C        0.1050810     1.8109880     0.0359760
  C       -2.2954060     1.8037730     0.0119910
  C       -1.0915490     2.5140600     0.0407670
  C        1.4212810    -0.3016580     0.0102200
  C       -2.3257850    -2.4585570     0.0736050
  C        3.7618060    -0.1198990    -0.0066490
  H       -3.2501560    -0.1077310    -0.0690300
  H        1.0507040     2.3420820     0.0640380
  H       -0.2300450    -2.1418000     0.0381510
  H       -3.2442430     2.3364260     0.0191250
  H       -1.0894800     3.5992760     0.0899090
  H       -2.7979590    -2.2384410     1.0412790
  H       -2.0612830    -3.5169920     0.0485590
  H       -3.0612710    -2.2783540    -0.7172980
  H        3.8686140    -0.8046650    -0.8491430
  H        3.8704280    -0.6765840     0.9253170
  H        4.4925120     0.6845290    -0.0653970
units angstrom
no_reorient  #important for SAPT in psi4, default
symmetry c1  #important for SAPT in psi4, default
}

set PROPERTIES_ORIGIN ["COM"]
properties('MP2/aug-cc-pvtz', properties = ['dipole'])
--------------------------------------------------------------------------

    Molecular point group: c1
  Charge       = 0
  Multiplicity = 1
  Basis Set: AUG-CC-PVTZ
    Blend: AUG-CC-PVTZ
  Basis Set: (AUG-CC-PVTZ AUX)
    Blend: AUG-CC-PVTZ-JKFIT

    Orbital Energies [Eh]
    ---------------------

    Doubly Occupied:

       1A    -20.602756     2A    -20.541800     3A    -15.563135
       4A    -11.385622     5A    -11.298366     6A    -11.284308
       7A    -11.258379     8A    -11.251764     9A    -11.249999
      10A    -11.239744    11A    -11.227567    12A    -11.223413
      13A     -1.454067    14A     -1.350003    15A     -1.245593
      16A     -1.142091    17A     -1.046099    18A     -1.009633
      19A     -0.968417    20A     -0.923165    21A     -0.864504
      22A     -0.809075    23A     -0.784270    24A     -0.728666
      25A     -0.700051    26A     -0.673358    27A     -0.668632
      28A     -0.660928    29A     -0.629388    30A     -0.616375
      31A     -0.611914    32A     -0.583261    33A     -0.576514
      34A     -0.555858    35A     -0.542136    36A     -0.535138
      37A     -0.524749    38A     -0.506766    39A     -0.501174
      40A     -0.465309    41A     -0.444700    42A     -0.427524
      43A     -0.349418    44A     -0.291511

  @DF-RHF Final Energy:  -551.60170159755057

   => Energetics <=

    Nuclear Repulsion Energy =            687.9865561221619146
    One-Electron Energy =               -2116.5422356152071188
    Two-Electron Energy =                 876.9539778954947451
    Total Energy =                       -551.6017015975505728
  Basis Set: (AUG-CC-PVTZ AUX)
    Blend: AUG-CC-PVTZ-RI
    Molecular point group: c1

    Geometry (in Angstrom), charge = 0, multiplicity = 1:

       Center              X                  Y                   Z               Mass
    ------------   -----------------  -----------------  -----------------  -----------------
         O            2.467661328551     0.523667862243    -0.050935447965    15.994914619570
         O            1.560069328551    -1.538856137757     0.092820552035    15.994914619570
         N           -1.133771671449    -1.709026137757    -0.147831447965    14.003074004430
         C           -1.111213671449    -0.339761137757    -0.046892447965    12.000000000000
         C            0.112112328551     0.390771862243    -0.024760447965    12.000000000000
         C           -2.314918671449     0.399691862243    -0.043610447965    12.000000000000
         C            0.090488328551     1.794146862243     0.039138552035    12.000000000000
         C           -2.309998671449     1.786931862243     0.015153552035    12.000000000000
         C           -1.106141671449     2.497218862243     0.043929552035    12.000000000000
         C            1.406688328551    -0.318499137757     0.013382552035    12.000000000000
         C           -2.340377671449    -2.475398137757     0.076767552035    12.000000000000
         C            3.747213328551    -0.136740137757    -0.003486447965    12.000000000000
         H           -3.264748671449    -0.124572137757    -0.065867447965     1.007825032230
         H            1.036111328551     2.325240862243     0.067200552035     1.007825032230
         H           -0.244637671449    -2.158641137757     0.041313552035     1.007825032230
         H           -3.258835671449     2.319584862243     0.022287552035     1.007825032230
         H           -1.104072671449     3.582434862243     0.093071552035     1.007825032230
         H           -2.812551671449    -2.255282137757     1.044441552035     1.007825032230
         H           -2.075875671449    -3.533833137757     0.051721552035     1.007825032230
         H           -3.075863671449    -2.295195137757    -0.714135447965     1.007825032230
         H            3.854021328551    -0.821506137757    -0.845980447965     1.007825032230
         H            3.855835328551    -0.693425137757     0.928479552035     1.007825032230
         H            4.477919328551     0.667687862243    -0.062234447965     1.007825032230

  Basis Set: AUG-CC-PVTZ
    Blend: AUG-CC-PVTZ
  Basis Set: (AUG-CC-PVTZ AUX)
    Blend: AUG-CC-PVTZ-JKFIT
	 Reference Energy          =    -551.6017015975505728 [Eh]
	 Singles Energy            =      -0.0000000000000000 [Eh]
	 Same-Spin Energy          =      -0.5789091035453933 [Eh]
	 Opposite-Spin Energy      =      -1.7998438168972184 [Eh]
	 Correlation Energy        =      -2.3787529204426114 [Eh]
	 Total Energy              =    -553.9804545179931665 [Eh]

	 ================> DF-SCS-MP2 Energies <==================
	-----------------------------------------------------------
	 SCS Same-Spin Scale       =       0.3333333333333333 [-]
	 SCS Opposite-Spin Scale   =       1.2000000000000000 [-]
	 SCS Same-Spin Energy      =      -0.1929697011817977 [Eh]
	 SCS Opposite-Spin Energy  =      -2.1598125802766619 [Eh]
	 SCS Correlation Energy    =      -2.3527822814584596 [Eh]
	 SCS Total Energy          =    -553.9544838790089898 [Eh]
	-----------------------------------------------------------

  Dipole Moment: [D]
     X:    -0.1713      Y:    -0.0941      Z:     0.3269     Total:     0.3808

*** Psi4 exiting successfully. Buy a developer a beer!
