                               Psi4 1.3.2 release

  ==> Input File <==

--------------------------------------------------------------------------
#psi4
#
memory 32 gb

molecule  {
0 1
  O        2.4822540     0.5405090    -0.0540980
  O        1.5746620    -1.5220150     0.0896580
  N       -1.1191790    -1.6921850    -0.1509940
  C       -1.0966210    -0.3229200    -0.0500550
  C        0.1267050     0.4076130    -0.0279230
  C       -2.3003260     0.4165330    -0.0467730
  C        0.1050810     1.8109880     0.0359760
  C       -2.2954060     1.8037730     0.0119910
  C       -1.0915490     2.5140600     0.0407670
  C        1.5777535    -0.1774550     0.0007344
  C       -2.3257850    -2.4585570     0.0736050
  C        3.7618060    -0.1198990    -0.0066490
  H       -3.2501560    -0.1077310    -0.0690300
  H        1.0507040     2.3420820     0.0640380
  H       -0.2300450    -2.1418000     0.0381510
  H       -3.2442430     2.3364260     0.0191250
  H       -1.0894800     3.5992760     0.0899090
  H       -2.7979590    -2.2384410     1.0412790
  H       -2.0612830    -3.5169920     0.0485590
  H       -3.0612710    -2.2783540    -0.7172980
  H        3.8686140    -0.8046650    -0.8491430
  H        3.8704280    -0.6765840     0.9253170
  H        4.4925120     0.6845290    -0.0653970
units angstrom
no_reorient  #important for SAPT in psi4, default
symmetry c1  #important for SAPT in psi4, default
}

set PROPERTIES_ORIGIN ["COM"]
properties('MP2/aug-cc-pvtz', properties = ['dipole'])
--------------------------------------------------------------------------

    Molecular point group: c1
  Charge       = 0
  Multiplicity = 1
  Basis Set: AUG-CC-PVTZ
    Blend: AUG-CC-PVTZ
  Basis Set: (AUG-CC-PVTZ AUX)
    Blend: AUG-CC-PVTZ-JKFIT

    Orbital Energies [Eh]
    ---------------------

    Doubly Occupied:

       1A    -20.656783     2A    -20.509828     3A    -15.549991
       4A    -11.388541     5A    -11.314930     6A    -11.290562
       7A    -11.249649     8A    -11.242556     9A    -11.241010
      10A    -11.239196    11A    -11.221405    12A    -11.216872
      13A     -1.572587    14A     -1.285829    15A     -1.231568
      16A     -1.133529    17A     -1.055639    18A     -1.005835
      19A     -1.000520    20A     -0.916018    21A     -0.847899
      22A     -0.822240    23A     -0.804089    24A     -0.746266
      25A     -0.732251    26A     -0.699591    27A     -0.679864
      28A     -0.658233    29A     -0.623614    30A     -0.605146
      31A     -0.602941    32A     -0.586404    33A     -0.574952
      34A     -0.570672    35A     -0.541080    36A     -0.524820
      37A     -0.508768    38A     -0.502507    39A     -0.495124
      40A     -0.441262    41A     -0.418073    42A     -0.415704
      43A     -0.341201    44A     -0.281324

  @DF-RHF Final Energy:  -551.54235838048714

   => Energetics <=

    Nuclear Repulsion Energy =            688.0058949852605110
    One-Electron Energy =               -2116.4027627575133010
    Two-Electron Energy =                 876.8545093917656459
    Total Energy =                       -551.5423583804871441
  Basis Set: (AUG-CC-PVTZ AUX)
    Blend: AUG-CC-PVTZ-RI
    Molecular point group: c1

    Geometry (in Angstrom), charge = 0, multiplicity = 1:

       Center              X                  Y                   Z               Mass
    ------------   -----------------  -----------------  -----------------  -----------------
         O            2.456286954806     0.514639238413    -0.050245916197    15.994914619570
         O            1.548694954806    -1.547884761587     0.093510083803    15.994914619570
         N           -1.145146045194    -1.718054761587    -0.147141916197    14.003074004430
         C           -1.122588045194    -0.348789761587    -0.046202916197    12.000000000000
         C            0.100737954806     0.381743238413    -0.024070916197    12.000000000000
         C           -2.326293045194     0.390663238413    -0.042920916197    12.000000000000
         C            0.079113954806     1.785118238413     0.039828083803    12.000000000000
         C           -2.321373045194     1.777903238413     0.015843083803    12.000000000000
         C           -1.117516045194     2.488190238413     0.044619083803    12.000000000000
         C            1.551786454806    -0.203324761587     0.004586483803    12.000000000000
         C           -2.351752045194    -2.484426761587     0.077457083803    12.000000000000
         C            3.735838954806    -0.145768761587    -0.002796916197    12.000000000000
         H           -3.276123045194    -0.133600761587    -0.065177916197     1.007825032230
         H            1.024736954806     2.316212238413     0.067890083803     1.007825032230
         H           -0.256012045194    -2.167669761587     0.042003083803     1.007825032230
         H           -3.270210045194     2.310556238413     0.022977083803     1.007825032230
         H           -1.115447045194     3.573406238413     0.093761083803     1.007825032230
         H           -2.823926045194    -2.264310761587     1.045131083803     1.007825032230
         H           -2.087250045194    -3.542861761587     0.052411083803     1.007825032230
         H           -3.087238045194    -2.304223761587    -0.713445916197     1.007825032230
         H            3.842646954806    -0.830534761587    -0.845290916197     1.007825032230
         H            3.844460954806    -0.702453761587     0.929169083803     1.007825032230
         H            4.466544954806     0.658659238413    -0.061544916197     1.007825032230

  Basis Set: AUG-CC-PVTZ
    Blend: AUG-CC-PVTZ
  Basis Set: (AUG-CC-PVTZ AUX)
    Blend: AUG-CC-PVTZ-JKFIT
	 Reference Energy          =    -551.5423583804871441 [Eh]
	 Singles Energy            =      -0.0000000000000000 [Eh]
	 Same-Spin Energy          =      -0.5798359975837180 [Eh]
	 Opposite-Spin Energy      =      -1.8005671942633996 [Eh]
	 Correlation Energy        =      -2.3804031918471176 [Eh]
	 Total Energy              =    -553.9227615723342524 [Eh]

	 ================> DF-SCS-MP2 Energies <==================
	-----------------------------------------------------------
	 SCS Same-Spin Scale       =       0.3333333333333333 [-]
	 SCS Opposite-Spin Scale   =       1.2000000000000000 [-]
	 SCS Same-Spin Energy      =      -0.1932786658612393 [Eh]
	 SCS Opposite-Spin Energy  =      -2.1606806331160793 [Eh]
	 SCS Correlation Energy    =      -2.3539592989773186 [Eh]
	 SCS Total Energy          =    -553.8963176794644596 [Eh]
	-----------------------------------------------------------

  Dipole Moment: [D]
     X:     1.7285      Y:     0.6297      Z:     0.2406     Total:     1.8553

*** Psi4 exiting successfully. Buy a developer a beer!
