                               Psi4 1.3.2 release

  ==> Input File <==

--------------------------------------------------------------------------
#psi4
#
memory 32 gb

molecule  {
0 1
  O        2.4822540     0.5405090    -0.0540980
  O        1.5746620    -1.5220150     0.0896580
  N       -1.1191790    -1.6921850    -0.1509940
  C       -1.0966210    -0.3229200    -0.0500550
  C        0.1267050     0.4076130    -0.0279230
  C       -2.3003260     0.4165330    -0.0467730
  C        0.1050810     1.8109880     0.0359760
  C       -2.2954060     1.8037730     0.0119910
  C       -1.0915490     2.5140600     0.0407670
  C        1.4995173    -0.2395565     0.0054772
  C       -2.3257850    -2.4585570     0.0736050
  C        3.7618060    -0.1198990    -0.0066490
  H       -3.2501560    -0.1077310    -0.0690300
  H        1.0507040     2.3420820     0.0640380
  H       -0.2300450    -2.1418000     0.0381510
  H       -3.2442430     2.3364260     0.0191250
  H       -1.0894800     3.5992760     0.0899090
  H       -2.7979590    -2.2384410     1.0412790
  H       -2.0612830    -3.5169920     0.0485590
  H       -3.0612710    -2.2783540    -0.7172980
  H        3.8686140    -0.8046650    -0.8491430
  H        3.8704280    -0.6765840     0.9253170
  H        4.4925120     0.6845290    -0.0653970
units angstrom
no_reorient  #important for SAPT in psi4, default
symmetry c1  #important for SAPT in psi4, default
}

set PROPERTIES_ORIGIN ["COM"]
properties('MP2/aug-cc-pvtz', properties = ['dipole'])
--------------------------------------------------------------------------

    Molecular point group: c1
  Charge       = 0
  Multiplicity = 1
  Basis Set: AUG-CC-PVTZ
    Blend: AUG-CC-PVTZ
  Basis Set: (AUG-CC-PVTZ AUX)
    Blend: AUG-CC-PVTZ-JKFIT

    Orbital Energies [Eh]
    ---------------------

    Doubly Occupied:

       1A    -20.629856     2A    -20.526652     3A    -15.556622
       4A    -11.387920     5A    -11.299107     6A    -11.294556
       7A    -11.254051     8A    -11.247191     9A    -11.245374
      10A    -11.239431    11A    -11.224521    12A    -11.220122
      13A     -1.501752    14A     -1.323209    15A     -1.238814
      16A     -1.137744    17A     -1.044893    18A     -1.005338
      19A     -0.990148    20A     -0.920087    21A     -0.855459
      22A     -0.806252    23A     -0.799131    24A     -0.737159
      25A     -0.696022    26A     -0.691751    27A     -0.681262
      28A     -0.660369    29A     -0.628387    30A     -0.610659
      31A     -0.607494    32A     -0.581199    33A     -0.573955
      34A     -0.556685    35A     -0.541318    36A     -0.533714
      37A     -0.521211    38A     -0.507824    39A     -0.498148
      40A     -0.458362    41A     -0.434340    42A     -0.422824
      43A     -0.345312    44A     -0.286426

  @DF-RHF Final Energy:  -551.58864998776289

   => Energetics <=

    Nuclear Repulsion Energy =            687.8609419314667548
    One-Electron Energy =               -2116.2538887933887963
    Two-Electron Energy =                 876.8042968741592631
    Total Energy =                       -551.5886499877628921
  Basis Set: (AUG-CC-PVTZ AUX)
    Blend: AUG-CC-PVTZ-RI
    Molecular point group: c1

    Geometry (in Angstrom), charge = 0, multiplicity = 1:

       Center              X                  Y                   Z               Mass
    ------------   -----------------  -----------------  -----------------  -----------------
         O            2.461974138044     0.519153550328    -0.050590682081    15.994914619570
         O            1.554382138044    -1.543370449672     0.093165317919    15.994914619570
         N           -1.139458861956    -1.713540449672    -0.147486682081    14.003074004430
         C           -1.116900861956    -0.344275449672    -0.046547682081    12.000000000000
         C            0.106425138044     0.386257550328    -0.024415682081    12.000000000000
         C           -2.320605861956     0.395177550328    -0.043265682081    12.000000000000
         C            0.084801138044     1.789632550328     0.039483317919    12.000000000000
         C           -2.315685861956     1.782417550328     0.015498317919    12.000000000000
         C           -1.111828861956     2.492704550328     0.044274317919    12.000000000000
         C            1.479237438044    -0.260911949672     0.008984517919    12.000000000000
         C           -2.346064861956    -2.479912449672     0.077112317919    12.000000000000
         C            3.741526138044    -0.141254449672    -0.003141682081    12.000000000000
         H           -3.270435861956    -0.129086449672    -0.065522682081     1.007825032230
         H            1.030424138044     2.320726550328     0.067545317919     1.007825032230
         H           -0.250324861956    -2.163155449672     0.041658317919     1.007825032230
         H           -3.264522861956     2.315070550328     0.022632317919     1.007825032230
         H           -1.109759861956     3.577920550328     0.093416317919     1.007825032230
         H           -2.818238861956    -2.259796449672     1.044786317919     1.007825032230
         H           -2.081562861956    -3.538347449672     0.052066317919     1.007825032230
         H           -3.081550861956    -2.299709449672    -0.713790682081     1.007825032230
         H            3.848334138044    -0.826020449672    -0.845635682081     1.007825032230
         H            3.850148138044    -0.697939449672     0.928824317919     1.007825032230
         H            4.472232138044     0.663173550328    -0.061889682081     1.007825032230

  Basis Set: AUG-CC-PVTZ
    Blend: AUG-CC-PVTZ
  Basis Set: (AUG-CC-PVTZ AUX)
    Blend: AUG-CC-PVTZ-JKFIT
	 Reference Energy          =    -551.5886499877628921 [Eh]
	 Singles Energy            =      -0.0000000000000000 [Eh]
	 Same-Spin Energy          =      -0.5792471020015377 [Eh]
	 Opposite-Spin Energy      =      -1.7999436783483327 [Eh]
	 Correlation Energy        =      -2.3791907803498704 [Eh]
	 Total Energy              =    -553.9678407681127510 [Eh]

	 ================> DF-SCS-MP2 Energies <==================
	-----------------------------------------------------------
	 SCS Same-Spin Scale       =       0.3333333333333333 [-]
	 SCS Opposite-Spin Scale   =       1.2000000000000000 [-]
	 SCS Same-Spin Energy      =      -0.1930823673338459 [Eh]
	 SCS Opposite-Spin Energy  =      -2.1599324140179990 [Eh]
	 SCS Correlation Energy    =      -2.3530147813518449 [Eh]
	 SCS Total Energy          =    -553.9416647691147091 [Eh]
	-----------------------------------------------------------

  Dipole Moment: [D]
     X:     0.7865      Y:     0.2462      Z:     0.2851     Total:     0.8720

*** Psi4 exiting successfully. Buy a developer a beer!
