                               Psi4 1.3.2 release

  ==> Input File <==

--------------------------------------------------------------------------
#psi4
#
memory 32 gb

molecule  {
0 1
  O        2.4822540     0.5405090    -0.0540980
  O        1.5746620    -1.5220150     0.0896580
  N       -1.1191790    -1.6921850    -0.1509940
  C       -1.0966210    -0.3229200    -0.0500550
  C        0.1267050     0.4076130    -0.0279230
  C       -2.3003260     0.4165330    -0.0467730
  C        0.1050810     1.8109880     0.0359760
  C       -2.2954060     1.8037730     0.0119910
  C       -1.0915490     2.5140600     0.0407670
  C        1.4212810    -0.3016580     0.0102200
  C       -2.3257850    -2.4585570     0.0736050
  C        3.8506200    -0.1657381    -0.0033556
  H       -3.2501560    -0.1077310    -0.0690300
  H        1.0507040     2.3420820     0.0640380
  H       -0.2300450    -2.1418000     0.0381510
  H       -3.2442430     2.3364260     0.0191250
  H       -1.0894800     3.5992760     0.0899090
  H       -2.7979590    -2.2384410     1.0412790
  H       -2.0612830    -3.5169920     0.0485590
  H       -3.0612710    -2.2783540    -0.7172980
  H        3.8686140    -0.8046650    -0.8491430
  H        3.8704280    -0.6765840     0.9253170
  H        4.4925120     0.6845290    -0.0653970
units angstrom
no_reorient  #important for SAPT in psi4, default
symmetry c1  #important for SAPT in psi4, default
}

set PROPERTIES_ORIGIN ["COM"]
properties('MP2/aug-cc-pvtz', properties = ['dipole'])
--------------------------------------------------------------------------

    Molecular point group: c1
  Charge       = 0
  Multiplicity = 1
  Basis Set: AUG-CC-PVTZ
    Blend: AUG-CC-PVTZ
  Basis Set: (AUG-CC-PVTZ AUX)
    Blend: AUG-CC-PVTZ-JKFIT

    Orbital Energies [Eh]
    ---------------------

    Doubly Occupied:

       1A    -20.593124     2A    -20.536712     3A    -15.560787
       4A    -11.380103     5A    -11.295676     6A    -11.288994
       7A    -11.256776     8A    -11.249423     9A    -11.247154
      10A    -11.236595    11A    -11.225329    12A    -11.221097
      13A     -1.435226    14A     -1.335731    15A     -1.243267
      16A     -1.139190    17A     -1.041502    18A     -1.007289
      19A     -0.971256    20A     -0.922538    21A     -0.863937
      22A     -0.806557    23A     -0.776918    24A     -0.721240
      25A     -0.697368    26A     -0.663623    27A     -0.662889
      28A     -0.657959    29A     -0.623644    30A     -0.612723
      31A     -0.609920    32A     -0.583231    33A     -0.579288
      34A     -0.568104    35A     -0.540306    36A     -0.534169
      37A     -0.519350    38A     -0.506900    39A     -0.499450
      40A     -0.463732    41A     -0.439678    42A     -0.425282
      43A     -0.346857    44A     -0.289212

  @DF-RHF Final Energy:  -551.59309508028446

   => Energetics <=

    Nuclear Repulsion Energy =            685.9808646301530644
    One-Electron Energy =               -2112.7877101458352627
    Two-Electron Energy =                 875.2137504353977420
    Total Energy =                       -551.5930950802844563
  Basis Set: (AUG-CC-PVTZ AUX)
    Blend: AUG-CC-PVTZ-RI
    Molecular point group: c1

    Geometry (in Angstrom), charge = 0, multiplicity = 1:

       Center              X                  Y                   Z               Mass
    ------------   -----------------  -----------------  -----------------  -----------------
         O            2.461205218820     0.527000020006    -0.051174853372    15.994914619570
         O            1.553613218820    -1.535523979994     0.092581146628    15.994914619570
         N           -1.140227781180    -1.705693979994    -0.148070853372    14.003074004430
         C           -1.117669781180    -0.336428979994    -0.047131853372    12.000000000000
         C            0.105656218820     0.394104020006    -0.024999853372    12.000000000000
         C           -2.321374781180     0.403024020006    -0.043849853372    12.000000000000
         C            0.084032218820     1.797479020006     0.038899146628    12.000000000000
         C           -2.316454781180     1.790264020006     0.014914146628    12.000000000000
         C           -1.112597781180     2.500551020006     0.043690146628    12.000000000000
         C            1.400232218820    -0.315166979994     0.013143146628    12.000000000000
         C           -2.346833781180    -2.472065979994     0.076528146628    12.000000000000
         C            3.829571218820    -0.179247079994    -0.000432453372    12.000000000000
         H           -3.271204781180    -0.121239979994    -0.066106853372     1.007825032230
         H            1.029655218820     2.328573020006     0.066961146628     1.007825032230
         H           -0.251093781180    -2.155308979994     0.041074146628     1.007825032230
         H           -3.265291781180     2.322917020006     0.022048146628     1.007825032230
         H           -1.110528781180     3.585767020006     0.092832146628     1.007825032230
         H           -2.819007781180    -2.251949979994     1.044202146628     1.007825032230
         H           -2.082331781180    -3.530500979994     0.051482146628     1.007825032230
         H           -3.082319781180    -2.291862979994    -0.714374853372     1.007825032230
         H            3.847565218820    -0.818173979994    -0.846219853372     1.007825032230
         H            3.849379218820    -0.690092979994     0.928240146628     1.007825032230
         H            4.471463218820     0.671020020006    -0.062473853372     1.007825032230

  Basis Set: AUG-CC-PVTZ
    Blend: AUG-CC-PVTZ
  Basis Set: (AUG-CC-PVTZ AUX)
    Blend: AUG-CC-PVTZ-JKFIT
	 Reference Energy          =    -551.5930950802844563 [Eh]
	 Singles Energy            =      -0.0000000000000000 [Eh]
	 Same-Spin Energy          =      -0.5790840789000991 [Eh]
	 Opposite-Spin Energy      =      -1.8012494116889526 [Eh]
	 Correlation Energy        =      -2.3803334905890514 [Eh]
	 Total Energy              =    -553.9734285708734660 [Eh]

	 ================> DF-SCS-MP2 Energies <==================
	-----------------------------------------------------------
	 SCS Same-Spin Scale       =       0.3333333333333333 [-]
	 SCS Opposite-Spin Scale   =       1.2000000000000000 [-]
	 SCS Same-Spin Energy      =      -0.1930280263000330 [Eh]
	 SCS Opposite-Spin Energy  =      -2.1614992940267430 [Eh]
	 SCS Correlation Energy    =      -2.3545273203267758 [Eh]
	 SCS Total Energy          =    -553.9476224006111806 [Eh]
	-----------------------------------------------------------

  Dipole Moment: [D]
     X:     0.2589      Y:    -0.1689      Z:     0.3313     Total:     0.4531

*** Psi4 exiting successfully. Buy a developer a beer!
