                               Psi4 1.3.2 release

  ==> Input File <==

--------------------------------------------------------------------------
#psi4
#
memory 32 gb

molecule  {
0 1
  O        2.4968320     0.5218981    -0.0529551
  O        1.5746620    -1.5220150     0.0896580
  N       -1.1191790    -1.6921850    -0.1509940
  C       -1.0966210    -0.3229200    -0.0500550
  C        0.1267050     0.4076130    -0.0279230
  C       -2.3003260     0.4165330    -0.0467730
  C        0.1050810     1.8109880     0.0359760
  C       -2.2954060     1.8037730     0.0119910
  C       -1.0915490     2.5140600     0.0407670
  C        1.4212810    -0.3016580     0.0102200
  C       -2.3257850    -2.4585570     0.0736050
  C        3.7618060    -0.1198990    -0.0066490
  H       -3.2501560    -0.1077310    -0.0690300
  H        1.0507040     2.3420820     0.0640380
  H       -0.2300450    -2.1418000     0.0381510
  H       -3.2442430     2.3364260     0.0191250
  H       -1.0894800     3.5992760     0.0899090
  H       -2.7979590    -2.2384410     1.0412790
  H       -2.0612830    -3.5169920     0.0485590
  H       -3.0612710    -2.2783540    -0.7172980
  H        3.8686140    -0.8046650    -0.8491430
  H        3.8704280    -0.6765840     0.9253170
  H        4.4925120     0.6845290    -0.0653970
units angstrom
no_reorient  #important for SAPT in psi4, default
symmetry c1  #important for SAPT in psi4, default
}

set PROPERTIES_ORIGIN ["COM"]
properties('MP2/aug-cc-pvtz', properties = ['dipole'])
--------------------------------------------------------------------------

    Molecular point group: c1
  Charge       = 0
  Multiplicity = 1
  Basis Set: AUG-CC-PVTZ
    Blend: AUG-CC-PVTZ
  Basis Set: (AUG-CC-PVTZ AUX)
    Blend: AUG-CC-PVTZ-JKFIT

    Orbital Energies [Eh]
    ---------------------

    Doubly Occupied:

       1A    -20.601355     2A    -20.541251     3A    -15.563623
       4A    -11.386148     5A    -11.299275     6A    -11.281727
       7A    -11.258719     8A    -11.252464     9A    -11.250951
      10A    -11.241096    11A    -11.228243    12A    -11.224089
      13A     -1.457367    14A     -1.350882    15A     -1.246124
      16A     -1.142919    17A     -1.047290    18A     -1.010305
      19A     -0.970036    20A     -0.923565    21A     -0.864737
      22A     -0.809709    23A     -0.784691    24A     -0.730221
      25A     -0.700623    26A     -0.674312    27A     -0.671233
      28A     -0.661813    29A     -0.630891    30A     -0.617098
      31A     -0.612412    32A     -0.583926    33A     -0.579429
      34A     -0.555184    35A     -0.542613    36A     -0.534680
      37A     -0.522130    38A     -0.506891    39A     -0.501659
      40A     -0.463122    41A     -0.444962    42A     -0.428021
      43A     -0.350217    44A     -0.292139

  @DF-RHF Final Energy:  -551.60241025111907

   => Energetics <=

    Nuclear Repulsion Energy =            688.1265148230356772
    One-Electron Energy =               -2116.7775646516233792
    Two-Electron Energy =                 877.0486395774686343
    Total Energy =                       -551.6024102511190677
  Basis Set: (AUG-CC-PVTZ AUX)
    Blend: AUG-CC-PVTZ-RI
    Molecular point group: c1

    Geometry (in Angstrom), charge = 0, multiplicity = 1:

       Center              X                  Y                   Z               Mass
    ------------   -----------------  -----------------  -----------------  -----------------
         O            2.480826829714     0.506860218836    -0.049903286401    15.994914619570
         O            1.558656829714    -1.537052881164     0.092709813599    15.994914619570
         N           -1.135184170286    -1.707222881164    -0.147942186401    14.003074004430
         C           -1.112626170286    -0.337957881164    -0.047003186401    12.000000000000
         C            0.110699829714     0.392575118836    -0.024871186401    12.000000000000
         C           -2.316331170286     0.401495118836    -0.043721186401    12.000000000000
         C            0.089075829714     1.795950118836     0.039027813599    12.000000000000
         C           -2.311411170286     1.788735118836     0.015042813599    12.000000000000
         C           -1.107554170286     2.499022118836     0.043818813599    12.000000000000
         C            1.405275829714    -0.316695881164     0.013271813599    12.000000000000
         C           -2.341790170286    -2.473594881164     0.076656813599    12.000000000000
         C            3.745800829714    -0.134936881164    -0.003597186401    12.000000000000
         H           -3.266161170286    -0.122768881164    -0.065978186401     1.007825032230
         H            1.034698829714     2.327044118836     0.067089813599     1.007825032230
         H           -0.246050170286    -2.156837881164     0.041202813599     1.007825032230
         H           -3.260248170286     2.321388118836     0.022176813599     1.007825032230
         H           -1.105485170286     3.584238118836     0.092960813599     1.007825032230
         H           -2.813964170286    -2.253478881164     1.044330813599     1.007825032230
         H           -2.077288170286    -3.532029881164     0.051610813599     1.007825032230
         H           -3.077276170286    -2.293391881164    -0.714246186401     1.007825032230
         H            3.852608829714    -0.819702881164    -0.846091186401     1.007825032230
         H            3.854422829714    -0.691621881164     0.928368813599     1.007825032230
         H            4.476506829714     0.669491118836    -0.062345186401     1.007825032230

  Basis Set: AUG-CC-PVTZ
    Blend: AUG-CC-PVTZ
  Basis Set: (AUG-CC-PVTZ AUX)
    Blend: AUG-CC-PVTZ-JKFIT
	 Reference Energy          =    -551.6024102511190677 [Eh]
	 Singles Energy            =      -0.0000000000000000 [Eh]
	 Same-Spin Energy          =      -0.5787050788726809 [Eh]
	 Opposite-Spin Energy      =      -1.7991587664917623 [Eh]
	 Correlation Energy        =      -2.3778638453644430 [Eh]
	 Total Energy              =    -553.9802740964835266 [Eh]

	 ================> DF-SCS-MP2 Energies <==================
	-----------------------------------------------------------
	 SCS Same-Spin Scale       =       0.3333333333333333 [-]
	 SCS Opposite-Spin Scale   =       1.2000000000000000 [-]
	 SCS Same-Spin Energy      =      -0.1929016929575603 [Eh]
	 SCS Opposite-Spin Energy  =      -2.1589905197901147 [Eh]
	 SCS Correlation Energy    =      -2.3518922127476749 [Eh]
	 SCS Total Energy          =    -553.9543024638667248 [Eh]
	-----------------------------------------------------------

  Dipole Moment: [D]
     X:    -0.2731      Y:    -0.0503      Z:     0.3246     Total:     0.4271

*** Psi4 exiting successfully. Buy a developer a beer!
