                               Psi4 1.3.2 release

  ==> Input File <==

--------------------------------------------------------------------------
#psi4
#
memory 32 gb

molecule  {
0 1
  O        2.4822540     0.5405090    -0.0540980
  O        1.5746620    -1.5220150     0.0896580
  N       -1.1670652    -1.6906580    -0.1496267
  C       -1.0966210    -0.3229200    -0.0500550
  C        0.1267050     0.4076130    -0.0279230
  C       -2.3003260     0.4165330    -0.0467730
  C        0.1050810     1.8109880     0.0359760
  C       -2.2954060     1.8037730     0.0119910
  C       -1.0915490     2.5140600     0.0407670
  C        1.4212810    -0.3016580     0.0102200
  C       -2.3257850    -2.4585570     0.0736050
  C        3.7618060    -0.1198990    -0.0066490
  H       -3.2501560    -0.1077310    -0.0690300
  H        1.0507040     2.3420820     0.0640380
  H       -0.2300450    -2.1418000     0.0381510
  H       -3.2442430     2.3364260     0.0191250
  H       -1.0894800     3.5992760     0.0899090
  H       -2.7979590    -2.2384410     1.0412790
  H       -2.0612830    -3.5169920     0.0485590
  H       -3.0612710    -2.2783540    -0.7172980
  H        3.8686140    -0.8046650    -0.8491430
  H        3.8704280    -0.6765840     0.9253170
  H        4.4925120     0.6845290    -0.0653970
units angstrom
no_reorient  #important for SAPT in psi4, default
symmetry c1  #important for SAPT in psi4, default
}

set PROPERTIES_ORIGIN ["COM"]
properties('MP2/aug-cc-pvtz', properties = ['dipole'])
--------------------------------------------------------------------------

    Molecular point group: c1
  Charge       = 0
  Multiplicity = 1
  Basis Set: AUG-CC-PVTZ
    Blend: AUG-CC-PVTZ
  Basis Set: (AUG-CC-PVTZ AUX)
    Blend: AUG-CC-PVTZ-JKFIT

    Orbital Energies [Eh]
    ---------------------

    Doubly Occupied:

       1A    -20.603500     2A    -20.543125     3A    -15.564319
       4A    -11.386612     5A    -11.298950     6A    -11.284837
       7A    -11.255337     8A    -11.251428     9A    -11.250561
      10A    -11.241085    11A    -11.226746    12A    -11.223563
      13A     -1.454893    14A     -1.350903    15A     -1.249489
      16A     -1.143571    17A     -1.046549    18A     -1.012588
      19A     -0.969093    20A     -0.921021    21A     -0.864392
      22A     -0.806486    23A     -0.784538    24A     -0.728717
      25A     -0.696696    26A     -0.673542    27A     -0.669349
      28A     -0.664685    29A     -0.631112    30A     -0.616756
      31A     -0.615905    32A     -0.587516    33A     -0.576946
      34A     -0.556531    35A     -0.538593    36A     -0.534637
      37A     -0.523256    38A     -0.506335    39A     -0.502664
      40A     -0.466128    41A     -0.443698    42A     -0.424913
      43A     -0.349753    44A     -0.290651

  @DF-RHF Final Energy:  -551.59744093295274

   => Energetics <=

    Nuclear Repulsion Energy =            687.9701401226661801
    One-Electron Energy =               -2116.4712175396912244
    Two-Electron Energy =                 876.9036364840723081
    Total Energy =                       -551.5974409329527361
  Basis Set: (AUG-CC-PVTZ AUX)
    Blend: AUG-CC-PVTZ-RI
    Molecular point group: c1

    Geometry (in Angstrom), charge = 0, multiplicity = 1:

       Center              X                  Y                   Z               Mass
    ------------   -----------------  -----------------  -----------------  -----------------
         O            2.471723347883     0.523538332159    -0.051051431255    15.994914619570
         O            1.564131347883    -1.538985667841     0.092704568745    15.994914619570
         N           -1.177595852117    -1.707628667841    -0.146580131255    14.003074004430
         C           -1.107151652117    -0.339890667841    -0.047008431255    12.000000000000
         C            0.116174347883     0.390642332159    -0.024876431255    12.000000000000
         C           -2.310856652117     0.399562332159    -0.043726431255    12.000000000000
         C            0.094550347883     1.794017332159     0.039022568745    12.000000000000
         C           -2.305936652117     1.786802332159     0.015037568745    12.000000000000
         C           -1.102079652117     2.497089332159     0.043813568745    12.000000000000
         C            1.410750347883    -0.318628667841     0.013266568745    12.000000000000
         C           -2.336315652117    -2.475527667841     0.076651568745    12.000000000000
         C            3.751275347883    -0.136869667841    -0.003602431255    12.000000000000
         H           -3.260686652117    -0.124701667841    -0.065983431255     1.007825032230
         H            1.040173347883     2.325111332159     0.067084568745     1.007825032230
         H           -0.240575652117    -2.158770667841     0.041197568745     1.007825032230
         H           -3.254773652117     2.319455332159     0.022171568745     1.007825032230
         H           -1.100010652117     3.582305332159     0.092955568745     1.007825032230
         H           -2.808489652117    -2.255411667841     1.044325568745     1.007825032230
         H           -2.071813652117    -3.533962667841     0.051605568745     1.007825032230
         H           -3.071801652117    -2.295324667841    -0.714251431255     1.007825032230
         H            3.858083347883    -0.821635667841    -0.846096431255     1.007825032230
         H            3.859897347883    -0.693554667841     0.928363568745     1.007825032230
         H            4.481981347883     0.667558332159    -0.062350431255     1.007825032230

  Basis Set: AUG-CC-PVTZ
    Blend: AUG-CC-PVTZ
  Basis Set: (AUG-CC-PVTZ AUX)
    Blend: AUG-CC-PVTZ-JKFIT
	 Reference Energy          =    -551.5974409329527361 [Eh]
	 Singles Energy            =      -0.0000000000000000 [Eh]
	 Same-Spin Energy          =      -0.5794817224011930 [Eh]
	 Opposite-Spin Energy      =      -1.8004920429952280 [Eh]
	 Correlation Energy        =      -2.3799737653964210 [Eh]
	 Total Energy              =    -553.9774146983492074 [Eh]

	 ================> DF-SCS-MP2 Energies <==================
	-----------------------------------------------------------
	 SCS Same-Spin Scale       =       0.3333333333333333 [-]
	 SCS Opposite-Spin Scale   =       1.2000000000000000 [-]
	 SCS Same-Spin Energy      =      -0.1931605741337310 [Eh]
	 SCS Opposite-Spin Energy  =      -2.1605904515942735 [Eh]
	 SCS Correlation Energy    =      -2.3537510257280045 [Eh]
	 SCS Total Energy          =    -553.9511919586807380 [Eh]
	-----------------------------------------------------------

  Dipole Moment: [D]
     X:    -0.0610      Y:    -0.0826      Z:     0.3103     Total:     0.3268

*** Psi4 exiting successfully. Buy a developer a beer!
