                               Psi4 1.3.2 release

  ==> Input File <==

--------------------------------------------------------------------------
#psi4
#
memory 32 gb

molecule  {
0 1
  O        2.4822540     0.5405090    -0.0540980
  O        1.5746620    -1.5220150     0.0896580
  N       -1.1191790    -1.6921850    -0.1509940
  C       -1.0966210    -0.3229200    -0.0500550
  C        0.1267050     0.4076130    -0.0279230
  C       -2.3003260     0.4165330    -0.0467730
  C        0.1050810     1.8109880     0.0359760
  C       -2.2954060     1.8037730     0.0119910
  C       -1.0915490     2.5140600     0.0407670
  C        1.4514040    -0.3380730     0.0128936
  C       -2.3257850    -2.4585570     0.0736050
  C        3.7618060    -0.1198990    -0.0066490
  H       -3.2501560    -0.1077310    -0.0690300
  H        1.0507040     2.3420820     0.0640380
  H       -0.2300450    -2.1418000     0.0381510
  H       -3.2442430     2.3364260     0.0191250
  H       -1.0894800     3.5992760     0.0899090
  H       -2.7979590    -2.2384410     1.0412790
  H       -2.0612830    -3.5169920     0.0485590
  H       -3.0612710    -2.2783540    -0.7172980
  H        3.8686140    -0.8046650    -0.8491430
  H        3.8704280    -0.6765840     0.9253170
  H        4.4925120     0.6845290    -0.0653970
units angstrom
no_reorient  #important for SAPT in psi4, default
symmetry c1  #important for SAPT in psi4, default
}

set PROPERTIES_ORIGIN ["COM"]
properties('MP2/aug-cc-pvtz', properties = ['dipole'])
--------------------------------------------------------------------------

    Molecular point group: c1
  Charge       = 0
  Multiplicity = 1
  Basis Set: AUG-CC-PVTZ
    Blend: AUG-CC-PVTZ
  Basis Set: (AUG-CC-PVTZ AUX)
    Blend: AUG-CC-PVTZ-JKFIT

    Orbital Energies [Eh]
    ---------------------

    Doubly Occupied:

       1A    -20.604249     2A    -20.550523     3A    -15.561404
       4A    -11.385206     5A    -11.294060     6A    -11.285555
       7A    -11.257449     8A    -11.247643     9A    -11.246225
      10A    -11.239600    11A    -11.225003    12A    -11.220960
      13A     -1.466441    14A     -1.372867    15A     -1.243970
      16A     -1.137972    17A     -1.038598    18A     -1.006825
      19A     -0.967903    20A     -0.921348    21A     -0.857485
      22A     -0.806180    23A     -0.785807    24A     -0.728873
      25A     -0.699486    26A     -0.682980    27A     -0.673604
      28A     -0.660580    29A     -0.627600    30A     -0.615009
      31A     -0.610721    32A     -0.581896    33A     -0.575107
      34A     -0.562999    35A     -0.540738    36A     -0.536930
      37A     -0.528830    38A     -0.507260    39A     -0.499783
      40A     -0.473362    41A     -0.444433    42A     -0.426057
      43A     -0.345832    44A     -0.288778

  @DF-RHF Final Energy:  -551.60166252145689

   => Energetics <=

    Nuclear Repulsion Energy =            687.9755609004262169
    One-Electron Energy =               -2116.4861842774830620
    Two-Electron Energy =                 876.9089608555999575
    Total Energy =                       -551.6016625214568876
  Basis Set: (AUG-CC-PVTZ AUX)
    Blend: AUG-CC-PVTZ-RI
    Molecular point group: c1

    Geometry (in Angstrom), charge = 0, multiplicity = 1:

       Center              X                  Y                   Z               Mass
    ------------   -----------------  -----------------  -----------------  -----------------
         O            2.465471613040     0.526314958825    -0.051129798574    15.994914619570
         O            1.557879613040    -1.536209041175     0.092626201426    15.994914619570
         N           -1.135961386960    -1.706379041175    -0.148025798574    14.003074004430
         C           -1.113403386960    -0.337114041175    -0.047086798574    12.000000000000
         C            0.109922613040     0.393418958825    -0.024954798574    12.000000000000
         C           -2.317108386960     0.402338958825    -0.043804798574    12.000000000000
         C            0.088298613040     1.796793958825     0.038944201426    12.000000000000
         C           -2.312188386960     1.789578958825     0.014959201426    12.000000000000
         C           -1.108331386960     2.499865958825     0.043735201426    12.000000000000
         C            1.434621613040    -0.352267041175     0.015861801426    12.000000000000
         C           -2.342567386960    -2.472751041175     0.076573201426    12.000000000000
         C            3.745023613040    -0.134093041175    -0.003680798574    12.000000000000
         H           -3.266938386960    -0.121925041175    -0.066061798574     1.007825032230
         H            1.033921613040     2.327887958825     0.067006201426     1.007825032230
         H           -0.246827386960    -2.155994041175     0.041119201426     1.007825032230
         H           -3.261025386960     2.322231958825     0.022093201426     1.007825032230
         H           -1.106262386960     3.585081958825     0.092877201426     1.007825032230
         H           -2.814741386960    -2.252635041175     1.044247201426     1.007825032230
         H           -2.078065386960    -3.531186041175     0.051527201426     1.007825032230
         H           -3.078053386960    -2.292548041175    -0.714329798574     1.007825032230
         H            3.851831613040    -0.818859041175    -0.846174798574     1.007825032230
         H            3.853645613040    -0.690778041175     0.928285201426     1.007825032230
         H            4.475729613040     0.670334958825    -0.062428798574     1.007825032230

  Basis Set: AUG-CC-PVTZ
    Blend: AUG-CC-PVTZ
  Basis Set: (AUG-CC-PVTZ AUX)
    Blend: AUG-CC-PVTZ-JKFIT
	 Reference Energy          =    -551.6016625214568876 [Eh]
	 Singles Energy            =      -0.0000000000000000 [Eh]
	 Same-Spin Energy          =      -0.5780500429397615 [Eh]
	 Opposite-Spin Energy      =      -1.7982274592493674 [Eh]
	 Correlation Energy        =      -2.3762775021891289 [Eh]
	 Total Energy              =    -553.9779400236460560 [Eh]

	 ================> DF-SCS-MP2 Energies <==================
	-----------------------------------------------------------
	 SCS Same-Spin Scale       =       0.3333333333333333 [-]
	 SCS Opposite-Spin Scale   =       1.2000000000000000 [-]
	 SCS Same-Spin Energy      =      -0.1926833476465871 [Eh]
	 SCS Opposite-Spin Energy  =      -2.1578729510992409 [Eh]
	 SCS Correlation Energy    =      -2.3505562987458282 [Eh]
	 SCS Total Energy          =    -553.9522188202026882 [Eh]
	-----------------------------------------------------------

  Dipole Moment: [D]
     X:     0.1519      Y:    -0.3275      Z:     0.3430     Total:     0.4980

*** Psi4 exiting successfully. Buy a developer a beer!
