                               Psi4 1.4a3.dev225

  ==> Input File <==

--------------------------------------------------------------------------
#psi4
#
memory 32 gb

molecule  {
0 1
  O        2.4822540     0.5405090    -0.0540980
  O        1.5746620    -1.5220150     0.0896580
  N       -1.1191790    -1.6921850    -0.1509940
  C       -1.0966210    -0.3229200    -0.0500550
  C        0.1267050     0.4076130    -0.0279230
  C       -2.3003260     0.4165330    -0.0467730
  C        0.1050810     1.8109880     0.0359760
  C       -2.2954060     1.8037730     0.0119910
  C       -1.0915490     2.5140600     0.0407670
  C        1.3821629    -0.3327087     0.0125914
  C       -2.3257850    -2.4585570     0.0736050
  C        3.7618060    -0.1198990    -0.0066490
  H       -3.2501560    -0.1077310    -0.0690300
  H        1.0507040     2.3420820     0.0640380
  H       -0.2300450    -2.1418000     0.0381510
  H       -3.2442430     2.3364260     0.0191250
  H       -1.0894800     3.5992760     0.0899090
  H       -2.7979590    -2.2384410     1.0412790
  H       -2.0612830    -3.5169920     0.0485590
  H       -3.0612710    -2.2783540    -0.7172980
  H        3.8686140    -0.8046650    -0.8491430
  H        3.8704280    -0.6765840     0.9253170
  H        4.4925120     0.6845290    -0.0653970
units angstrom
no_reorient  #important for SAPT in psi4, default
symmetry c1  #important for SAPT in psi4, default
}

set PROPERTIES_ORIGIN ["COM"]
properties('MP2/aug-cc-pvtz', properties = ['dipole'])
--------------------------------------------------------------------------

    Molecular point group: c1
  Charge       = 0
  Multiplicity = 1
  Basis Set: AUG-CC-PVTZ
    Blend: AUG-CC-PVTZ
  Basis Set: (AUG-CC-PVTZ AUX)
    Blend: AUG-CC-PVTZ-JKFIT

    Orbital Energies [Eh]
    ---------------------

    Doubly Occupied:

       1A    -20.588868     2A    -20.548944     3A    -15.566398
       4A    -11.384463     5A    -11.300309     6A    -11.277148
       7A    -11.260558     8A    -11.254073     9A    -11.252400
      10A    -11.240284    11A    -11.229133    12A    -11.225123
      13A     -1.445600    14A     -1.351852    15A     -1.249022
      16A     -1.144348    17A     -1.048593    18A     -1.011785
      19A     -0.958508    20A     -0.923851    21A     -0.869007
      22A     -0.810687    23A     -0.780374    24A     -0.724160
      25A     -0.704340    26A     -0.674340    27A     -0.660585
      28A     -0.657807    29A     -0.628715    30A     -0.618445
      31A     -0.613902    32A     -0.587278    33A     -0.574565
      34A     -0.559685    35A     -0.544888    36A     -0.536681
      37A     -0.520430    38A     -0.508384    39A     -0.503060
      40A     -0.462179    41A     -0.445269    42A     -0.429744
      43A     -0.351524    44A     -0.294111

  @DF-RHF Final Energy:  -551.59891028528784

   => Energetics <=

    Nuclear Repulsion Energy =            688.1237308818807605
    One-Electron Energy =               -2116.8024404888210483
    Two-Electron Energy =                 877.0797993216523309
    Total Energy =                       -551.5989102852878432
  Basis Set: (AUG-CC-PVTZ AUX)
    Blend: AUG-CC-PVTZ-RI
    Molecular point group: c1

    Geometry (in Angstrom), charge = 0, multiplicity = 1:

       Center              X                  Y                   Z               Mass
    ------------   -----------------  -----------------  -----------------  -----------------
         O            2.470504920170     0.525925014566    -0.051107830907    15.994914619570
         O            1.562912920170    -1.536598985434     0.092648169093    15.994914619570
         N           -1.130928079830    -1.706768985434    -0.148003830907    14.003074004430
         C           -1.108370079830    -0.337503985434    -0.047064830907    12.000000000000
         C            0.114955920170     0.393029014566    -0.024932830907    12.000000000000
         C           -2.312075079830     0.401949014566    -0.043782830907    12.000000000000
         C            0.093331920170     1.796404014566     0.038966169093    12.000000000000
         C           -2.307155079830     1.789189014566     0.014981169093    12.000000000000
         C           -1.103298079830     2.499476014566     0.043757169093    12.000000000000
         C            1.370413820170    -0.347292685434     0.015581569093    12.000000000000
         C           -2.337534079830    -2.473140985434     0.076595169093    12.000000000000
         C            3.750056920170    -0.134482985434    -0.003658830907    12.000000000000
         H           -3.261905079830    -0.122314985434    -0.066039830907     1.007825032230
         H            1.038954920170     2.327498014566     0.067028169093     1.007825032230
         H           -0.241794079830    -2.156383985434     0.041141169093     1.007825032230
         H           -3.255992079830     2.321842014566     0.022115169093     1.007825032230
         H           -1.101229079830     3.584692014566     0.092899169093     1.007825032230
         H           -2.809708079830    -2.253024985434     1.044269169093     1.007825032230
         H           -2.073032079830    -3.531575985434     0.051549169093     1.007825032230
         H           -3.073020079830    -2.292937985434    -0.714307830907     1.007825032230
         H            3.856864920170    -0.819248985434    -0.846152830907     1.007825032230
         H            3.858678920170    -0.691167985434     0.928307169093     1.007825032230
         H            4.480762920170     0.669945014566    -0.062406830907     1.007825032230

  Basis Set: AUG-CC-PVTZ
    Blend: AUG-CC-PVTZ
  Basis Set: (AUG-CC-PVTZ AUX)
    Blend: AUG-CC-PVTZ-JKFIT
	 Reference Energy          =    -551.5989102852878432 [Eh]
	 Singles Energy            =      -0.0000000000000000 [Eh]
	 Same-Spin Energy          =      -0.5789336171113784 [Eh]
	 Opposite-Spin Energy      =      -1.8001350148352528 [Eh]
	 Correlation Energy        =      -2.3790686319466312 [Eh]
	 Total Energy              =    -553.9779789172345090 [Eh]

	 ================> DF-SCS-MP2 Energies <==================
	-----------------------------------------------------------
	 SCS Same-Spin Scale       =       0.3333333333333333 [-]
	 SCS Opposite-Spin Scale   =       1.2000000000000000 [-]
	 SCS Same-Spin Energy      =      -0.1929778723704594 [Eh]
	 SCS Opposite-Spin Energy  =      -2.1601620178023033 [Eh]
	 SCS Correlation Energy    =      -2.3531398901727627 [Eh]
	 SCS Total Energy          =    -553.9520501754606130 [Eh]
	-----------------------------------------------------------

  Dipole Moment: [D]
     X:    -0.6581      Y:    -0.2569      Z:     0.3474     Total:     0.7873

*** Psi4 exiting successfully. Buy a developer a beer!
