                               Psi4 1.3.2 release

  ==> Input File <==

--------------------------------------------------------------------------
#psi4
#
memory 32 gb

molecule  {
0 1
  O        2.4822540     0.5405090    -0.0540980
  O        1.5746620    -1.5220150     0.0896580
  N       -1.1191790    -1.6921850    -0.1509940
  C       -1.0966210    -0.3229200    -0.0500550
  C        0.1267050     0.4076130    -0.0279230
  C       -2.3003260     0.4165330    -0.0467730
  C        0.1050810     1.8109880     0.0359760
  C       -2.2954060     1.8037730     0.0119910
  C       -1.0915490     2.5140600     0.0407670
  C        1.4212810    -0.3016580     0.0102200
  C       -2.3395125    -2.4387064     0.0661713
  C        3.7618060    -0.1198990    -0.0066490
  H       -3.2501560    -0.1077310    -0.0690300
  H        1.0507040     2.3420820     0.0640380
  H       -0.2300450    -2.1418000     0.0381510
  H       -3.2442430     2.3364260     0.0191250
  H       -1.0894800     3.5992760     0.0899090
  H       -2.7979590    -2.2384410     1.0412790
  H       -2.0612830    -3.5169920     0.0485590
  H       -3.0612710    -2.2783540    -0.7172980
  H        3.8686140    -0.8046650    -0.8491430
  H        3.8704280    -0.6765840     0.9253170
  H        4.4925120     0.6845290    -0.0653970
units angstrom
no_reorient  #important for SAPT in psi4, default
symmetry c1  #important for SAPT in psi4, default
}

set PROPERTIES_ORIGIN ["COM"]
properties('MP2/aug-cc-pvtz', properties = ['dipole'])
--------------------------------------------------------------------------

    Molecular point group: c1
  Charge       = 0
  Multiplicity = 1
  Basis Set: AUG-CC-PVTZ
    Blend: AUG-CC-PVTZ
  Basis Set: (AUG-CC-PVTZ AUX)
    Blend: AUG-CC-PVTZ-JKFIT

    Orbital Energies [Eh]
    ---------------------

    Doubly Occupied:

       1A    -20.602771     2A    -20.541896     3A    -15.563327
       4A    -11.385646     5A    -11.297938     6A    -11.284314
       7A    -11.258460     8A    -11.251772     9A    -11.249949
      10A    -11.239573    11A    -11.227501    12A    -11.223347
      13A     -1.454098    14A     -1.350065    15A     -1.245863
      16A     -1.141978    17A     -1.046096    18A     -1.009146
      19A     -0.968418    20A     -0.923445    21A     -0.864464
      22A     -0.809172    23A     -0.784147    24A     -0.728705
      25A     -0.699820    26A     -0.673389    27A     -0.668662
      28A     -0.660899    29A     -0.629325    30A     -0.617221
      31A     -0.614146    32A     -0.583616    33A     -0.576523
      34A     -0.556493    35A     -0.537618    36A     -0.534409
      37A     -0.524471    38A     -0.506920    39A     -0.501186
      40A     -0.465374    41A     -0.444924    42A     -0.428514
      43A     -0.349407    44A     -0.291655

  @DF-RHF Final Energy:  -551.60091851004131

   => Energetics <=

    Nuclear Repulsion Energy =            688.1013522356315661
    One-Electron Energy =               -2116.7712098668462204
    Two-Electron Energy =                 877.0689391211733437
    Total Energy =                       -551.6009185100413106
  Basis Set: (AUG-CC-PVTZ AUX)
    Blend: AUG-CC-PVTZ-RI
    Molecular point group: c1

    Geometry (in Angstrom), charge = 0, multiplicity = 1:

       Center              X                  Y                   Z               Mass
    ------------   -----------------  -----------------  -----------------  -----------------
         O            2.468659214541     0.522224872942    -0.050395073892    15.994914619570
         O            1.561067214541    -1.540299127058     0.093360926108    15.994914619570
         N           -1.132773785459    -1.710469127058    -0.147291073892    14.003074004430
         C           -1.110215785459    -0.341204127058    -0.046352073892    12.000000000000
         C            0.113110214541     0.389328872942    -0.024220073892    12.000000000000
         C           -2.313920785459     0.398248872942    -0.043070073892    12.000000000000
         C            0.091486214541     1.792703872942     0.039678926108    12.000000000000
         C           -2.309000785459     1.785488872942     0.015693926108    12.000000000000
         C           -1.105143785459     2.495775872942     0.044469926108    12.000000000000
         C            1.407686214541    -0.319942127058     0.013922926108    12.000000000000
         C           -2.353107285459    -2.456990527058     0.069874226108    12.000000000000
         C            3.748211214541    -0.138183127058    -0.002946073892    12.000000000000
         H           -3.263750785459    -0.126015127058    -0.065327073892     1.007825032230
         H            1.037109214541     2.323797872942     0.067740926108     1.007825032230
         H           -0.243639785459    -2.160084127058     0.041853926108     1.007825032230
         H           -3.257837785459     2.318141872942     0.022827926108     1.007825032230
         H           -1.103074785459     3.580991872942     0.093611926108     1.007825032230
         H           -2.811553785459    -2.256725127058     1.044981926108     1.007825032230
         H           -2.074877785459    -3.535276127058     0.052261926108     1.007825032230
         H           -3.074865785459    -2.296638127058    -0.713595073892     1.007825032230
         H            3.855019214541    -0.822949127058    -0.845440073892     1.007825032230
         H            3.856833214541    -0.694868127058     0.929019926108     1.007825032230
         H            4.478917214541     0.666244872942    -0.061694073892     1.007825032230

  Basis Set: AUG-CC-PVTZ
    Blend: AUG-CC-PVTZ
  Basis Set: (AUG-CC-PVTZ AUX)
    Blend: AUG-CC-PVTZ-JKFIT
	 Reference Energy          =    -551.6009185100413106 [Eh]
	 Singles Energy            =      -0.0000000000000000 [Eh]
	 Same-Spin Energy          =      -0.5789606165022290 [Eh]
	 Opposite-Spin Energy      =      -1.7999429510150562 [Eh]
	 Correlation Energy        =      -2.3789035675172849 [Eh]
	 Total Energy              =    -553.9798220775586515 [Eh]

	 ================> DF-SCS-MP2 Energies <==================
	-----------------------------------------------------------
	 SCS Same-Spin Scale       =       0.3333333333333333 [-]
	 SCS Opposite-Spin Scale   =       1.2000000000000000 [-]
	 SCS Same-Spin Energy      =      -0.1929868721674096 [Eh]
	 SCS Opposite-Spin Energy  =      -2.1599315412180675 [Eh]
	 SCS Correlation Energy    =      -2.3529184133854772 [Eh]
	 SCS Total Energy          =    -553.9538369234268202 [Eh]
	-----------------------------------------------------------

  Dipole Moment: [D]
     X:    -0.1851      Y:    -0.0852      Z:     0.3199     Total:     0.3793

*** Psi4 exiting successfully. Buy a developer a beer!
