                               Psi4 1.4a3.dev225

  ==> Input File <==

--------------------------------------------------------------------------
#psi4
#
memory 32 gb

molecule  {
0 1
  O        2.4822540     0.5405090    -0.0540980
  O        1.5746620    -1.5220150     0.0896580
  N       -1.1191790    -1.6921850    -0.1509940
  C       -1.0966210    -0.3229200    -0.0500550
  C        0.1267050     0.4076130    -0.0279230
  C       -2.3003260     0.4165330    -0.0467730
  C        0.1050810     1.8109880     0.0359760
  C       -2.2954060     1.8037730     0.0119910
  C       -1.0915490     2.5140600     0.0407670
  C        1.4212810    -0.3016580     0.0102200
  C       -2.3091071    -2.4479641     0.0705006
  C        3.7618060    -0.1198990    -0.0066490
  H       -3.2501560    -0.1077310    -0.0690300
  H        1.0507040     2.3420820     0.0640380
  H       -0.2300450    -2.1418000     0.0381510
  H       -3.2442430     2.3364260     0.0191250
  H       -1.0894800     3.5992760     0.0899090
  H       -2.7979590    -2.2384410     1.0412790
  H       -2.0612830    -3.5169920     0.0485590
  H       -3.0612710    -2.2783540    -0.7172980
  H        3.8686140    -0.8046650    -0.8491430
  H        3.8704280    -0.6765840     0.9253170
  H        4.4925120     0.6845290    -0.0653970
units angstrom
no_reorient  #important for SAPT in psi4, default
symmetry c1  #important for SAPT in psi4, default
}

set PROPERTIES_ORIGIN ["COM"]
properties('MP2/aug-cc-pvtz', properties = ['dipole'])
--------------------------------------------------------------------------

    Molecular point group: c1
  Charge       = 0
  Multiplicity = 1
  Basis Set: AUG-CC-PVTZ
    Blend: AUG-CC-PVTZ
  Basis Set: (AUG-CC-PVTZ AUX)
    Blend: AUG-CC-PVTZ-JKFIT

    Orbital Energies [Eh]
    ---------------------

    Doubly Occupied:

       1A    -20.603131     2A    -20.542275     3A    -15.563380
       4A    -11.386096     5A    -11.298772     6A    -11.284575
       7A    -11.258367     8A    -11.252077     9A    -11.250366
      10A    -11.240373    11A    -11.227992    12A    -11.223947
      13A     -1.454468    14A     -1.350458    15A     -1.249655
      16A     -1.143344    17A     -1.046580    18A     -1.010750
      19A     -0.968690    20A     -0.921637    21A     -0.865045
      22A     -0.809293    23A     -0.784836    24A     -0.729390
      25A     -0.701088    26A     -0.673799    27A     -0.669005
      28A     -0.663652    29A     -0.630584    30A     -0.616464
      31A     -0.611235    32A     -0.586558    33A     -0.576867
      34A     -0.555738    35A     -0.538447    36A     -0.535164
      37A     -0.524585    38A     -0.506180    39A     -0.501678
      40A     -0.465658    41A     -0.445155    42A     -0.426386
      43A     -0.349716    44A     -0.292119

  @DF-RHF Final Energy:  -551.60123427520227

   => Energetics <=

    Nuclear Repulsion Energy =            688.3833307062317317
    One-Electron Energy =               -2117.2979855324233540
    Two-Electron Energy =                 877.3134205509892354
    Total Energy =                       -551.6012342752022732
  Basis Set: (AUG-CC-PVTZ AUX)
    Blend: AUG-CC-PVTZ-RI
    Molecular point group: c1

    Geometry (in Angstrom), charge = 0, multiplicity = 1:

       Center              X                  Y                   Z               Mass
    ------------   -----------------  -----------------  -----------------  -----------------
         O            2.466448970674     0.522897838094    -0.050709781437    15.994914619570
         O            1.558856970674    -1.539626161906     0.093046218563    15.994914619570
         N           -1.134984029326    -1.709796161906    -0.147605781437    14.003074004430
         C           -1.112426029326    -0.340531161906    -0.046666781437    12.000000000000
         C            0.110899970674     0.390001838094    -0.024534781437    12.000000000000
         C           -2.316131029326     0.398921838094    -0.043384781437    12.000000000000
         C            0.089275970674     1.793376838094     0.039364218563    12.000000000000
         C           -2.311211029326     1.786161838094     0.015379218563    12.000000000000
         C           -1.107354029326     2.496448838094     0.044155218563    12.000000000000
         C            1.405475970674    -0.319269161906     0.013608218563    12.000000000000
         C           -2.324912129326    -2.465575261906     0.073888818563    12.000000000000
         C            3.746000970674    -0.137510161906    -0.003260781437    12.000000000000
         H           -3.265961029326    -0.125342161906    -0.065641781437     1.007825032230
         H            1.034898970674     2.324470838094     0.067426218563     1.007825032230
         H           -0.245850029326    -2.159411161906     0.041539218563     1.007825032230
         H           -3.260048029326     2.318814838094     0.022513218563     1.007825032230
         H           -1.105285029326     3.581664838094     0.093297218563     1.007825032230
         H           -2.813764029326    -2.256052161906     1.044667218563     1.007825032230
         H           -2.077088029326    -3.534603161906     0.051947218563     1.007825032230
         H           -3.077076029326    -2.295965161906    -0.713909781437     1.007825032230
         H            3.852808970674    -0.822276161906    -0.845754781437     1.007825032230
         H            3.854622970674    -0.694195161906     0.928705218563     1.007825032230
         H            4.476706970674     0.666917838094    -0.062008781437     1.007825032230

  Basis Set: AUG-CC-PVTZ
    Blend: AUG-CC-PVTZ
  Basis Set: (AUG-CC-PVTZ AUX)
    Blend: AUG-CC-PVTZ-JKFIT
	 Reference Energy          =    -551.6012342752022732 [Eh]
	 Singles Energy            =      -0.0000000000000000 [Eh]
	 Same-Spin Energy          =      -0.5790522940003876 [Eh]
	 Opposite-Spin Energy      =      -1.7998476387368836 [Eh]
	 Correlation Energy        =      -2.3788999327372711 [Eh]
	 Total Energy              =    -553.9801342079394999 [Eh]

	 ================> DF-SCS-MP2 Energies <==================
	-----------------------------------------------------------
	 SCS Same-Spin Scale       =       0.3333333333333333 [-]
	 SCS Opposite-Spin Scale   =       1.2000000000000000 [-]
	 SCS Same-Spin Energy      =      -0.1930174313334625 [Eh]
	 SCS Opposite-Spin Energy  =      -2.1598171664842600 [Eh]
	 SCS Correlation Energy    =      -2.3528345978177225 [Eh]
	 SCS Total Energy          =    -553.9540688730199918 [Eh]
	-----------------------------------------------------------

  Dipole Moment: [D]
     X:    -0.1124      Y:    -0.0393      Z:     0.3163     Total:     0.3379

*** Psi4 exiting successfully. Buy a developer a beer!
