                               Psi4 1.3.2 release

  ==> Input File <==

--------------------------------------------------------------------------
#psi4
#
memory 32 gb

molecule  {
0 1
  O        2.4822540     0.5405090    -0.0540980
  O        1.5746620    -1.5220150     0.0896580
  N       -1.0233824    -1.6902344    -0.1533581
  C       -1.0966210    -0.3229200    -0.0500550
  C        0.1267050     0.4076130    -0.0279230
  C       -2.3003260     0.4165330    -0.0467730
  C        0.1050810     1.8109880     0.0359760
  C       -2.2954060     1.8037730     0.0119910
  C       -1.0915490     2.5140600     0.0407670
  C        1.4212810    -0.3016580     0.0102200
  C       -2.3257850    -2.4585570     0.0736050
  C        3.7618060    -0.1198990    -0.0066490
  H       -3.2501560    -0.1077310    -0.0690300
  H        1.0507040     2.3420820     0.0640380
  H       -0.2300450    -2.1418000     0.0381510
  H       -3.2442430     2.3364260     0.0191250
  H       -1.0894800     3.5992760     0.0899090
  H       -2.7979590    -2.2384410     1.0412790
  H       -2.0612830    -3.5169920     0.0485590
  H       -3.0612710    -2.2783540    -0.7172980
  H        3.8686140    -0.8046650    -0.8491430
  H        3.8704280    -0.6765840     0.9253170
  H        4.4925120     0.6845290    -0.0653970
units angstrom
no_reorient  #important for SAPT in psi4, default
symmetry c1  #important for SAPT in psi4, default
}

set PROPERTIES_ORIGIN ["COM"]
properties('MP2/aug-cc-pvtz', properties = ['dipole'])
--------------------------------------------------------------------------

    Molecular point group: c1
  Charge       = 0
  Multiplicity = 1
  Basis Set: AUG-CC-PVTZ
    Blend: AUG-CC-PVTZ
  Basis Set: (AUG-CC-PVTZ AUX)
    Blend: AUG-CC-PVTZ-JKFIT

    Orbital Energies [Eh]
    ---------------------

    Doubly Occupied:

       1A    -20.601382     2A    -20.539331     3A    -15.560271
       4A    -11.383767     5A    -11.298483     6A    -11.283332
       7A    -11.264256     8A    -11.252529     9A    -11.248993
      10A    -11.237337    11A    -11.229504    12A    -11.223305
      13A     -1.452563    14A     -1.348457    15A     -1.241089
      16A     -1.140232    17A     -1.045318    18A     -1.005858
      19A     -0.966850    20A     -0.927968    21A     -0.864760
      22A     -0.816646    23A     -0.783374    24A     -0.730073
      25A     -0.707626    26A     -0.672963    27A     -0.667375
      28A     -0.654453    29A     -0.627882    30A     -0.615948
      31A     -0.604911    32A     -0.576408    33A     -0.574805
      34A     -0.555001    35A     -0.545282    36A     -0.534870
      37A     -0.525296    38A     -0.507885    39A     -0.496899
      40A     -0.463906    41A     -0.444726    42A     -0.432111
      43A     -0.348932    44A     -0.292974

  @DF-RHF Final Energy:  -551.59002848545742

   => Energetics <=

    Nuclear Repulsion Energy =            688.1666807877575138
    One-Electron Energy =               -2116.9215558877331205
    Two-Electron Energy =                 877.1648466145181828
    Total Energy =                       -551.5900284854574238
  Basis Set: (AUG-CC-PVTZ AUX)
    Blend: AUG-CC-PVTZ-RI
    Molecular point group: c1

    Geometry (in Angstrom), charge = 0, multiplicity = 1:

       Center              X                  Y                   Z               Mass
    ------------   -----------------  -----------------  -----------------  -----------------
         O            2.459535237085     0.523502399648    -0.050734909608    15.994914619570
         O            1.551943237085    -1.539021600352     0.093021090392    15.994914619570
         N           -1.046101162915    -1.707241000352    -0.149995009608    14.003074004430
         C           -1.119339762915    -0.339926600352    -0.046691909608    12.000000000000
         C            0.103986237085     0.390606399648    -0.024559909608    12.000000000000
         C           -2.323044762915     0.399526399648    -0.043409909608    12.000000000000
         C            0.082362237085     1.793981399648     0.039339090392    12.000000000000
         C           -2.318124762915     1.786766399648     0.015354090392    12.000000000000
         C           -1.114267762915     2.497053399648     0.044130090392    12.000000000000
         C            1.398562237085    -0.318664600352     0.013583090392    12.000000000000
         C           -2.348503762915    -2.475563600352     0.076968090392    12.000000000000
         C            3.739087237085    -0.136905600352    -0.003285909608    12.000000000000
         H           -3.272874762915    -0.124737600352    -0.065666909608     1.007825032230
         H            1.027985237085     2.325075399648     0.067401090392     1.007825032230
         H           -0.252763762915    -2.158806600352     0.041514090392     1.007825032230
         H           -3.266961762915     2.319419399648     0.022488090392     1.007825032230
         H           -1.112198762915     3.582269399648     0.093272090392     1.007825032230
         H           -2.820677762915    -2.255447600352     1.044642090392     1.007825032230
         H           -2.084001762915    -3.533998600352     0.051922090392     1.007825032230
         H           -3.083989762915    -2.295360600352    -0.713934909608     1.007825032230
         H            3.845895237085    -0.821671600352    -0.845779909608     1.007825032230
         H            3.847709237085    -0.693590600352     0.928680090392     1.007825032230
         H            4.469793237085     0.667522399648    -0.062033909608     1.007825032230

  Basis Set: AUG-CC-PVTZ
    Blend: AUG-CC-PVTZ
  Basis Set: (AUG-CC-PVTZ AUX)
    Blend: AUG-CC-PVTZ-JKFIT
	 Reference Energy          =    -551.5900284854574238 [Eh]
	 Singles Energy            =      -0.0000000000000000 [Eh]
	 Same-Spin Energy          =      -0.5783076311060179 [Eh]
	 Opposite-Spin Energy      =      -1.7997788060779416 [Eh]
	 Correlation Energy        =      -2.3780864371839594 [Eh]
	 Total Energy              =    -553.9681149226413481 [Eh]

	 ================> DF-SCS-MP2 Energies <==================
	-----------------------------------------------------------
	 SCS Same-Spin Scale       =       0.3333333333333333 [-]
	 SCS Opposite-Spin Scale   =       1.2000000000000000 [-]
	 SCS Same-Spin Energy      =      -0.1927692103686726 [Eh]
	 SCS Opposite-Spin Energy  =      -2.1597345672935298 [Eh]
	 SCS Correlation Energy    =      -2.3525037776622022 [Eh]
	 SCS Total Energy          =    -553.9425322631195741 [Eh]
	-----------------------------------------------------------

  Dipole Moment: [D]
     X:    -0.3748      Y:    -0.1016      Z:     0.3576     Total:     0.5279

*** Psi4 exiting successfully. Buy a developer a beer!
