                               Psi4 1.3.2 release

  ==> Input File <==

--------------------------------------------------------------------------
#psi4
#
memory 32 gb

molecule  {
0 1
  O        2.4822540     0.5405090    -0.0540980
  O        1.5746620    -1.5220150     0.0896580
  N       -1.1191790    -1.6921850    -0.1509940
  C       -1.0966210    -0.3229200    -0.0500550
  C        0.1267050     0.4076130    -0.0279230
  C       -2.3003260     0.4165330    -0.0467730
  C        0.1050810     1.8109880     0.0359760
  C       -2.2954060     1.8037730     0.0119910
  C       -1.0915490     2.5140600     0.0407670
  C        1.4361832    -0.3199965     0.0115668
  C       -2.3257850    -2.4585570     0.0736050
  C        3.7618060    -0.1198990    -0.0066490
  H       -3.2501560    -0.1077310    -0.0690300
  H        1.0507040     2.3420820     0.0640380
  H       -0.2300450    -2.1418000     0.0381510
  H       -3.2442430     2.3364260     0.0191250
  H       -1.0894800     3.5992760     0.0899090
  H       -2.7979590    -2.2384410     1.0412790
  H       -2.0612830    -3.5169920     0.0485590
  H       -3.0612710    -2.2783540    -0.7172980
  H        3.8686140    -0.8046650    -0.8491430
  H        3.8704280    -0.6765840     0.9253170
  H        4.4925120     0.6845290    -0.0653970
units angstrom
no_reorient  #important for SAPT in psi4, default
symmetry c1  #important for SAPT in psi4, default
}

set PROPERTIES_ORIGIN ["COM"]
properties('MP2/aug-cc-pvtz', properties = ['dipole'])
--------------------------------------------------------------------------

    Molecular point group: c1
  Charge       = 0
  Multiplicity = 1
  Basis Set: AUG-CC-PVTZ
    Blend: AUG-CC-PVTZ
  Basis Set: (AUG-CC-PVTZ AUX)
    Blend: AUG-CC-PVTZ-JKFIT

    Orbital Energies [Eh]
    ---------------------

    Doubly Occupied:

       1A    -20.603507     2A    -20.546236     3A    -15.562243
       4A    -11.385474     5A    -11.296191     6A    -11.284926
       7A    -11.257905     8A    -11.249679     9A    -11.248108
      10A    -11.239779    11A    -11.226278    12A    -11.222183
      13A     -1.459763    14A     -1.361837    15A     -1.244793
      16A     -1.140000    17A     -1.042288    18A     -1.008220
      19A     -0.968162    20A     -0.922245    21A     -0.860973
      22A     -0.807598    23A     -0.784963    24A     -0.728716
      25A     -0.699641    26A     -0.677866    27A     -0.671013
      28A     -0.660984    29A     -0.628510    30A     -0.615755
      31A     -0.611313    32A     -0.582624    33A     -0.575670
      34A     -0.559079    35A     -0.541396    36A     -0.536010
      37A     -0.526910    38A     -0.507104    39A     -0.500541
      40A     -0.469512    41A     -0.445054    42A     -0.426807
      43A     -0.347643    44A     -0.290139

  @DF-RHF Final Energy:  -551.60258060376805

   => Energetics <=

    Nuclear Repulsion Energy =            687.9766086669828837
    One-Electron Energy =               -2116.5071011148320395
    Two-Electron Energy =                 876.9279118440811089
    Total Energy =                       -551.6025806037680468
  Basis Set: (AUG-CC-PVTZ AUX)
    Blend: AUG-CC-PVTZ-RI
    Molecular point group: c1

    Geometry (in Angstrom), charge = 0, multiplicity = 1:

       Center              X                  Y                   Z               Mass
    ------------   -----------------  -----------------  -----------------  -----------------
         O            2.466578050707     0.525000933249    -0.051033350194    15.994914619570
         O            1.558986050707    -1.537523066751     0.092722649806    15.994914619570
         N           -1.134854949293    -1.707693066751    -0.147929350194    14.003074004430
         C           -1.112296949293    -0.338428066751    -0.046990350194    12.000000000000
         C            0.111029050707     0.392104933249    -0.024858350194    12.000000000000
         C           -2.316001949293     0.401024933249    -0.043708350194    12.000000000000
         C            0.089405050707     1.795479933249     0.039040649806    12.000000000000
         C           -2.311081949293     1.788264933249     0.015055649806    12.000000000000
         C           -1.107224949293     2.498551933249     0.043831649806    12.000000000000
         C            1.420507250707    -0.335504566751     0.014631449806    12.000000000000
         C           -2.341460949293    -2.474065066751     0.076669649806    12.000000000000
         C            3.746130050707    -0.135407066751    -0.003584350194    12.000000000000
         H           -3.265831949293    -0.123239066751    -0.065965350194     1.007825032230
         H            1.035028050707     2.326573933249     0.067102649806     1.007825032230
         H           -0.245720949293    -2.157308066751     0.041215649806     1.007825032230
         H           -3.259918949293     2.320917933249     0.022189649806     1.007825032230
         H           -1.105155949293     3.583767933249     0.092973649806     1.007825032230
         H           -2.813634949293    -2.253949066751     1.044343649806     1.007825032230
         H           -2.076958949293    -3.532500066751     0.051623649806     1.007825032230
         H           -3.076946949293    -2.293862066751    -0.714233350194     1.007825032230
         H            3.852938050707    -0.820173066751    -0.846078350194     1.007825032230
         H            3.854752050707    -0.692092066751     0.928381649806     1.007825032230
         H            4.476836050707     0.669020933249    -0.062332350194     1.007825032230

  Basis Set: AUG-CC-PVTZ
    Blend: AUG-CC-PVTZ
  Basis Set: (AUG-CC-PVTZ AUX)
    Blend: AUG-CC-PVTZ-JKFIT
	 Reference Energy          =    -551.6025806037680468 [Eh]
	 Singles Energy            =      -0.0000000000000000 [Eh]
	 Same-Spin Energy          =      -0.5784594974469803 [Eh]
	 Opposite-Spin Energy      =      -1.7989929151783333 [Eh]
	 Correlation Energy        =      -2.3774524126253134 [Eh]
	 Total Energy              =    -553.9800330163933495 [Eh]

	 ================> DF-SCS-MP2 Energies <==================
	-----------------------------------------------------------
	 SCS Same-Spin Scale       =       0.3333333333333333 [-]
	 SCS Opposite-Spin Scale   =       1.2000000000000000 [-]
	 SCS Same-Spin Energy      =      -0.1928198324823268 [Eh]
	 SCS Opposite-Spin Energy  =      -2.1587914982139997 [Eh]
	 SCS Correlation Energy    =      -2.3516113306963264 [Eh]
	 SCS Total Energy          =    -553.9541919344643475 [Eh]
	-----------------------------------------------------------

  Dipole Moment: [D]
     X:    -0.0097      Y:    -0.2096      Z:     0.3350     Total:     0.3953

*** Psi4 exiting successfully. Buy a developer a beer!
