                               Psi4 1.3.2 release

  ==> Input File <==

--------------------------------------------------------------------------
#psi4
#
memory 32 gb

molecule  {
0 1
  O        2.4822540     0.5405090    -0.0540980
  O        1.5746620    -1.5220150     0.0896580
  N       -1.1191790    -1.6921850    -0.1509940
  C       -1.0966210    -0.3229200    -0.0500550
  C        0.1267050     0.4076130    -0.0279230
  C       -2.3003260     0.4165330    -0.0467730
  C        0.1050810     1.8109880     0.0359760
  C       -2.2954060     1.8037730     0.0119910
  C       -1.0915490     2.5140600     0.0407670
  C        1.2648085    -0.4258610     0.0197056
  C       -2.3257850    -2.4585570     0.0736050
  C        3.7618060    -0.1198990    -0.0066490
  H       -3.2501560    -0.1077310    -0.0690300
  H        1.0507040     2.3420820     0.0640380
  H       -0.2300450    -2.1418000     0.0381510
  H       -3.2442430     2.3364260     0.0191250
  H       -1.0894800     3.5992760     0.0899090
  H       -2.7979590    -2.2384410     1.0412790
  H       -2.0612830    -3.5169920     0.0485590
  H       -3.0612710    -2.2783540    -0.7172980
  H        3.8686140    -0.8046650    -0.8491430
  H        3.8704280    -0.6765840     0.9253170
  H        4.4925120     0.6845290    -0.0653970
units angstrom
no_reorient  #important for SAPT in psi4, default
symmetry c1  #important for SAPT in psi4, default
}

set PROPERTIES_ORIGIN ["COM"]
properties('MP2/aug-cc-pvtz', properties = ['dipole'])
--------------------------------------------------------------------------

    Molecular point group: c1
  Charge       = 0
  Multiplicity = 1
  Basis Set: AUG-CC-PVTZ
    Blend: AUG-CC-PVTZ
  Basis Set: (AUG-CC-PVTZ AUX)
    Blend: AUG-CC-PVTZ-JKFIT

    Orbital Energies [Eh]
    ---------------------

    Doubly Occupied:

       1A    -20.571175     2A    -20.543489     3A    -15.576728
       4A    -11.384158     5A    -11.306974     6A    -11.267526
       7A    -11.261423     8A    -11.260117     9A    -11.255449
      10A    -11.244885    11A    -11.234428    12A    -11.230803
      13A     -1.476282    14A     -1.311435    15A     -1.260318
      16A     -1.151808    17A     -1.059721    18A     -1.018561
      19A     -0.944457    20A     -0.916886    21A     -0.879302
      22A     -0.816426    23A     -0.777243    24A     -0.720389
      25A     -0.717613    26A     -0.687375    27A     -0.655332
      28A     -0.643756    29A     -0.633573    30A     -0.620271
      31A     -0.615990    32A     -0.599893    33A     -0.573833
      34A     -0.558708    35A     -0.551930    36A     -0.540785
      37A     -0.518594    38A     -0.511733    39A     -0.509658
      40A     -0.441778    41A     -0.431074    42A     -0.423412
      43A     -0.358086    44A     -0.302539

  @DF-RHF Final Energy:  -551.56321617111655

   => Energetics <=

    Nuclear Repulsion Energy =            688.7132439250327707
    One-Electron Energy =               -2117.8210914782889631
    Two-Electron Energy =                 877.5446313821397553
    Total Energy =                       -551.5632161711165509
  Basis Set: (AUG-CC-PVTZ AUX)
    Blend: AUG-CC-PVTZ-RI
    Molecular point group: c1

    Geometry (in Angstrom), charge = 0, multiplicity = 1:

       Center              X                  Y                   Z               Mass
    ------------   -----------------  -----------------  -----------------  -----------------
         O            2.479035702296     0.532696486073    -0.051624979733    15.994914619570
         O            1.571443702296    -1.529827513927     0.092131020267    15.994914619570
         N           -1.122397297704    -1.699997513927    -0.148520979733    14.003074004430
         C           -1.099839297704    -0.330732513927    -0.047581979733    12.000000000000
         C            0.123486702296     0.399800486073    -0.025449979733    12.000000000000
         C           -2.303544297704     0.408720486073    -0.044299979733    12.000000000000
         C            0.101862702296     1.803175486073     0.038449020267    12.000000000000
         C           -2.298624297704     1.795960486073     0.014464020267    12.000000000000
         C           -1.094767297704     2.506247486073     0.043240020267    12.000000000000
         C            1.261590202296    -0.433673513927     0.022178620267    12.000000000000
         C           -2.329003297704    -2.466369513927     0.076078020267    12.000000000000
         C            3.758587702296    -0.127711513927    -0.004175979733    12.000000000000
         H           -3.253374297704    -0.115543513927    -0.066556979733     1.007825032230
         H            1.047485702296     2.334269486073     0.066511020267     1.007825032230
         H           -0.233263297704    -2.149612513927     0.040624020267     1.007825032230
         H           -3.247461297704     2.328613486073     0.021598020267     1.007825032230
         H           -1.092698297704     3.591463486073     0.092382020267     1.007825032230
         H           -2.801177297704    -2.246253513927     1.043752020267     1.007825032230
         H           -2.064501297704    -3.524804513927     0.051032020267     1.007825032230
         H           -3.064489297704    -2.286166513927    -0.714824979733     1.007825032230
         H            3.865395702296    -0.812477513927    -0.846669979733     1.007825032230
         H            3.867209702296    -0.684396513927     0.927790020267     1.007825032230
         H            4.489293702296     0.676716486073    -0.062923979733     1.007825032230

  Basis Set: AUG-CC-PVTZ
    Blend: AUG-CC-PVTZ
  Basis Set: (AUG-CC-PVTZ AUX)
    Blend: AUG-CC-PVTZ-JKFIT
	 Reference Energy          =    -551.5632161711165509 [Eh]
	 Singles Energy            =      -0.0000000000000000 [Eh]
	 Same-Spin Energy          =      -0.5799345220329576 [Eh]
	 Opposite-Spin Energy      =      -1.8025191254988173 [Eh]
	 Correlation Energy        =      -2.3824536475317748 [Eh]
	 Total Energy              =    -553.9456698186482981 [Eh]

	 ================> DF-SCS-MP2 Energies <==================
	-----------------------------------------------------------
	 SCS Same-Spin Scale       =       0.3333333333333333 [-]
	 SCS Opposite-Spin Scale   =       1.2000000000000000 [-]
	 SCS Same-Spin Energy      =      -0.1933115073443192 [Eh]
	 SCS Opposite-Spin Energy  =      -2.1630229505985805 [Eh]
	 SCS Correlation Energy    =      -2.3563344579428995 [Eh]
	 SCS Total Energy          =    -553.9195506290594722 [Eh]
	-----------------------------------------------------------

  Dipole Moment: [D]
     X:    -2.1619      Y:    -0.7451      Z:     0.4097     Total:     2.3231

*** Psi4 exiting successfully. Buy a developer a beer!
