                               Psi4 1.3.2 release

  ==> Input File <==

--------------------------------------------------------------------------
#psi4
#
memory 32 gb

molecule  {
0 1
  O        2.4822540     0.5405090    -0.0540980
  O        1.5746620    -1.5220150     0.0896580
  N       -1.1191790    -1.6921850    -0.1509940
  C       -1.0966210    -0.3229200    -0.0500550
  C        0.1267050     0.4076130    -0.0279230
  C       -2.3003260     0.4165330    -0.0467730
  C        0.1050810     1.8109880     0.0359760
  C       -2.2954060     1.8037730     0.0119910
  C       -1.0915490     2.5140600     0.0407670
  C        1.3336102    -0.2536250     0.0076369
  C       -2.3257850    -2.4585570     0.0736050
  C        3.7618060    -0.1198990    -0.0066490
  H       -3.2501560    -0.1077310    -0.0690300
  H        1.0507040     2.3420820     0.0640380
  H       -0.2300450    -2.1418000     0.0381510
  H       -3.2442430     2.3364260     0.0191250
  H       -1.0894800     3.5992760     0.0899090
  H       -2.7979590    -2.2384410     1.0412790
  H       -2.0612830    -3.5169920     0.0485590
  H       -3.0612710    -2.2783540    -0.7172980
  H        3.8686140    -0.8046650    -0.8491430
  H        3.8704280    -0.6765840     0.9253170
  H        4.4925120     0.6845290    -0.0653970
units angstrom
no_reorient  #important for SAPT in psi4, default
symmetry c1  #important for SAPT in psi4, default
}

set PROPERTIES_ORIGIN ["COM"]
properties('MP2/aug-cc-pvtz', properties = ['dipole'])
--------------------------------------------------------------------------

    Molecular point group: c1
  Charge       = 0
  Multiplicity = 1
  Basis Set: AUG-CC-PVTZ
    Blend: AUG-CC-PVTZ
  Basis Set: (AUG-CC-PVTZ AUX)
    Blend: AUG-CC-PVTZ-JKFIT

    Orbital Energies [Eh]
    ---------------------

    Doubly Occupied:

       1A    -20.588037     2A    -20.528235     3A    -15.570124
       4A    -11.383258     5A    -11.309293     6A    -11.275724
       7A    -11.262697     8A    -11.262363     9A    -11.259742
      10A    -11.237774    11A    -11.234307    12A    -11.230016
      13A     -1.421175    14A     -1.308407    15A     -1.251134
      16A     -1.153214    17A     -1.064932    18A     -1.017386
      19A     -0.961561    20A     -0.926948    21A     -0.882043
      22A     -0.816726    23A     -0.781259    24A     -0.722631
      25A     -0.706304    26A     -0.669255    27A     -0.651056
      28A     -0.649837    29A     -0.631651    30A     -0.619326
      31A     -0.615806    32A     -0.586939    33A     -0.579062
      34A     -0.551433    35A     -0.547368    36A     -0.534795
      37A     -0.516089    38A     -0.502401    39A     -0.499682
      40A     -0.448381    41A     -0.436337    42A     -0.430997
      43A     -0.357845    44A     -0.299433

  @DF-RHF Final Energy:  -551.58057078605350

   => Energetics <=

    Nuclear Repulsion Energy =            688.2106060381936459
    One-Electron Energy =               -2117.0163855045525452
    Two-Electron Energy =                 877.2252086803053999
    Total Energy =                       -551.5805707860534994
  Basis Set: (AUG-CC-PVTZ AUX)
    Blend: AUG-CC-PVTZ-RI
    Molecular point group: c1

    Geometry (in Angstrom), charge = 0, multiplicity = 1:

       Center              X                  Y                   Z               Mass
    ------------   -----------------  -----------------  -----------------  -----------------
         O            2.474034336240     0.520176224453    -0.050747676026    15.994914619570
         O            1.566442336240    -1.542347775547     0.093008323974    15.994914619570
         N           -1.127398663760    -1.712517775547    -0.147643676026    14.003074004430
         C           -1.104840663760    -0.343252775547    -0.046704676026    12.000000000000
         C            0.118485336240     0.387280224453    -0.024572676026    12.000000000000
         C           -2.308545663760     0.396200224453    -0.043422676026    12.000000000000
         C            0.096861336240     1.790655224453     0.039326323974    12.000000000000
         C           -2.303625663760     1.783440224453     0.015341323974    12.000000000000
         C           -1.099768663760     2.493727224453     0.044117323974    12.000000000000
         C            1.325390536240    -0.273957775547     0.010987223974    12.000000000000
         C           -2.334004663760    -2.478889775547     0.076955323974    12.000000000000
         C            3.753586336240    -0.140231775547    -0.003298676026    12.000000000000
         H           -3.258375663760    -0.128063775547    -0.065679676026     1.007825032230
         H            1.042484336240     2.321749224453     0.067388323974     1.007825032230
         H           -0.238264663760    -2.162132775547     0.041501323974     1.007825032230
         H           -3.252462663760     2.316093224453     0.022475323974     1.007825032230
         H           -1.097699663760     3.578943224453     0.093259323974     1.007825032230
         H           -2.806178663760    -2.258773775547     1.044629323974     1.007825032230
         H           -2.069502663760    -3.537324775547     0.051909323974     1.007825032230
         H           -3.069490663760    -2.298686775547    -0.713947676026     1.007825032230
         H            3.860394336240    -0.824997775547    -0.845792676026     1.007825032230
         H            3.862208336240    -0.696916775547     0.928667323974     1.007825032230
         H            4.484292336240     0.664196224453    -0.062046676026     1.007825032230

  Basis Set: AUG-CC-PVTZ
    Blend: AUG-CC-PVTZ
  Basis Set: (AUG-CC-PVTZ AUX)
    Blend: AUG-CC-PVTZ-JKFIT
	 Reference Energy          =    -551.5805707860534994 [Eh]
	 Singles Energy            =      -0.0000000000000000 [Eh]
	 Same-Spin Energy          =      -0.5810282711248875 [Eh]
	 Opposite-Spin Energy      =      -1.8042650683694113 [Eh]
	 Correlation Energy        =      -2.3852933394942988 [Eh]
	 Total Energy              =    -553.9658641255477960 [Eh]

	 ================> DF-SCS-MP2 Energies <==================
	-----------------------------------------------------------
	 SCS Same-Spin Scale       =       0.3333333333333333 [-]
	 SCS Opposite-Spin Scale   =       1.2000000000000000 [-]
	 SCS Same-Spin Energy      =      -0.1936760903749625 [Eh]
	 SCS Opposite-Spin Energy  =      -2.1651180820432936 [Eh]
	 SCS Correlation Energy    =      -2.3587941724182562 [Eh]
	 SCS Total Energy          =    -553.9393649584717423 [Eh]
	-----------------------------------------------------------

  Dipole Moment: [D]
     X:    -1.2335      Y:     0.2133      Z:     0.3116     Total:     1.2900

*** Psi4 exiting successfully. Buy a developer a beer!
