                               Psi4 1.3.2 release

  ==> Input File <==

--------------------------------------------------------------------------
#psi4
#
memory 32 gb

molecule  {
0 1
  O        2.4207569     0.6123400    -0.0583467
  O        1.5746620    -1.5220150     0.0896580
  N       -1.1191790    -1.6921850    -0.1509940
  C       -1.0966210    -0.3229200    -0.0500550
  C        0.1267050     0.4076130    -0.0279230
  C       -2.3003260     0.4165330    -0.0467730
  C        0.1050810     1.8109880     0.0359760
  C       -2.2954060     1.8037730     0.0119910
  C       -1.0915490     2.5140600     0.0407670
  C        1.4212810    -0.3016580     0.0102200
  C       -2.3257850    -2.4585570     0.0736050
  C        3.7618060    -0.1198990    -0.0066490
  H       -3.2501560    -0.1077310    -0.0690300
  H        1.0507040     2.3420820     0.0640380
  H       -0.2300450    -2.1418000     0.0381510
  H       -3.2442430     2.3364260     0.0191250
  H       -1.0894800     3.5992760     0.0899090
  H       -2.7979590    -2.2384410     1.0412790
  H       -2.0612830    -3.5169920     0.0485590
  H       -3.0612710    -2.2783540    -0.7172980
  H        3.8686140    -0.8046650    -0.8491430
  H        3.8704280    -0.6765840     0.9253170
  H        4.4925120     0.6845290    -0.0653970
units angstrom
no_reorient  #important for SAPT in psi4, default
symmetry c1  #important for SAPT in psi4, default
}

set PROPERTIES_ORIGIN ["COM"]
properties('MP2/aug-cc-pvtz', properties = ['dipole'])
--------------------------------------------------------------------------

    Molecular point group: c1
  Charge       = 0
  Multiplicity = 1
  Basis Set: AUG-CC-PVTZ
    Blend: AUG-CC-PVTZ
  Basis Set: (AUG-CC-PVTZ AUX)
    Blend: AUG-CC-PVTZ-JKFIT

    Orbital Energies [Eh]
    ---------------------

    Doubly Occupied:

       1A    -20.607160     2A    -20.544029     3A    -15.561169
       4A    -11.384116     5A    -11.295025     6A    -11.294684
       7A    -11.257009     8A    -11.248929     9A    -11.246100
      10A    -11.234396    11A    -11.224852    12A    -11.220682
      13A     -1.443073    14A     -1.347239    15A     -1.243454
      16A     -1.138722    17A     -1.041348    18A     -1.006939
      19A     -0.963583    20A     -0.921764    21A     -0.863876
      22A     -0.806591    23A     -0.781920    24A     -0.723071
      25A     -0.697720    26A     -0.670486    27A     -0.659896
      28A     -0.657158    29A     -0.624239    30A     -0.613565
      31A     -0.609887    32A     -0.581029    33A     -0.567101
      34A     -0.559876    35A     -0.540008    36A     -0.538530
      37A     -0.528307    38A     -0.506035    39A     -0.498843
      40A     -0.472193    41A     -0.442862    42A     -0.425423
      43A     -0.346135    44A     -0.288974

  @DF-RHF Final Energy:  -551.59076755067724

   => Energetics <=

    Nuclear Repulsion Energy =            687.5654571238361541
    One-Electron Energy =               -2115.8564552488019217
    Two-Electron Energy =                 876.7002305742886392
    Total Energy =                       -551.5907675506772421
  Basis Set: (AUG-CC-PVTZ AUX)
    Blend: AUG-CC-PVTZ-RI
    Molecular point group: c1

    Geometry (in Angstrom), charge = 0, multiplicity = 1:

       Center              X                  Y                   Z               Mass
    ------------   -----------------  -----------------  -----------------  -----------------
         O            2.412122836195     0.588538977212    -0.054772480809    15.994914619570
         O            1.566027936195    -1.545816022788     0.093232219191    15.994914619570
         N           -1.127813063805    -1.715986022788    -0.147419780809    14.003074004430
         C           -1.105255063805    -0.346721022788    -0.046480780809    12.000000000000
         C            0.118070936195     0.383811977212    -0.024348780809    12.000000000000
         C           -2.308960063805     0.392731977212    -0.043198780809    12.000000000000
         C            0.096446936195     1.787186977212     0.039550219191    12.000000000000
         C           -2.304040063805     1.779971977212     0.015565219191    12.000000000000
         C           -1.100183063805     2.490258977212     0.044341219191    12.000000000000
         C            1.412646936195    -0.325459022788     0.013794219191    12.000000000000
         C           -2.334419063805    -2.482358022788     0.077179219191    12.000000000000
         C            3.753171936195    -0.143700022788    -0.003074780809    12.000000000000
         H           -3.258790063805    -0.131532022788    -0.065455780809     1.007825032230
         H            1.042069936195     2.318280977212     0.067612219191     1.007825032230
         H           -0.238679063805    -2.165601022788     0.041725219191     1.007825032230
         H           -3.252877063805     2.312624977212     0.022699219191     1.007825032230
         H           -1.098114063805     3.575474977212     0.093483219191     1.007825032230
         H           -2.806593063805    -2.262242022788     1.044853219191     1.007825032230
         H           -2.069917063805    -3.540793022788     0.052133219191     1.007825032230
         H           -3.069905063805    -2.302155022788    -0.713723780809     1.007825032230
         H            3.859979936195    -0.828466022788    -0.845568780809     1.007825032230
         H            3.861793936195    -0.700385022788     0.928891219191     1.007825032230
         H            4.483877936195     0.660727977212    -0.061822780809     1.007825032230

  Basis Set: AUG-CC-PVTZ
    Blend: AUG-CC-PVTZ
  Basis Set: (AUG-CC-PVTZ AUX)
    Blend: AUG-CC-PVTZ-JKFIT
	 Reference Energy          =    -551.5907675506772421 [Eh]
	 Singles Energy            =      -0.0000000000000000 [Eh]
	 Same-Spin Energy          =      -0.5800383026432053 [Eh]
	 Opposite-Spin Energy      =      -1.8031669110097908 [Eh]
	 Correlation Energy        =      -2.3832052136529960 [Eh]
	 Total Energy              =    -553.9739727643302558 [Eh]

	 ================> DF-SCS-MP2 Energies <==================
	-----------------------------------------------------------
	 SCS Same-Spin Scale       =       0.3333333333333333 [-]
	 SCS Opposite-Spin Scale   =       1.2000000000000000 [-]
	 SCS Same-Spin Energy      =      -0.1933461008810684 [Eh]
	 SCS Opposite-Spin Energy  =      -2.1638002932117488 [Eh]
	 SCS Correlation Energy    =      -2.3571463940928172 [Eh]
	 SCS Total Energy          =    -553.9479139447701073 [Eh]
	-----------------------------------------------------------

  Dipole Moment: [D]
     X:     0.2162      Y:    -0.2541      Z:     0.3347     Total:     0.4726

*** Psi4 exiting successfully. Buy a developer a beer!
