                               Psi4 1.3.2 release

  ==> Input File <==

--------------------------------------------------------------------------
#psi4
#
memory 32 gb

molecule  {
0 1
  O        2.5385831     0.4645832    -0.0494125
  O        1.5746620    -1.5220150     0.0896580
  N       -1.1191790    -1.6921850    -0.1509940
  C       -1.0966210    -0.3229200    -0.0500550
  C        0.1267050     0.4076130    -0.0279230
  C       -2.3003260     0.4165330    -0.0467730
  C        0.1050810     1.8109880     0.0359760
  C       -2.2954060     1.8037730     0.0119910
  C       -1.0915490     2.5140600     0.0407670
  C        1.4212810    -0.3016580     0.0102200
  C       -2.3257850    -2.4585570     0.0736050
  C        3.7618060    -0.1198990    -0.0066490
  H       -3.2501560    -0.1077310    -0.0690300
  H        1.0507040     2.3420820     0.0640380
  H       -0.2300450    -2.1418000     0.0381510
  H       -3.2442430     2.3364260     0.0191250
  H       -1.0894800     3.5992760     0.0899090
  H       -2.7979590    -2.2384410     1.0412790
  H       -2.0612830    -3.5169920     0.0485590
  H       -3.0612710    -2.2783540    -0.7172980
  H        3.8686140    -0.8046650    -0.8491430
  H        3.8704280    -0.6765840     0.9253170
  H        4.4925120     0.6845290    -0.0653970
units angstrom
no_reorient  #important for SAPT in psi4, default
symmetry c1  #important for SAPT in psi4, default
}

set PROPERTIES_ORIGIN ["COM"]
properties('MP2/aug-cc-pvtz', properties = ['dipole'])
--------------------------------------------------------------------------

    Molecular point group: c1
  Charge       = 0
  Multiplicity = 1
  Basis Set: AUG-CC-PVTZ
    Blend: AUG-CC-PVTZ
  Basis Set: (AUG-CC-PVTZ AUX)
    Blend: AUG-CC-PVTZ-JKFIT

    Orbital Energies [Eh]
    ---------------------

    Doubly Occupied:

       1A    -20.596515     2A    -20.539646     3A    -15.565090
       4A    -11.388166     5A    -11.301996     6A    -11.274325
       7A    -11.259744     8A    -11.254561     9A    -11.253780
      10A    -11.245198    11A    -11.230276    12A    -11.226118
      13A     -1.468771    14A     -1.353964    15A     -1.247724
      16A     -1.145386    17A     -1.050866    18A     -1.012330
      19A     -0.975775    20A     -0.924898    21A     -0.865755
      22A     -0.811653    23A     -0.785454    24A     -0.735187
      25A     -0.702366    26A     -0.680071    27A     -0.677930
      28A     -0.664343    29A     -0.635873    30A     -0.619279
      31A     -0.613900    32A     -0.588939    33A     -0.584679
      34A     -0.553963    35A     -0.544052    36A     -0.534801
      37A     -0.512328    38A     -0.507157    39A     -0.502190
      40A     -0.455409    41A     -0.445138    42A     -0.429394
      43A     -0.352583    44A     -0.294023

  @DF-RHF Final Energy:  -551.59877202363464

   => Energetics <=

    Nuclear Repulsion Energy =            688.6259959878424297
    One-Electron Energy =               -2117.6263424538697109
    Two-Electron Energy =                 877.4015744423925298
    Total Energy =                       -551.5987720236346377
  Basis Set: (AUG-CC-PVTZ AUX)
    Blend: AUG-CC-PVTZ-RI
    Molecular point group: c1

    Geometry (in Angstrom), charge = 0, multiplicity = 1:

       Center              X                  Y                   Z               Mass
    ------------   -----------------  -----------------  -----------------  -----------------
         O            2.518532561336     0.455098702675    -0.046703937765    15.994914619570
         O            1.554611461336    -1.531499497325     0.092366562235    15.994914619570
         N           -1.139229538664    -1.701669497325    -0.148285437765    14.003074004430
         C           -1.116671538664    -0.332404497325    -0.047346437765    12.000000000000
         C            0.106654461336     0.398128502675    -0.025214437765    12.000000000000
         C           -2.320376538664     0.407048502675    -0.044064437765    12.000000000000
         C            0.085030461336     1.801503502675     0.038684562235    12.000000000000
         C           -2.315456538664     1.794288502675     0.014699562235    12.000000000000
         C           -1.111599538664     2.504575502675     0.043475562235    12.000000000000
         C            1.401230461336    -0.311142497325     0.012928562235    12.000000000000
         C           -2.345835538664    -2.468041497325     0.076313562235    12.000000000000
         C            3.741755461336    -0.129383497325    -0.003940437765    12.000000000000
         H           -3.270206538664    -0.117215497325    -0.066321437765     1.007825032230
         H            1.030653461336     2.332597502675     0.066746562235     1.007825032230
         H           -0.250095538664    -2.151284497325     0.040859562235     1.007825032230
         H           -3.264293538664     2.326941502675     0.021833562235     1.007825032230
         H           -1.109530538664     3.589791502675     0.092617562235     1.007825032230
         H           -2.818009538664    -2.247925497325     1.043987562235     1.007825032230
         H           -2.081333538664    -3.526476497325     0.051267562235     1.007825032230
         H           -3.081321538664    -2.287838497325    -0.714589437765     1.007825032230
         H            3.848563461336    -0.814149497325    -0.846434437765     1.007825032230
         H            3.850377461336    -0.686068497325     0.928025562235     1.007825032230
         H            4.472461461336     0.675044502675    -0.062688437765     1.007825032230

  Basis Set: AUG-CC-PVTZ
    Blend: AUG-CC-PVTZ
  Basis Set: (AUG-CC-PVTZ AUX)
    Blend: AUG-CC-PVTZ-JKFIT
	 Reference Energy          =    -551.5987720236346377 [Eh]
	 Singles Energy            =      -0.0000000000000000 [Eh]
	 Same-Spin Energy          =      -0.5782941751259434 [Eh]
	 Opposite-Spin Energy      =      -1.7974879841213101 [Eh]
	 Correlation Energy        =      -2.3757821592472537 [Eh]
	 Total Energy              =    -553.9745541828818887 [Eh]

	 ================> DF-SCS-MP2 Energies <==================
	-----------------------------------------------------------
	 SCS Same-Spin Scale       =       0.3333333333333333 [-]
	 SCS Opposite-Spin Scale   =       1.2000000000000000 [-]
	 SCS Same-Spin Energy      =      -0.1927647250419811 [Eh]
	 SCS Opposite-Spin Energy  =      -2.1569855809455718 [Eh]
	 SCS Correlation Energy    =      -2.3497503059875529 [Eh]
	 SCS Total Energy          =    -553.9485223296221648 [Eh]
	-----------------------------------------------------------

  Dipole Moment: [D]
     X:    -0.5915      Y:     0.0907      Z:     0.3170     Total:     0.6772

*** Psi4 exiting successfully. Buy a developer a beer!
