                               Psi4 1.3.2 release

  ==> Input File <==

--------------------------------------------------------------------------
#psi4
#
memory 32 gb

molecule  {
0 1
  O        2.4881450     0.5529559    -0.0330592
  O        1.5746620    -1.5220150     0.0896580
  N       -1.1191790    -1.6921850    -0.1509940
  C       -1.0966210    -0.3229200    -0.0500550
  C        0.1267050     0.4076130    -0.0279230
  C       -2.3003260     0.4165330    -0.0467730
  C        0.1050810     1.8109880     0.0359760
  C       -2.2954060     1.8037730     0.0119910
  C       -1.0915490     2.5140600     0.0407670
  C        1.4212810    -0.3016580     0.0102200
  C       -2.3257850    -2.4585570     0.0736050
  C        3.7618060    -0.1198990    -0.0066490
  H       -3.2501560    -0.1077310    -0.0690300
  H        1.0507040     2.3420820     0.0640380
  H       -0.2300450    -2.1418000     0.0381510
  H       -3.2442430     2.3364260     0.0191250
  H       -1.0894800     3.5992760     0.0899090
  H       -2.7979590    -2.2384410     1.0412790
  H       -2.0612830    -3.5169920     0.0485590
  H       -3.0612710    -2.2783540    -0.7172980
  H        3.8686140    -0.8046650    -0.8491430
  H        3.8704280    -0.6765840     0.9253170
  H        4.4925120     0.6845290    -0.0653970
units angstrom
no_reorient  #important for SAPT in psi4, default
symmetry c1  #important for SAPT in psi4, default
}

set PROPERTIES_ORIGIN ["COM"]
properties('MP2/aug-cc-pvtz', properties = ['dipole'])
--------------------------------------------------------------------------

    Molecular point group: c1
  Charge       = 0
  Multiplicity = 1
  Basis Set: AUG-CC-PVTZ
    Blend: AUG-CC-PVTZ
  Basis Set: (AUG-CC-PVTZ AUX)
    Blend: AUG-CC-PVTZ-JKFIT

    Orbital Energies [Eh]
    ---------------------

    Doubly Occupied:

       1A    -20.602338     2A    -20.543818     3A    -15.563619
       4A    -11.387007     5A    -11.298755     6A    -11.283236
       7A    -11.258685     8A    -11.252071     9A    -11.250181
      10A    -11.240140    11A    -11.227816    12A    -11.223592
      13A     -1.450468    14A     -1.350498    15A     -1.246016
      16A     -1.142350    17A     -1.046006    18A     -1.009907
      19A     -0.966311    20A     -0.923298    21A     -0.864843
      22A     -0.809288    23A     -0.784019    24A     -0.727697
      25A     -0.700470    26A     -0.672915    27A     -0.666654
      28A     -0.661011    29A     -0.629155    30A     -0.616736
      31A     -0.612162    32A     -0.583626    33A     -0.575343
      34A     -0.555823    35A     -0.542492    36A     -0.535337
      37A     -0.525395    38A     -0.506746    39A     -0.501268
      40A     -0.465770    41A     -0.445125    42A     -0.427845
      43A     -0.349664    44A     -0.291846

  @DF-RHF Final Energy:  -551.60060227758572

   => Energetics <=

    Nuclear Repulsion Energy =            687.6679581891090720
    One-Electron Energy =               -2115.9024350646964194
    Two-Electron Energy =                 876.6338745980017393
    Total Energy =                       -551.6006022775857218
  Basis Set: (AUG-CC-PVTZ AUX)
    Blend: AUG-CC-PVTZ-RI
    Molecular point group: c1

    Geometry (in Angstrom), charge = 0, multiplicity = 1:

       Center              X                  Y                   Z               Mass
    ------------   -----------------  -----------------  -----------------  -----------------
         O            2.472981534844     0.534908751008    -0.031935149854    15.994914619570
         O            1.559498534844    -1.540062148992     0.090782050146    15.994914619570
         N           -1.134342465156    -1.710232148992    -0.149869949854    14.003074004430
         C           -1.111784465156    -0.340967148992    -0.048930949854    12.000000000000
         C            0.111541534844     0.389565851008    -0.026798949854    12.000000000000
         C           -2.315489465156     0.398485851008    -0.045648949854    12.000000000000
         C            0.089917534844     1.792940851008     0.037100050146    12.000000000000
         C           -2.310569465156     1.785725851008     0.013115050146    12.000000000000
         C           -1.106712465156     2.496012851008     0.041891050146    12.000000000000
         C            1.406117534844    -0.319705148992     0.011344050146    12.000000000000
         C           -2.340948465156    -2.476604148992     0.074729050146    12.000000000000
         C            3.746642534844    -0.137946148992    -0.005524949854    12.000000000000
         H           -3.265319465156    -0.125778148992    -0.067905949854     1.007825032230
         H            1.035540534844     2.324034851008     0.065162050146     1.007825032230
         H           -0.245208465156    -2.159847148992     0.039275050146     1.007825032230
         H           -3.259406465156     2.318378851008     0.020249050146     1.007825032230
         H           -1.104643465156     3.581228851008     0.091033050146     1.007825032230
         H           -2.813122465156    -2.256488148992     1.042403050146     1.007825032230
         H           -2.076446465156    -3.535039148992     0.049683050146     1.007825032230
         H           -3.076434465156    -2.296401148992    -0.716173949854     1.007825032230
         H            3.853450534844    -0.822712148992    -0.848018949854     1.007825032230
         H            3.855264534844    -0.694631148992     0.926441050146     1.007825032230
         H            4.477348534844     0.666481851008    -0.064272949854     1.007825032230

  Basis Set: AUG-CC-PVTZ
    Blend: AUG-CC-PVTZ
  Basis Set: (AUG-CC-PVTZ AUX)
    Blend: AUG-CC-PVTZ-JKFIT
	 Reference Energy          =    -551.6006022775857218 [Eh]
	 Singles Energy            =      -0.0000000000000000 [Eh]
	 Same-Spin Energy          =      -0.5790900093817215 [Eh]
	 Opposite-Spin Energy      =      -1.8003748646077820 [Eh]
	 Correlation Energy        =      -2.3794648739895035 [Eh]
	 Total Energy              =    -553.9800671515752128 [Eh]

	 ================> DF-SCS-MP2 Energies <==================
	-----------------------------------------------------------
	 SCS Same-Spin Scale       =       0.3333333333333333 [-]
	 SCS Opposite-Spin Scale   =       1.2000000000000000 [-]
	 SCS Same-Spin Energy      =      -0.1930300031272405 [Eh]
	 SCS Opposite-Spin Energy  =      -2.1604498375293382 [Eh]
	 SCS Correlation Energy    =      -2.3534798406565787 [Eh]
	 SCS Total Energy          =    -553.9540821182423542 [Eh]
	-----------------------------------------------------------

  Dipole Moment: [D]
     X:    -0.2464      Y:    -0.1322      Z:     0.3035     Total:     0.4126

*** Psi4 exiting successfully. Buy a developer a beer!
