                               Psi4 1.3.2 release

  ==> Input File <==

--------------------------------------------------------------------------
#psi4
#
memory 32 gb

molecule  {
0 1
  O        2.4822540     0.5405090    -0.0540980
  O        1.5746620    -1.5220150     0.0896580
  N       -1.1191790    -1.6921850    -0.1509940
  C       -1.0732968    -0.3231081    -0.0555607
  C        0.1267050     0.4076130    -0.0279230
  C       -2.3003260     0.4165330    -0.0467730
  C        0.1050810     1.8109880     0.0359760
  C       -2.2954060     1.8037730     0.0119910
  C       -1.0915490     2.5140600     0.0407670
  C        1.4212810    -0.3016580     0.0102200
  C       -2.3257850    -2.4585570     0.0736050
  C        3.7618060    -0.1198990    -0.0066490
  H       -3.2501560    -0.1077310    -0.0690300
  H        1.0507040     2.3420820     0.0640380
  H       -0.2300450    -2.1418000     0.0381510
  H       -3.2442430     2.3364260     0.0191250
  H       -1.0894800     3.5992760     0.0899090
  H       -2.7979590    -2.2384410     1.0412790
  H       -2.0612830    -3.5169920     0.0485590
  H       -3.0612710    -2.2783540    -0.7172980
  H        3.8686140    -0.8046650    -0.8491430
  H        3.8704280    -0.6765840     0.9253170
  H        4.4925120     0.6845290    -0.0653970
units angstrom
no_reorient  #important for SAPT in psi4, default
symmetry c1  #important for SAPT in psi4, default
}

set PROPERTIES_ORIGIN ["COM"]
properties('MP2/aug-cc-pvtz', properties = ['dipole'])
--------------------------------------------------------------------------

    Molecular point group: c1
  Charge       = 0
  Multiplicity = 1
  Basis Set: AUG-CC-PVTZ
    Blend: AUG-CC-PVTZ
  Basis Set: (AUG-CC-PVTZ AUX)
    Blend: AUG-CC-PVTZ-JKFIT

    Orbital Energies [Eh]
    ---------------------

    Doubly Occupied:

       1A    -20.602870     2A    -20.541969     3A    -15.563369
       4A    -11.385524     5A    -11.298741     6A    -11.284349
       7A    -11.259245     8A    -11.250726     9A    -11.249483
      10A    -11.238036    11A    -11.229691    12A    -11.223294
      13A     -1.454218    14A     -1.350217    15A     -1.245602
      16A     -1.142235    17A     -1.046964    18A     -1.008234
      19A     -0.968839    20A     -0.923682    21A     -0.862990
      22A     -0.810862    23A     -0.784544    24A     -0.728708
      25A     -0.698852    26A     -0.672753    27A     -0.668770
      28A     -0.661769    29A     -0.629908    30A     -0.614928
      31A     -0.612149    32A     -0.584128    33A     -0.576609
      34A     -0.556305    35A     -0.542427    36A     -0.534725
      37A     -0.523434    38A     -0.506692    39A     -0.503133
      40A     -0.465421    41A     -0.444032    42A     -0.427632
      43A     -0.349495    44A     -0.291227

  @DF-RHF Final Energy:  -551.60110379104992

   => Energetics <=

    Nuclear Repulsion Energy =            688.1254970538949465
    One-Electron Energy =               -2116.8156474424463340
    Two-Electron Energy =                 877.0890465975015786
    Total Energy =                       -551.6011037910499226
  Basis Set: (AUG-CC-PVTZ AUX)
    Blend: AUG-CC-PVTZ-RI
    Molecular point group: c1

    Geometry (in Angstrom), charge = 0, multiplicity = 1:

       Center              X                  Y                   Z               Mass
    ------------   -----------------  -----------------  -----------------  -----------------
         O            2.465965834658     0.523681535698    -0.050535224990    15.994914619570
         O            1.558373834658    -1.538842464302     0.093220775010    15.994914619570
         N           -1.135467165342    -1.709012464302    -0.147431224990    14.003074004430
         C           -1.089584965342    -0.339935564302    -0.051997924990    12.000000000000
         C            0.110416834658     0.390785535698    -0.024360224990    12.000000000000
         C           -2.316614165342     0.399705535698    -0.043210224990    12.000000000000
         C            0.088792834658     1.794160535698     0.039538775010    12.000000000000
         C           -2.311694165342     1.786945535698     0.015553775010    12.000000000000
         C           -1.107837165342     2.497232535698     0.044329775010    12.000000000000
         C            1.404992834658    -0.318485464302     0.013782775010    12.000000000000
         C           -2.342073165342    -2.475384464302     0.077167775010    12.000000000000
         C            3.745517834658    -0.136726464302    -0.003086224990    12.000000000000
         H           -3.266444165342    -0.124558464302    -0.065467224990     1.007825032230
         H            1.034415834658     2.325254535698     0.067600775010     1.007825032230
         H           -0.246333165342    -2.158627464302     0.041713775010     1.007825032230
         H           -3.260531165342     2.319598535698     0.022687775010     1.007825032230
         H           -1.105768165342     3.582448535698     0.093471775010     1.007825032230
         H           -2.814247165342    -2.255268464302     1.044841775010     1.007825032230
         H           -2.077571165342    -3.533819464302     0.052121775010     1.007825032230
         H           -3.077559165342    -2.295181464302    -0.713735224990     1.007825032230
         H            3.852325834658    -0.821492464302    -0.845580224990     1.007825032230
         H            3.854139834658    -0.693411464302     0.928879775010     1.007825032230
         H            4.476223834658     0.667701535698    -0.061834224990     1.007825032230

  Basis Set: AUG-CC-PVTZ
    Blend: AUG-CC-PVTZ
  Basis Set: (AUG-CC-PVTZ AUX)
    Blend: AUG-CC-PVTZ-JKFIT
	 Reference Energy          =    -551.6011037910499226 [Eh]
	 Singles Energy            =      -0.0000000000000000 [Eh]
	 Same-Spin Energy          =      -0.5788627216537029 [Eh]
	 Opposite-Spin Energy      =      -1.7999578684507682 [Eh]
	 Correlation Energy        =      -2.3788205901044712 [Eh]
	 Total Energy              =    -553.9799243811544329 [Eh]

	 ================> DF-SCS-MP2 Energies <==================
	-----------------------------------------------------------
	 SCS Same-Spin Scale       =       0.3333333333333333 [-]
	 SCS Opposite-Spin Scale   =       1.2000000000000000 [-]
	 SCS Same-Spin Energy      =      -0.1929542405512343 [Eh]
	 SCS Opposite-Spin Energy  =      -2.1599494421409218 [Eh]
	 SCS Correlation Energy    =      -2.3529036826921561 [Eh]
	 SCS Total Energy          =    -553.9540074737420809 [Eh]
	-----------------------------------------------------------

  Dipole Moment: [D]
     X:    -0.1836      Y:    -0.1182      Z:     0.3263     Total:     0.3926

*** Psi4 exiting successfully. Buy a developer a beer!
