                               Psi4 1.3.2 release

  ==> Input File <==

--------------------------------------------------------------------------
#psi4
#
memory 32 gb

molecule  {
0 1
  O        2.4822540     0.5405090    -0.0540980
  O        1.5746620    -1.5220150     0.0896580
  N       -1.1191790    -1.6921850    -0.1509940
  C       -1.0966210    -0.3229200    -0.0500550
  C        0.1267050     0.4076130    -0.0279230
  C       -2.3003260     0.4165330    -0.0467730
  C        0.1050810     1.8109880     0.0359760
  C       -2.2954060     1.8037730     0.0119910
  C       -1.0915490     2.5140600     0.0407670
  C        1.4212810    -0.3016580     0.0102200
  C       -2.4925640    -2.5644862     0.1046494
  C        3.7618060    -0.1198990    -0.0066490
  H       -3.2501560    -0.1077310    -0.0690300
  H        1.0507040     2.3420820     0.0640380
  H       -0.2300450    -2.1418000     0.0381510
  H       -3.2442430     2.3364260     0.0191250
  H       -1.0894800     3.5992760     0.0899090
  H       -2.7979590    -2.2384410     1.0412790
  H       -2.0612830    -3.5169920     0.0485590
  H       -3.0612710    -2.2783540    -0.7172980
  H        3.8686140    -0.8046650    -0.8491430
  H        3.8704280    -0.6765840     0.9253170
  H        4.4925120     0.6845290    -0.0653970
units angstrom
no_reorient  #important for SAPT in psi4, default
symmetry c1  #important for SAPT in psi4, default
}

set PROPERTIES_ORIGIN ["COM"]
properties('MP2/aug-cc-pvtz', properties = ['dipole'])
--------------------------------------------------------------------------

    Molecular point group: c1
  Charge       = 0
  Multiplicity = 1
  Basis Set: AUG-CC-PVTZ
    Blend: AUG-CC-PVTZ
  Basis Set: (AUG-CC-PVTZ AUX)
    Blend: AUG-CC-PVTZ-JKFIT

    Orbital Energies [Eh]
    ---------------------

    Doubly Occupied:

       1A    -20.599420     2A    -20.537591     3A    -15.558128
       4A    -11.381382     5A    -11.294142     6A    -11.281918
       7A    -11.266413     8A    -11.248800     9A    -11.246583
      10A    -11.234171    11A    -11.223760    12A    -11.218753
      13A     -1.450489    14A     -1.345996    15A     -1.217281
      16A     -1.130735    17A     -1.041858    18A     -1.001528
      19A     -0.967259    20A     -0.937029    21A     -0.859815
      22A     -0.806028    23A     -0.779359    24A     -0.722871
      25A     -0.691812    26A     -0.669487    27A     -0.665515
      28A     -0.645352    29A     -0.632751    30A     -0.621783
      31A     -0.618689    32A     -0.574962    33A     -0.573379
      34A     -0.556264    35A     -0.543261    36A     -0.529459
      37A     -0.522406    38A     -0.509534    39A     -0.492159
      40A     -0.462101    41A     -0.438141    42A     -0.430253
      43A     -0.346524    44A     -0.285107

  @DF-RHF Final Energy:  -551.57321585240265

   => Energetics <=

    Nuclear Repulsion Energy =            684.2777167899870392
    One-Electron Energy =               -2109.3813693705174046
    Two-Electron Energy =                 873.5304367281275972
    Total Energy =                       -551.5732158524026545
  Basis Set: (AUG-CC-PVTZ AUX)
    Blend: AUG-CC-PVTZ-RI
    Molecular point group: c1

    Geometry (in Angstrom), charge = 0, multiplicity = 1:

       Center              X                  Y                   Z               Mass
    ------------   -----------------  -----------------  -----------------  -----------------
         O            2.479784907319     0.531368118271    -0.053192142325    15.994914619570
         O            1.572192907319    -1.531155881729     0.090563857675    15.994914619570
         N           -1.121648092681    -1.701325881729    -0.150088142325    14.003074004430
         C           -1.099090092681    -0.332060881729    -0.049149142325    12.000000000000
         C            0.124235907319     0.398472118271    -0.027017142325    12.000000000000
         C           -2.302795092681     0.407392118271    -0.045867142325    12.000000000000
         C            0.102611907319     1.801847118271     0.036881857675    12.000000000000
         C           -2.297875092681     1.794632118271     0.012896857675    12.000000000000
         C           -1.094018092681     2.504919118271     0.041672857675    12.000000000000
         C            1.418811907319    -0.310798881729     0.011125857675    12.000000000000
         C           -2.495033092681    -2.573627081729     0.105555257675    12.000000000000
         C            3.759336907319    -0.129039881729    -0.005743142325    12.000000000000
         H           -3.252625092681    -0.116871881729    -0.068124142325     1.007825032230
         H            1.048234907319     2.332941118271     0.064943857675     1.007825032230
         H           -0.232514092681    -2.150940881729     0.039056857675     1.007825032230
         H           -3.246712092681     2.327285118271     0.020030857675     1.007825032230
         H           -1.091949092681     3.590135118271     0.090814857675     1.007825032230
         H           -2.800428092681    -2.247581881729     1.042184857675     1.007825032230
         H           -2.063752092681    -3.526132881729     0.049464857675     1.007825032230
         H           -3.063740092681    -2.287494881729    -0.716392142325     1.007825032230
         H            3.866144907319    -0.813805881729    -0.848237142325     1.007825032230
         H            3.867958907319    -0.685724881729     0.926222857675     1.007825032230
         H            4.490042907319     0.675388118271    -0.064491142325     1.007825032230

  Basis Set: AUG-CC-PVTZ
    Blend: AUG-CC-PVTZ
  Basis Set: (AUG-CC-PVTZ AUX)
    Blend: AUG-CC-PVTZ-JKFIT
	 Reference Energy          =    -551.5732158524026545 [Eh]
	 Singles Energy            =      -0.0000000000000000 [Eh]
	 Same-Spin Energy          =      -0.5788857658141655 [Eh]
	 Opposite-Spin Energy      =      -1.8020901258093234 [Eh]
	 Correlation Energy        =      -2.3809758916234891 [Eh]
	 Total Energy              =    -553.9541917440261614 [Eh]

	 ================> DF-SCS-MP2 Energies <==================
	-----------------------------------------------------------
	 SCS Same-Spin Scale       =       0.3333333333333333 [-]
	 SCS Opposite-Spin Scale   =       1.2000000000000000 [-]
	 SCS Same-Spin Energy      =      -0.1929619219380552 [Eh]
	 SCS Opposite-Spin Energy  =      -2.1625081509711879 [Eh]
	 SCS Correlation Energy    =      -2.3554700729092430 [Eh]
	 SCS Total Energy          =    -553.9286859253119246 [Eh]
	-----------------------------------------------------------

  Dipole Moment: [D]
     X:    -0.6313      Y:    -0.5366      Z:     0.4079     Total:     0.9235

*** Psi4 exiting successfully. Buy a developer a beer!
