                               Psi4 1.3.2 release

  ==> Input File <==

--------------------------------------------------------------------------
#psi4
#
memory 32 gb

molecule  {
0 1
  O        2.4822540     0.5405090    -0.0540980
  O        1.5746620    -1.5220150     0.0896580
  N       -1.1191790    -1.6921850    -0.1509940
  C       -1.0966210    -0.3229200    -0.0500550
  C        0.1267050     0.4076130    -0.0279230
  C       -2.3003260     0.4165330    -0.0467730
  C        0.1050810     1.8109880     0.0359760
  C       -2.2954060     1.8037730     0.0119910
  C       -1.0915490     2.5140600     0.0407670
  C        1.3963920    -0.1036318    -0.0026703
  C       -2.3257850    -2.4585570     0.0736050
  C        3.7618060    -0.1198990    -0.0066490
  H       -3.2501560    -0.1077310    -0.0690300
  H        1.0507040     2.3420820     0.0640380
  H       -0.2300450    -2.1418000     0.0381510
  H       -3.2442430     2.3364260     0.0191250
  H       -1.0894800     3.5992760     0.0899090
  H       -2.7979590    -2.2384410     1.0412790
  H       -2.0612830    -3.5169920     0.0485590
  H       -3.0612710    -2.2783540    -0.7172980
  H        3.8686140    -0.8046650    -0.8491430
  H        3.8704280    -0.6765840     0.9253170
  H        4.4925120     0.6845290    -0.0653970
units angstrom
no_reorient  #important for SAPT in psi4, default
symmetry c1  #important for SAPT in psi4, default
}

set PROPERTIES_ORIGIN ["COM"]
properties('MP2/aug-cc-pvtz', properties = ['dipole'])
--------------------------------------------------------------------------

    Molecular point group: c1
  Charge       = 0
  Multiplicity = 1
  Basis Set: AUG-CC-PVTZ
    Blend: AUG-CC-PVTZ
  Basis Set: (AUG-CC-PVTZ AUX)
    Blend: AUG-CC-PVTZ-JKFIT

    Orbital Energies [Eh]
    ---------------------

    Doubly Occupied:

       1A    -20.620563     2A    -20.492695     3A    -15.564553
       4A    -11.381895     5A    -11.310803     6A    -11.293563
       7A    -11.262799     8A    -11.258919     9A    -11.258160
      10A    -11.237330    11A    -11.233997    12A    -11.228796
      13A     -1.480706    14A     -1.256974    15A     -1.222379
      16A     -1.153651    17A     -1.069245    18A     -1.015685
      19A     -0.990877    20A     -0.929225    21A     -0.880265
      22A     -0.818209    23A     -0.789739    24A     -0.744107
      25A     -0.699190    26A     -0.680734    27A     -0.677050
      28A     -0.662906    29A     -0.633304    30A     -0.613627
      31A     -0.611782    32A     -0.590363    33A     -0.569939
      34A     -0.551855    35A     -0.543963    36A     -0.531716
      37A     -0.511478    38A     -0.510064    39A     -0.478776
      40A     -0.433422    41A     -0.414598    42A     -0.409069
      43A     -0.354558    44A     -0.296394

  @DF-RHF Final Energy:  -551.54034606898767

   => Energetics <=

    Nuclear Repulsion Energy =            688.2173118979649189
    One-Electron Energy =               -2116.9754647705599382
    Two-Electron Energy =                 877.2178068036073455
    Total Energy =                       -551.5403460689876738
  Basis Set: (AUG-CC-PVTZ AUX)
    Blend: AUG-CC-PVTZ-RI
    Molecular point group: c1

    Geometry (in Angstrom), charge = 0, multiplicity = 1:

       Center              X                  Y                   Z               Mass
    ------------   -----------------  -----------------  -----------------  -----------------
         O            2.469470571633     0.509272847080    -0.049998420118    15.994914619570
         O            1.561878571633    -1.553251152920     0.093757579882    15.994914619570
         N           -1.131962428367    -1.723421152920    -0.146894420118    14.003074004430
         C           -1.109404428367    -0.354156152920    -0.045955420118    12.000000000000
         C            0.113921571633     0.376376847080    -0.023823420118    12.000000000000
         C           -2.313109428367     0.385296847080    -0.042673420118    12.000000000000
         C            0.092297571633     1.779751847080     0.040075579882    12.000000000000
         C           -2.308189428367     1.772536847080     0.016090579882    12.000000000000
         C           -1.104332428367     2.482823847080     0.044866579882    12.000000000000
         C            1.383608571633    -0.134867952920     0.001429279882    12.000000000000
         C           -2.338568428367    -2.489793152920     0.077704579882    12.000000000000
         C            3.749022571633    -0.151135152920    -0.002549420118    12.000000000000
         H           -3.262939428367    -0.138967152920    -0.064930420118     1.007825032230
         H            1.037920571633     2.310845847080     0.068137579882     1.007825032230
         H           -0.242828428367    -2.173036152920     0.042250579882     1.007825032230
         H           -3.257026428367     2.305189847080     0.023224579882     1.007825032230
         H           -1.102263428367     3.568039847080     0.094008579882     1.007825032230
         H           -2.810742428367    -2.269677152920     1.045378579882     1.007825032230
         H           -2.074066428367    -3.548228152920     0.052658579882     1.007825032230
         H           -3.074054428367    -2.309590152920    -0.713198420118     1.007825032230
         H            3.855830571633    -0.835901152920    -0.845043420118     1.007825032230
         H            3.857644571633    -0.707820152920     0.929416579882     1.007825032230
         H            4.479728571633     0.653292847080    -0.061297420118     1.007825032230

  Basis Set: AUG-CC-PVTZ
    Blend: AUG-CC-PVTZ
  Basis Set: (AUG-CC-PVTZ AUX)
    Blend: AUG-CC-PVTZ-JKFIT
	 Reference Energy          =    -551.5403460689876738 [Eh]
	 Singles Energy            =      -0.0000000000000000 [Eh]
	 Same-Spin Energy          =      -0.5825342882343464 [Eh]
	 Opposite-Spin Energy      =      -1.8067661367365893 [Eh]
	 Correlation Energy        =      -2.3893004249709358 [Eh]
	 Total Energy              =    -553.9296464939585576 [Eh]

	 ================> DF-SCS-MP2 Energies <==================
	-----------------------------------------------------------
	 SCS Same-Spin Scale       =       0.3333333333333333 [-]
	 SCS Opposite-Spin Scale   =       1.2000000000000000 [-]
	 SCS Same-Spin Energy      =      -0.1941780960781155 [Eh]
	 SCS Opposite-Spin Energy  =      -2.1681193640839069 [Eh]
	 SCS Correlation Energy    =      -2.3622974601620226 [Eh]
	 SCS Total Energy          =    -553.9026435291497137 [Eh]
	-----------------------------------------------------------

  Dipole Moment: [D]
     X:    -0.4161      Y:     0.9885      Z:     0.2306     Total:     1.0971

*** Psi4 exiting successfully. Buy a developer a beer!
