                               Psi4 1.4a3.dev225

  ==> Input File <==

--------------------------------------------------------------------------
#psi4
#
memory 32 gb

molecule  {
0 1
  O        2.4822540     0.5405090    -0.0540980
  O        1.5746620    -1.5220150     0.0896580
  N       -1.1191790    -1.6921850    -0.1509940
  C       -1.0966210    -0.3229200    -0.0500550
  C        0.1267050     0.4076130    -0.0279230
  C       -2.3003260     0.4165330    -0.0467730
  C        0.1050810     1.8109880     0.0359760
  C       -2.2954060     1.8037730     0.0119910
  C       -1.0915490     2.5140600     0.0407670
  C        1.4212810    -0.3016580     0.0102200
  C       -2.3424629    -2.4691499     0.0767094
  C        3.7618060    -0.1198990    -0.0066490
  H       -3.2501560    -0.1077310    -0.0690300
  H        1.0507040     2.3420820     0.0640380
  H       -0.2300450    -2.1418000     0.0381510
  H       -3.2442430     2.3364260     0.0191250
  H       -1.0894800     3.5992760     0.0899090
  H       -2.7979590    -2.2384410     1.0412790
  H       -2.0612830    -3.5169920     0.0485590
  H       -3.0612710    -2.2783540    -0.7172980
  H        3.8686140    -0.8046650    -0.8491430
  H        3.8704280    -0.6765840     0.9253170
  H        4.4925120     0.6845290    -0.0653970
units angstrom
no_reorient  #important for SAPT in psi4, default
symmetry c1  #important for SAPT in psi4, default
}

set PROPERTIES_ORIGIN ["COM"]
properties('MP2/aug-cc-pvtz', properties = ['dipole'])
--------------------------------------------------------------------------

    Molecular point group: c1
  Charge       = 0
  Multiplicity = 1
  Basis Set: AUG-CC-PVTZ
    Blend: AUG-CC-PVTZ
  Basis Set: (AUG-CC-PVTZ AUX)
    Blend: AUG-CC-PVTZ-JKFIT

    Orbital Energies [Eh]
    ---------------------

    Doubly Occupied:

       1A    -20.602393     2A    -20.541340     3A    -15.562849
       4A    -11.385161     5A    -11.297961     6A    -11.284049
       7A    -11.258529     8A    -11.251457     9A    -11.249640
      10A    -11.239134    11A    -11.227155    12A    -11.222897
      13A     -1.453677    14A     -1.349563    15A     -1.241815
      16A     -1.140858    17A     -1.045633    18A     -1.008575
      19A     -0.968171    20A     -0.924699    21A     -0.863982
      22A     -0.808835    23A     -0.783722    24A     -0.727978
      25A     -0.699066    26A     -0.672932    27A     -0.668282
      28A     -0.658452    29A     -0.628228    30A     -0.616357
      31A     -0.612901    32A     -0.579709    33A     -0.576158
      34A     -0.555998    35A     -0.546179    36A     -0.534816
      37A     -0.524698    38A     -0.507340    39A     -0.500597
      40A     -0.464970    41A     -0.444210    42A     -0.428456
      43A     -0.349125    44A     -0.290896

  @DF-RHF Final Energy:  -551.60139646976904

   => Energetics <=

    Nuclear Repulsion Energy =            687.5955680149858154
    One-Electron Energy =               -2115.7950406225468214
    Two-Electron Energy =                 876.5980761377918498
    Total Energy =                       -551.6013964697690426
  Basis Set: (AUG-CC-PVTZ AUX)
    Blend: AUG-CC-PVTZ-RI
    Molecular point group: c1

    Geometry (in Angstrom), charge = 0, multiplicity = 1:

       Center              X                  Y                   Z               Mass
    ------------   -----------------  -----------------  -----------------  -----------------
         O            2.468873686428     0.524437886392    -0.051161114494    15.994914619570
         O            1.561281686428    -1.538086113608     0.092594885506    15.994914619570
         N           -1.132559313572    -1.708256113608    -0.148057114494    14.003074004430
         C           -1.110001313572    -0.338991113608    -0.047118114494    12.000000000000
         C            0.113324686428     0.391541886392    -0.024986114494    12.000000000000
         C           -2.313706313572     0.400461886392    -0.043836114494    12.000000000000
         C            0.091700686428     1.794916886392     0.038912885506    12.000000000000
         C           -2.308786313572     1.787701886392     0.014927885506    12.000000000000
         C           -1.104929313572     2.497988886392     0.043703885506    12.000000000000
         C            1.407900686428    -0.317729113608     0.013156885506    12.000000000000
         C           -2.355843213572    -2.485221013608     0.079646285506    12.000000000000
         C            3.748425686428    -0.135970113608    -0.003712114494    12.000000000000
         H           -3.263536313572    -0.123802113608    -0.066093114494     1.007825032230
         H            1.037323686428     2.326010886392     0.066974885506     1.007825032230
         H           -0.243425313572    -2.157871113608     0.041087885506     1.007825032230
         H           -3.257623313572     2.320354886392     0.022061885506     1.007825032230
         H           -1.102860313572     3.583204886392     0.092845885506     1.007825032230
         H           -2.811339313572    -2.254512113608     1.044215885506     1.007825032230
         H           -2.074663313572    -3.533063113608     0.051495885506     1.007825032230
         H           -3.074651313572    -2.294425113608    -0.714361114494     1.007825032230
         H            3.855233686428    -0.820736113608    -0.846206114494     1.007825032230
         H            3.857047686428    -0.692655113608     0.928253885506     1.007825032230
         H            4.479131686428     0.668457886392    -0.062460114494     1.007825032230

  Basis Set: AUG-CC-PVTZ
    Blend: AUG-CC-PVTZ
  Basis Set: (AUG-CC-PVTZ AUX)
    Blend: AUG-CC-PVTZ-JKFIT
	 Reference Energy          =    -551.6013964697690426 [Eh]
	 Singles Energy            =      -0.0000000000000000 [Eh]
	 Same-Spin Energy          =      -0.5787944847093032 [Eh]
	 Opposite-Spin Energy      =      -1.7998861244628268 [Eh]
	 Correlation Energy        =      -2.3786806091721298 [Eh]
	 Total Energy              =    -553.9800770789411217 [Eh]

	 ================> DF-SCS-MP2 Energies <==================
	-----------------------------------------------------------
	 SCS Same-Spin Scale       =       0.3333333333333333 [-]
	 SCS Opposite-Spin Scale   =       1.2000000000000000 [-]
	 SCS Same-Spin Energy      =      -0.1929314949031010 [Eh]
	 SCS Opposite-Spin Energy  =      -2.1598633493553923 [Eh]
	 SCS Correlation Energy    =      -2.3527948442584932 [Eh]
	 SCS Total Energy          =    -553.9541913140275256 [Eh]
	-----------------------------------------------------------

  Dipole Moment: [D]
     X:    -0.2274      Y:    -0.1469      Z:     0.3369     Total:     0.4322

*** Psi4 exiting successfully. Buy a developer a beer!
