                               Psi4 1.3.2 release

  ==> Input File <==

--------------------------------------------------------------------------
#psi4
#
memory 32 gb

molecule  {
0 1
  O        2.4822540     0.5405090    -0.0540980
  O        1.5746620    -1.5220150     0.0896580
  N       -1.1191790    -1.6921850    -0.1509940
  C       -1.0034364    -0.3261738    -0.0722456
  C        0.1267050     0.4076130    -0.0279230
  C       -2.3003260     0.4165330    -0.0467730
  C        0.1050810     1.8109880     0.0359760
  C       -2.2954060     1.8037730     0.0119910
  C       -1.0915490     2.5140600     0.0407670
  C        1.4212810    -0.3016580     0.0102200
  C       -2.3257850    -2.4585570     0.0736050
  C        3.7618060    -0.1198990    -0.0066490
  H       -3.2501560    -0.1077310    -0.0690300
  H        1.0507040     2.3420820     0.0640380
  H       -0.2300450    -2.1418000     0.0381510
  H       -3.2442430     2.3364260     0.0191250
  H       -1.0894800     3.5992760     0.0899090
  H       -2.7979590    -2.2384410     1.0412790
  H       -2.0612830    -3.5169920     0.0485590
  H       -3.0612710    -2.2783540    -0.7172980
  H        3.8686140    -0.8046650    -0.8491430
  H        3.8704280    -0.6765840     0.9253170
  H        4.4925120     0.6845290    -0.0653970
units angstrom
no_reorient  #important for SAPT in psi4, default
symmetry c1  #important for SAPT in psi4, default
}

set PROPERTIES_ORIGIN ["COM"]
properties('MP2/aug-cc-pvtz', properties = ['dipole'])
--------------------------------------------------------------------------

    Molecular point group: c1
  Charge       = 0
  Multiplicity = 1
  Basis Set: AUG-CC-PVTZ
    Blend: AUG-CC-PVTZ
  Basis Set: (AUG-CC-PVTZ AUX)
    Blend: AUG-CC-PVTZ-JKFIT

    Orbital Energies [Eh]
    ---------------------

    Doubly Occupied:

       1A    -20.603224     2A    -20.542542     3A    -15.563709
       4A    -11.385225     5A    -11.299031     6A    -11.284474
       7A    -11.261699     8A    -11.247969     9A    -11.247594
      10A    -11.235526    11A    -11.232732    12A    -11.223461
      13A     -1.454715    14A     -1.350937    15A     -1.245485
      16A     -1.143336    17A     -1.050768    18A     -1.004195
      19A     -0.969689    20A     -0.925517    21A     -0.858590
      22A     -0.816635    23A     -0.784151    24A     -0.728858
      25A     -0.696283    26A     -0.671008    27A     -0.669168
      28A     -0.663500    29A     -0.632565    30A     -0.613178
      31A     -0.610929    32A     -0.585846    33A     -0.576385
      34A     -0.557811    35A     -0.542993    36A     -0.534128
      37A     -0.517807    38A     -0.508074    39A     -0.505807
      40A     -0.465773    41A     -0.441044    42A     -0.428067
      43A     -0.350439    44A     -0.290506

  @DF-RHF Final Energy:  -551.59116854861361

   => Energetics <=

    Nuclear Repulsion Energy =            688.5673468599795797
    One-Electron Energy =               -2117.6742808423346105
    Two-Electron Energy =                 877.5157654337414215
    Total Energy =                       -551.5911685486136093
  Basis Set: (AUG-CC-PVTZ AUX)
    Blend: AUG-CC-PVTZ-RI
    Molecular point group: c1

    Geometry (in Angstrom), charge = 0, multiplicity = 1:

       Center              X                  Y                   Z               Mass
    ------------   -----------------  -----------------  -----------------  -----------------
         O            2.460887509077     0.523904389028    -0.049322358266    15.994914619570
         O            1.553295509077    -1.538619610972     0.094433641734    15.994914619570
         N           -1.140545490923    -1.708789610972    -0.146218358266    14.003074004430
         C           -1.024802890923    -0.342778410972    -0.067469958266    12.000000000000
         C            0.105338509077     0.391008389028    -0.023147358266    12.000000000000
         C           -2.321692490923     0.399928389028    -0.041997358266    12.000000000000
         C            0.083714509077     1.794383389028     0.040751641734    12.000000000000
         C           -2.316772490923     1.787168389028     0.016766641734    12.000000000000
         C           -1.112915490923     2.497455389028     0.045542641734    12.000000000000
         C            1.399914509077    -0.318262610972     0.014995641734    12.000000000000
         C           -2.347151490923    -2.475161610972     0.078380641734    12.000000000000
         C            3.740439509077    -0.136503610972    -0.001873358266    12.000000000000
         H           -3.271522490923    -0.124335610972    -0.064254358266     1.007825032230
         H            1.029337509077     2.325477389028     0.068813641734     1.007825032230
         H           -0.251411490923    -2.158404610972     0.042926641734     1.007825032230
         H           -3.265609490923     2.319821389028     0.023900641734     1.007825032230
         H           -1.110846490923     3.582671389028     0.094684641734     1.007825032230
         H           -2.819325490923    -2.255045610972     1.046054641734     1.007825032230
         H           -2.082649490923    -3.533596610972     0.053334641734     1.007825032230
         H           -3.082637490923    -2.294958610972    -0.712522358266     1.007825032230
         H            3.847247509077    -0.821269610972    -0.844367358266     1.007825032230
         H            3.849061509077    -0.693188610972     0.930092641734     1.007825032230
         H            4.471145509077     0.667924389028    -0.060621358266     1.007825032230

  Basis Set: AUG-CC-PVTZ
    Blend: AUG-CC-PVTZ
  Basis Set: (AUG-CC-PVTZ AUX)
    Blend: AUG-CC-PVTZ-JKFIT
	 Reference Energy          =    -551.5911685486136093 [Eh]
	 Singles Energy            =      -0.0000000000000000 [Eh]
	 Same-Spin Energy          =      -0.5786875786672447 [Eh]
	 Opposite-Spin Energy      =      -1.8007111462425975 [Eh]
	 Correlation Energy        =      -2.3793987249098425 [Eh]
	 Total Energy              =    -553.9705672735234430 [Eh]

	 ================> DF-SCS-MP2 Energies <==================
	-----------------------------------------------------------
	 SCS Same-Spin Scale       =       0.3333333333333333 [-]
	 SCS Opposite-Spin Scale   =       1.2000000000000000 [-]
	 SCS Same-Spin Energy      =      -0.1928958595557482 [Eh]
	 SCS Opposite-Spin Energy  =      -2.1608533754911168 [Eh]
	 SCS Correlation Energy    =      -2.3537492350468652 [Eh]
	 SCS Total Energy          =    -553.9449177836604576 [Eh]
	-----------------------------------------------------------

  Dipole Moment: [D]
     X:    -0.2111      Y:    -0.1807      Z:     0.3254     Total:     0.4279

*** Psi4 exiting successfully. Buy a developer a beer!
