                               Psi4 1.3.2 release

  ==> Input File <==

--------------------------------------------------------------------------
#psi4
#
memory 32 gb

molecule  {
0 1
  O        2.4822540     0.5405090    -0.0540980
  O        1.5746620    -1.5220150     0.0896580
  N       -1.1191790    -1.6921850    -0.1509940
  C       -1.0949782    -0.2232041    -0.0427042
  C        0.1267050     0.4076130    -0.0279230
  C       -2.3003260     0.4165330    -0.0467730
  C        0.1050810     1.8109880     0.0359760
  C       -2.2954060     1.8037730     0.0119910
  C       -1.0915490     2.5140600     0.0407670
  C        1.4212810    -0.3016580     0.0102200
  C       -2.3257850    -2.4585570     0.0736050
  C        3.7618060    -0.1198990    -0.0066490
  H       -3.2501560    -0.1077310    -0.0690300
  H        1.0507040     2.3420820     0.0640380
  H       -0.2300450    -2.1418000     0.0381510
  H       -3.2442430     2.3364260     0.0191250
  H       -1.0894800     3.5992760     0.0899090
  H       -2.7979590    -2.2384410     1.0412790
  H       -2.0612830    -3.5169920     0.0485590
  H       -3.0612710    -2.2783540    -0.7172980
  H        3.8686140    -0.8046650    -0.8491430
  H        3.8704280    -0.6765840     0.9253170
  H        4.4925120     0.6845290    -0.0653970
units angstrom
no_reorient  #important for SAPT in psi4, default
symmetry c1  #important for SAPT in psi4, default
}

set PROPERTIES_ORIGIN ["COM"]
properties('MP2/aug-cc-pvtz', properties = ['dipole'])
--------------------------------------------------------------------------

    Molecular point group: c1
  Charge       = 0
  Multiplicity = 1
  Basis Set: AUG-CC-PVTZ
    Blend: AUG-CC-PVTZ
  Basis Set: (AUG-CC-PVTZ AUX)
    Blend: AUG-CC-PVTZ-JKFIT

    Orbital Energies [Eh]
    ---------------------

    Doubly Occupied:

       1A    -20.606711     2A    -20.544797     3A    -15.548020
       4A    -11.390861     5A    -11.291221     6A    -11.286702
       7A    -11.254480     8A    -11.252826     9A    -11.248917
      10A    -11.241829    11A    -11.229818    12A    -11.228222
      13A     -1.457404    14A     -1.352325    15A     -1.217989
      16A     -1.146620    17A     -1.054085    18A     -1.015623
      19A     -0.971482    20A     -0.907730    21A     -0.869259
      22A     -0.814174    23A     -0.786956    24A     -0.733009
      25A     -0.688830    26A     -0.677296    27A     -0.671569
      28A     -0.658675    29A     -0.627071    30A     -0.615200
      31A     -0.600278    32A     -0.585609    33A     -0.578136
      34A     -0.558079    35A     -0.539590    36A     -0.533768
      37A     -0.523803    38A     -0.512351    39A     -0.500506
      40A     -0.467118    41A     -0.447758    42A     -0.411096
      43A     -0.353451    44A     -0.301671

  @DF-RHF Final Energy:  -551.58930581974312

   => Energetics <=

    Nuclear Repulsion Energy =            688.2546242927742242
    One-Electron Energy =               -2117.0820286071525516
    Two-Electron Energy =                 877.2380984946352100
    Total Energy =                       -551.5893058197431174
  Basis Set: (AUG-CC-PVTZ AUX)
    Blend: AUG-CC-PVTZ-RI
    Molecular point group: c1

    Geometry (in Angstrom), charge = 0, multiplicity = 1:

       Center              X                  Y                   Z               Mass
    ------------   -----------------  -----------------  -----------------  -----------------
         O            2.467541909348     0.516419266388    -0.051469795832    15.994914619570
         O            1.559949909348    -1.546104733612     0.092286204168    15.994914619570
         N           -1.133891090652    -1.716274733612    -0.148365795832    14.003074004430
         C           -1.109690290652    -0.247293833612    -0.040075995832    12.000000000000
         C            0.111992909348     0.383523266388    -0.025294795832    12.000000000000
         C           -2.315038090652     0.392443266388    -0.044144795832    12.000000000000
         C            0.090368909348     1.786898266388     0.038604204168    12.000000000000
         C           -2.310118090652     1.779683266388     0.014619204168    12.000000000000
         C           -1.106261090652     2.489970266388     0.043395204168    12.000000000000
         C            1.406568909348    -0.325747733612     0.012848204168    12.000000000000
         C           -2.340497090652    -2.482646733612     0.076233204168    12.000000000000
         C            3.747093909348    -0.143988733612    -0.004020795832    12.000000000000
         H           -3.264868090652    -0.131820733612    -0.066401795832     1.007825032230
         H            1.035991909348     2.317992266388     0.066666204168     1.007825032230
         H           -0.244757090652    -2.165889733612     0.040779204168     1.007825032230
         H           -3.258955090652     2.312336266388     0.021753204168     1.007825032230
         H           -1.104192090652     3.575186266388     0.092537204168     1.007825032230
         H           -2.812671090652    -2.262530733612     1.043907204168     1.007825032230
         H           -2.075995090652    -3.541081733612     0.051187204168     1.007825032230
         H           -3.075983090652    -2.302443733612    -0.714669795832     1.007825032230
         H            3.853901909348    -0.828754733612    -0.846514795832     1.007825032230
         H            3.855715909348    -0.700673733612     0.927945204168     1.007825032230
         H            4.477799909348     0.660439266388    -0.062768795832     1.007825032230

  Basis Set: AUG-CC-PVTZ
    Blend: AUG-CC-PVTZ
  Basis Set: (AUG-CC-PVTZ AUX)
    Blend: AUG-CC-PVTZ-JKFIT
	 Reference Energy          =    -551.5893058197431174 [Eh]
	 Singles Energy            =      -0.0000000000000000 [Eh]
	 Same-Spin Energy          =      -0.5789209260289785 [Eh]
	 Opposite-Spin Energy      =      -1.8004649590543051 [Eh]
	 Correlation Energy        =      -2.3793858850832836 [Eh]
	 Total Energy              =    -553.9686917048263695 [Eh]

	 ================> DF-SCS-MP2 Energies <==================
	-----------------------------------------------------------
	 SCS Same-Spin Scale       =       0.3333333333333333 [-]
	 SCS Opposite-Spin Scale   =       1.2000000000000000 [-]
	 SCS Same-Spin Energy      =      -0.1929736420096595 [Eh]
	 SCS Opposite-Spin Energy  =      -2.1605579508651660 [Eh]
	 SCS Correlation Energy    =      -2.3535315928748255 [Eh]
	 SCS Total Energy          =    -553.9428374126179051 [Eh]
	-----------------------------------------------------------

  Dipole Moment: [D]
     X:     0.0538      Y:     0.6091      Z:     0.3744     Total:     0.7170

*** Psi4 exiting successfully. Buy a developer a beer!
