                               Psi4 1.3.2 release

  ==> Input File <==

--------------------------------------------------------------------------
#psi4
#
memory 32 gb

molecule  {
0 1
  O        2.4822540     0.5405090    -0.0540980
  O        1.5746620    -1.5220150     0.0896580
  N       -1.1191790    -1.6921850    -0.1509940
  C       -1.0966210    -0.3229200    -0.0500550
  C        0.1267050     0.4076130    -0.0279230
  C       -2.3003260     0.4165330    -0.0467730
  C        0.1050810     1.8109880     0.0359760
  C       -2.2954060     1.8037730     0.0119910
  C       -1.0915490     2.5140600     0.0407670
  C        1.3924506    -0.2642170     0.0074681
  C       -2.3257850    -2.4585570     0.0736050
  C        3.7618060    -0.1198990    -0.0066490
  H       -3.2501560    -0.1077310    -0.0690300
  H        1.0507040     2.3420820     0.0640380
  H       -0.2300450    -2.1418000     0.0381510
  H       -3.2442430     2.3364260     0.0191250
  H       -1.0894800     3.5992760     0.0899090
  H       -2.7979590    -2.2384410     1.0412790
  H       -2.0612830    -3.5169920     0.0485590
  H       -3.0612710    -2.2783540    -0.7172980
  H        3.8686140    -0.8046650    -0.8491430
  H        3.8704280    -0.6765840     0.9253170
  H        4.4925120     0.6845290    -0.0653970
units angstrom
no_reorient  #important for SAPT in psi4, default
symmetry c1  #important for SAPT in psi4, default
}

set PROPERTIES_ORIGIN ["COM"]
properties('MP2/aug-cc-pvtz', properties = ['dipole'])
--------------------------------------------------------------------------

    Molecular point group: c1
  Charge       = 0
  Multiplicity = 1
  Basis Set: AUG-CC-PVTZ
    Blend: AUG-CC-PVTZ
  Basis Set: (AUG-CC-PVTZ AUX)
    Blend: AUG-CC-PVTZ-JKFIT

    Orbital Energies [Eh]
    ---------------------

    Doubly Occupied:

       1A    -20.601133     2A    -20.532398     3A    -15.565109
       4A    -11.385347     5A    -11.302882     6A    -11.283052
       7A    -11.259402     8A    -11.256108     9A    -11.253828
      10A    -11.239121    11A    -11.230216    12A    -11.225921
      13A     -1.444846    14A     -1.324872    15A     -1.247030
      16A     -1.146495    17A     -1.054056    18A     -1.012535
      19A     -0.968880    20A     -0.925085    21A     -0.871619
      22A     -0.812192    23A     -0.783340    24A     -0.728699
      25A     -0.701340    26A     -0.669211    27A     -0.664236
      28A     -0.657501    29A     -0.631063    30A     -0.617046
      31A     -0.613117    32A     -0.584248    33A     -0.578328
      34A     -0.551586    35A     -0.543667    36A     -0.533813
      37A     -0.520049    38A     -0.505643    39A     -0.501796
      40A     -0.456077    41A     -0.441167    42A     -0.428762
      43A     -0.352838    44A     -0.294313

  @DF-RHF Final Energy:  -551.59482094850966

   => Energetics <=

    Nuclear Repulsion Energy =            688.0340007287769595
    One-Electron Energy =               -2116.6577090998139283
    Two-Electron Energy =                 877.0288874225274185
    Total Energy =                       -551.5948209485096640
  Basis Set: (AUG-CC-PVTZ AUX)
    Blend: AUG-CC-PVTZ-RI
    Molecular point group: c1

    Geometry (in Angstrom), charge = 0, multiplicity = 1:

       Center              X                  Y                   Z               Mass
    ------------   -----------------  -----------------  -----------------  -----------------
         O            2.469757081765     0.520946183179    -0.050735405535    15.994914619570
         O            1.562165081765    -1.541577816821     0.093020594465    15.994914619570
         N           -1.131675918235    -1.711747816821    -0.147631405535    14.003074004430
         C           -1.109117918235    -0.342482816821    -0.046692405535    12.000000000000
         C            0.114208081765     0.388050183179    -0.024560405535    12.000000000000
         C           -2.312822918235     0.396970183179    -0.043410405535    12.000000000000
         C            0.092584081765     1.791425183179     0.039338594465    12.000000000000
         C           -2.307902918235     1.784210183179     0.015353594465    12.000000000000
         C           -1.104045918235     2.494497183179     0.044129594465    12.000000000000
         C            1.379953681765    -0.283779816821     0.010830694465    12.000000000000
         C           -2.338281918235    -2.478119816821     0.076967594465    12.000000000000
         C            3.749309081765    -0.139461816821    -0.003286405535    12.000000000000
         H           -3.262652918235    -0.127293816821    -0.065667405535     1.007825032230
         H            1.038207081765     2.322519183179     0.067400594465     1.007825032230
         H           -0.242541918235    -2.161362816821     0.041513594465     1.007825032230
         H           -3.256739918235     2.316863183179     0.022487594465     1.007825032230
         H           -1.101976918235     3.579713183179     0.093271594465     1.007825032230
         H           -2.810455918235    -2.258003816821     1.044641594465     1.007825032230
         H           -2.073779918235    -3.536554816821     0.051921594465     1.007825032230
         H           -3.073767918235    -2.297916816821    -0.713935405535     1.007825032230
         H            3.856117081765    -0.824227816821    -0.845780405535     1.007825032230
         H            3.857931081765    -0.696146816821     0.928679594465     1.007825032230
         H            4.480015081765     0.664966183179    -0.062034405535     1.007825032230

  Basis Set: AUG-CC-PVTZ
    Blend: AUG-CC-PVTZ
  Basis Set: (AUG-CC-PVTZ AUX)
    Blend: AUG-CC-PVTZ-JKFIT
	 Reference Energy          =    -551.5948209485096640 [Eh]
	 Singles Energy            =      -0.0000000000000000 [Eh]
	 Same-Spin Energy          =      -0.5799003669127777 [Eh]
	 Opposite-Spin Energy      =      -1.8017644330527971 [Eh]
	 Correlation Energy        =      -2.3816647999655749 [Eh]
	 Total Energy              =    -553.9764857484752838 [Eh]

	 ================> DF-SCS-MP2 Energies <==================
	-----------------------------------------------------------
	 SCS Same-Spin Scale       =       0.3333333333333333 [-]
	 SCS Opposite-Spin Scale   =       1.2000000000000000 [-]
	 SCS Same-Spin Energy      =      -0.1933001223042592 [Eh]
	 SCS Opposite-Spin Energy  =      -2.1621173196633565 [Eh]
	 SCS Correlation Energy    =      -2.3554174419676159 [Eh]
	 SCS Total Energy          =    -553.9502383904772387 [Eh]
	-----------------------------------------------------------

  Dipole Moment: [D]
     X:    -0.4970      Y:     0.1301      Z:     0.3105     Total:     0.6003

*** Psi4 exiting successfully. Buy a developer a beer!
