                               Psi4 1.3.2 release

  ==> Input File <==

--------------------------------------------------------------------------
#psi4
#
memory 32 gb

molecule  {
0 1
  O        2.4822540     0.5405090    -0.0540980
  O        1.5746620    -1.5220150     0.0896580
  N       -1.1191790    -1.6921850    -0.1509940
  C       -1.0966210    -0.3229200    -0.0500550
  C        0.1267050     0.4076130    -0.0279230
  C       -2.3003260     0.4165330    -0.0467730
  C        0.1050810     1.8109880     0.0359760
  C       -2.2954060     1.8037730     0.0119910
  C       -1.0915490     2.5140600     0.0407670
  C        1.4212810    -0.3016580     0.0102200
  C       -2.3784485    -2.3778146     0.0434827
  C        3.7618060    -0.1198990    -0.0066490
  H       -3.2501560    -0.1077310    -0.0690300
  H        1.0507040     2.3420820     0.0640380
  H       -0.2300450    -2.1418000     0.0381510
  H       -3.2442430     2.3364260     0.0191250
  H       -1.0894800     3.5992760     0.0899090
  H       -2.7979590    -2.2384410     1.0412790
  H       -2.0612830    -3.5169920     0.0485590
  H       -3.0612710    -2.2783540    -0.7172980
  H        3.8686140    -0.8046650    -0.8491430
  H        3.8704280    -0.6765840     0.9253170
  H        4.4925120     0.6845290    -0.0653970
units angstrom
no_reorient  #important for SAPT in psi4, default
symmetry c1  #important for SAPT in psi4, default
}

set PROPERTIES_ORIGIN ["COM"]
properties('MP2/aug-cc-pvtz', properties = ['dipole'])
--------------------------------------------------------------------------

    Molecular point group: c1
  Charge       = 0
  Multiplicity = 1
  Basis Set: AUG-CC-PVTZ
    Blend: AUG-CC-PVTZ
  Basis Set: (AUG-CC-PVTZ AUX)
    Blend: AUG-CC-PVTZ-JKFIT

    Orbital Energies [Eh]
    ---------------------

    Doubly Occupied:

       1A    -20.602924     2A    -20.542326     3A    -15.564421
       4A    -11.385856     5A    -11.296887     6A    -11.284412
       7A    -11.260031     8A    -11.251941     9A    -11.249940
      10A    -11.239232    11A    -11.227459    12A    -11.223304
      13A     -1.454307    14A     -1.350382    15A     -1.247114
      16A     -1.141834    17A     -1.046255    18A     -1.007978
      19A     -0.968614    20A     -0.925290    21A     -0.864477
      22A     -0.809802    23A     -0.783996    24A     -0.728929
      25A     -0.699442    26A     -0.673630    27A     -0.668905
      28A     -0.662289    29A     -0.631124    30A     -0.627211
      31A     -0.613375    32A     -0.586861    33A     -0.576656
      34A     -0.558013    35A     -0.535586    36A     -0.526889
      37A     -0.517199    38A     -0.504077    39A     -0.499949
      40A     -0.465671    41A     -0.445596    42A     -0.430835
      43A     -0.349505    44A     -0.292198

  @DF-RHF Final Energy:  -551.59027309123621

   => Energetics <=

    Nuclear Repulsion Energy =            688.4749068205234153
    One-Electron Energy =               -2117.4849202069876810
    Two-Electron Energy =                 877.4197402952281664
    Total Energy =                       -551.5902730912362131
  Basis Set: (AUG-CC-PVTZ AUX)
    Blend: AUG-CC-PVTZ-RI
    Molecular point group: c1

    Geometry (in Angstrom), charge = 0, multiplicity = 1:

       Center              X                  Y                   Z               Mass
    ------------   -----------------  -----------------  -----------------  -----------------
         O            2.471489568860     0.517798497117    -0.048745783339    15.994914619570
         O            1.563897568860    -1.544725502883     0.095010216661    15.994914619570
         N           -1.129943431140    -1.714895502883    -0.145641783339    14.003074004430
         C           -1.107385431140    -0.345630502883    -0.044702783339    12.000000000000
         C            0.115940568860     0.384902497117    -0.022570783339    12.000000000000
         C           -2.311090431140     0.393822497117    -0.041420783339    12.000000000000
         C            0.094316568860     1.788277497117     0.041328216661    12.000000000000
         C           -2.306170431140     1.781062497117     0.017343216661    12.000000000000
         C           -1.102313431140     2.491349497117     0.046119216661    12.000000000000
         C            1.410516568860    -0.324368502883     0.015572216661    12.000000000000
         C           -2.389212931140    -2.400525102883     0.048834916661    12.000000000000
         C            3.751041568860    -0.142609502883    -0.001296783339    12.000000000000
         H           -3.260920431140    -0.130441502883    -0.063677783339     1.007825032230
         H            1.039939568860     2.319371497117     0.069390216661     1.007825032230
         H           -0.240809431140    -2.164510502883     0.043503216661     1.007825032230
         H           -3.255007431140     2.313715497117     0.024477216661     1.007825032230
         H           -1.100244431140     3.576565497117     0.095261216661     1.007825032230
         H           -2.808723431140    -2.261151502883     1.046631216661     1.007825032230
         H           -2.072047431140    -3.539702502883     0.053911216661     1.007825032230
         H           -3.072035431140    -2.301064502883    -0.711945783339     1.007825032230
         H            3.857849568860    -0.827375502883    -0.843790783339     1.007825032230
         H            3.859663568860    -0.699294502883     0.930669216661     1.007825032230
         H            4.481747568860     0.661818497117    -0.060044783339     1.007825032230

  Basis Set: AUG-CC-PVTZ
    Blend: AUG-CC-PVTZ
  Basis Set: (AUG-CC-PVTZ AUX)
    Blend: AUG-CC-PVTZ-JKFIT
	 Reference Energy          =    -551.5902730912362131 [Eh]
	 Singles Energy            =      -0.0000000000000000 [Eh]
	 Same-Spin Energy          =      -0.5792924861524829 [Eh]
	 Opposite-Spin Energy      =      -1.8007076592865643 [Eh]
	 Correlation Energy        =      -2.3800001454390474 [Eh]
	 Total Energy              =    -553.9702732366752116 [Eh]

	 ================> DF-SCS-MP2 Energies <==================
	-----------------------------------------------------------
	 SCS Same-Spin Scale       =       0.3333333333333333 [-]
	 SCS Opposite-Spin Scale   =       1.2000000000000000 [-]
	 SCS Same-Spin Energy      =      -0.1930974953841609 [Eh]
	 SCS Opposite-Spin Energy  =      -2.1608491911438770 [Eh]
	 SCS Correlation Energy    =      -2.3539466865280381 [Eh]
	 SCS Total Energy          =    -553.9442197777642605 [Eh]
	-----------------------------------------------------------

  Dipole Moment: [D]
     X:    -0.2108      Y:    -0.0399      Z:     0.3018     Total:     0.3703

*** Psi4 exiting successfully. Buy a developer a beer!
