                               Psi4 1.3.2 release

  ==> Input File <==

--------------------------------------------------------------------------
#psi4
#
memory 32 gb

molecule  {
0 1
  O        2.4822540     0.5405090    -0.0540980
  O        1.5746620    -1.5220150     0.0896580
  N       -1.1191790    -1.6921850    -0.1509940
  C       -1.0427142    -0.4064836    -0.0479301
  C        0.1267050     0.4076130    -0.0279230
  C       -2.3003260     0.4165330    -0.0467730
  C        0.1050810     1.8109880     0.0359760
  C       -2.2954060     1.8037730     0.0119910
  C       -1.0915490     2.5140600     0.0407670
  C        1.4212810    -0.3016580     0.0102200
  C       -2.3257850    -2.4585570     0.0736050
  C        3.7618060    -0.1198990    -0.0066490
  H       -3.2501560    -0.1077310    -0.0690300
  H        1.0507040     2.3420820     0.0640380
  H       -0.2300450    -2.1418000     0.0381510
  H       -3.2442430     2.3364260     0.0191250
  H       -1.0894800     3.5992760     0.0899090
  H       -2.7979590    -2.2384410     1.0412790
  H       -2.0612830    -3.5169920     0.0485590
  H       -3.0612710    -2.2783540    -0.7172980
  H        3.8686140    -0.8046650    -0.8491430
  H        3.8704280    -0.6765840     0.9253170
  H        4.4925120     0.6845290    -0.0653970
units angstrom
no_reorient  #important for SAPT in psi4, default
symmetry c1  #important for SAPT in psi4, default
}

set PROPERTIES_ORIGIN ["COM"]
properties('MP2/aug-cc-pvtz', properties = ['dipole'])
--------------------------------------------------------------------------

    Molecular point group: c1
  Charge       = 0
  Multiplicity = 1
  Basis Set: AUG-CC-PVTZ
    Blend: AUG-CC-PVTZ
  Basis Set: (AUG-CC-PVTZ AUX)
    Blend: AUG-CC-PVTZ-JKFIT

    Orbital Energies [Eh]
    ---------------------

    Doubly Occupied:

       1A    -20.599185     2A    -20.539151     3A    -15.577429
       4A    -11.380472     5A    -11.304788     6A    -11.282082
       7A    -11.269376     8A    -11.247013     9A    -11.246444
      10A    -11.234106    11A    -11.231157    12A    -11.216784
      13A     -1.451173    14A     -1.348425    15A     -1.279732
      16A     -1.135188    17A     -1.042482    18A     -1.003657
      19A     -0.967733    20A     -0.935050    21A     -0.857535
      22A     -0.809571    23A     -0.784393    24A     -0.727348
      25A     -0.705755    26A     -0.669694    27A     -0.669013
      28A     -0.666110    29A     -0.635141    30A     -0.625245
      31A     -0.611131    32A     -0.582657    33A     -0.570358
      34A     -0.555161    35A     -0.551600    36A     -0.532882
      37A     -0.518356    38A     -0.505664    39A     -0.497662
      40A     -0.463801    41A     -0.441762    42A     -0.437276
      43A     -0.346564    44A     -0.281545

  @DF-RHF Final Energy:  -551.58927262562884

   => Energetics <=

    Nuclear Repulsion Energy =            688.2388541177870138
    One-Electron Energy =               -2116.9809558297492913
    Two-Electron Energy =                 877.1528290863334405
    Total Energy =                       -551.5892726256288370
  Basis Set: (AUG-CC-PVTZ AUX)
    Blend: AUG-CC-PVTZ-RI
    Molecular point group: c1

    Geometry (in Angstrom), charge = 0, multiplicity = 1:

       Center              X                  Y                   Z               Mass
    ------------   -----------------  -----------------  -----------------  -----------------
         O            2.463742709684     0.529742307387    -0.051089912211    15.994914619570
         O            1.556150709684    -1.532781692613     0.092666087789    15.994914619570
         N           -1.137690290316    -1.702951692613    -0.147985912211    14.003074004430
         C           -1.061225490316    -0.417250292613    -0.044922012211    12.000000000000
         C            0.108193709684     0.396846307387    -0.024914912211    12.000000000000
         C           -2.318837290316     0.405766307387    -0.043764912211    12.000000000000
         C            0.086569709684     1.800221307387     0.038984087789    12.000000000000
         C           -2.313917290316     1.793006307387     0.014999087789    12.000000000000
         C           -1.110060290316     2.503293307387     0.043775087789    12.000000000000
         C            1.402769709684    -0.312424692613     0.013228087789    12.000000000000
         C           -2.344296290316    -2.469323692613     0.076613087789    12.000000000000
         C            3.743294709684    -0.130665692613    -0.003640912211    12.000000000000
         H           -3.268667290316    -0.118497692613    -0.066021912211     1.007825032230
         H            1.032192709684     2.331315307387     0.067046087789     1.007825032230
         H           -0.248556290316    -2.152566692613     0.041159087789     1.007825032230
         H           -3.262754290316     2.325659307387     0.022133087789     1.007825032230
         H           -1.107991290316     3.588509307387     0.092917087789     1.007825032230
         H           -2.816470290316    -2.249207692613     1.044287087789     1.007825032230
         H           -2.079794290316    -3.527758692613     0.051567087789     1.007825032230
         H           -3.079782290316    -2.289120692613    -0.714289912211     1.007825032230
         H            3.850102709684    -0.815431692613    -0.846134912211     1.007825032230
         H            3.851916709684    -0.687350692613     0.928325087789     1.007825032230
         H            4.474000709684     0.673762307387    -0.062388912211     1.007825032230

  Basis Set: AUG-CC-PVTZ
    Blend: AUG-CC-PVTZ
  Basis Set: (AUG-CC-PVTZ AUX)
    Blend: AUG-CC-PVTZ-JKFIT
	 Reference Energy          =    -551.5892726256288370 [Eh]
	 Singles Energy            =      -0.0000000000000000 [Eh]
	 Same-Spin Energy          =      -0.5789690441307115 [Eh]
	 Opposite-Spin Energy      =      -1.8001972230792367 [Eh]
	 Correlation Energy        =      -2.3791662672099481 [Eh]
	 Total Energy              =    -553.9684388928387762 [Eh]

	 ================> DF-SCS-MP2 Energies <==================
	-----------------------------------------------------------
	 SCS Same-Spin Scale       =       0.3333333333333333 [-]
	 SCS Opposite-Spin Scale   =       1.2000000000000000 [-]
	 SCS Same-Spin Energy      =      -0.1929896813769038 [Eh]
	 SCS Opposite-Spin Energy  =      -2.1602366676950839 [Eh]
	 SCS Correlation Energy    =      -2.3532263490719876 [Eh]
	 SCS Total Energy          =    -553.9424989747008112 [Eh]
	-----------------------------------------------------------

  Dipole Moment: [D]
     X:    -0.4147      Y:    -0.7667      Z:     0.2911     Total:     0.9190

*** Psi4 exiting successfully. Buy a developer a beer!
