                               Psi4 1.3.2 release

  ==> Input File <==

--------------------------------------------------------------------------
#psi4
#
memory 32 gb

molecule  {
0 1
  O        2.4822540     0.5405090    -0.0540980
  O        1.5746620    -1.5220150     0.0896580
  N       -1.1191790    -1.6921850    -0.1509940
  C       -1.0966210    -0.3229200    -0.0500550
  C        0.1267050     0.4076130    -0.0279230
  C       -2.3003260     0.4165330    -0.0467730
  C        0.1050810     1.8109880     0.0359760
  C       -2.2954060     1.8037730     0.0119910
  C       -1.0915490     2.5140600     0.0407670
  C        1.4212810    -0.3016580     0.0102200
  C       -2.2423955    -2.4055924     0.0580828
  C        3.7618060    -0.1198990    -0.0066490
  H       -3.2501560    -0.1077310    -0.0690300
  H        1.0507040     2.3420820     0.0640380
  H       -0.2300450    -2.1418000     0.0381510
  H       -3.2442430     2.3364260     0.0191250
  H       -1.0894800     3.5992760     0.0899090
  H       -2.7979590    -2.2384410     1.0412790
  H       -2.0612830    -3.5169920     0.0485590
  H       -3.0612710    -2.2783540    -0.7172980
  H        3.8686140    -0.8046650    -0.8491430
  H        3.8704280    -0.6765840     0.9253170
  H        4.4925120     0.6845290    -0.0653970
units angstrom
no_reorient  #important for SAPT in psi4, default
symmetry c1  #important for SAPT in psi4, default
}

set PROPERTIES_ORIGIN ["COM"]
properties('MP2/aug-cc-pvtz', properties = ['dipole'])
--------------------------------------------------------------------------

    Molecular point group: c1
  Charge       = 0
  Multiplicity = 1
  Basis Set: AUG-CC-PVTZ
    Blend: AUG-CC-PVTZ
  Basis Set: (AUG-CC-PVTZ AUX)
    Blend: AUG-CC-PVTZ-JKFIT

    Orbital Energies [Eh]
    ---------------------

    Doubly Occupied:

       1A    -20.604782     2A    -20.544380     3A    -15.564061
       4A    -11.388186     5A    -11.300447     6A    -11.285752
       7A    -11.259582     8A    -11.253419     9A    -11.251950
      10A    -11.243150    11A    -11.229872    12A    -11.226315
      13A     -1.456239    14A     -1.352491    15A     -1.269190
      16A     -1.148556    17A     -1.048706    18A     -1.015813
      19A     -0.970059    20A     -0.915853    21A     -0.867470
      22A     -0.809913    23A     -0.787309    24A     -0.732710
      25A     -0.705961    26A     -0.677336    27A     -0.675419
      28A     -0.670402    29A     -0.635411    30A     -0.617393
      31A     -0.611726    32A     -0.597166    33A     -0.578395
      34A     -0.555663    35A     -0.537740    36A     -0.529497
      37A     -0.514971    38A     -0.505223    39A     -0.501756
      40A     -0.467183    41A     -0.446531    42A     -0.419451
      43A     -0.350975    44A     -0.294450

  @DF-RHF Final Energy:  -551.59031631796199

   => Energetics <=

    Nuclear Repulsion Energy =            690.0364736318782661
    One-Electron Energy =               -2120.4158754104696527
    Two-Electron Energy =                 878.7890854606292805
    Total Energy =                       -551.5903163179619924
  Basis Set: (AUG-CC-PVTZ AUX)
    Blend: AUG-CC-PVTZ-RI
    Molecular point group: c1

    Geometry (in Angstrom), charge = 0, multiplicity = 1:

       Center              X                  Y                   Z               Mass
    ------------   -----------------  -----------------  -----------------  -----------------
         O            2.461599539167     0.519817734229    -0.049807100785    15.994914619570
         O            1.554007539167    -1.542706265771     0.093948899215    15.994914619570
         N           -1.139833460833    -1.712876265771    -0.146703100785    14.003074004430
         C           -1.117275460833    -0.343611265771    -0.045764100785    12.000000000000
         C            0.106050539167     0.386921734229    -0.023632100785    12.000000000000
         C           -2.320980460833     0.395841734229    -0.042482100785    12.000000000000
         C            0.084426539167     1.790296734229     0.040266899215    12.000000000000
         C           -2.316060460833     1.783081734229     0.016281899215    12.000000000000
         C           -1.112203460833     2.493368734229     0.045057899215    12.000000000000
         C            1.400626539167    -0.322349265771     0.014510899215    12.000000000000
         C           -2.263049960833    -2.426283665771     0.062373699215    12.000000000000
         C            3.741151539167    -0.140590265771    -0.002358100785    12.000000000000
         H           -3.270810460833    -0.128422265771    -0.064739100785     1.007825032230
         H            1.030049539167     2.321390734229     0.068328899215     1.007825032230
         H           -0.250699460833    -2.162491265771     0.042441899215     1.007825032230
         H           -3.264897460833     2.315734734229     0.023415899215     1.007825032230
         H           -1.110134460833     3.578584734229     0.094199899215     1.007825032230
         H           -2.818613460833    -2.259132265771     1.045569899215     1.007825032230
         H           -2.081937460833    -3.537683265771     0.052849899215     1.007825032230
         H           -3.081925460833    -2.299045265771    -0.713007100785     1.007825032230
         H            3.847959539167    -0.825356265771    -0.844852100785     1.007825032230
         H            3.849773539167    -0.697275265771     0.929607899215     1.007825032230
         H            4.471857539167     0.663837734229    -0.061106100785     1.007825032230

  Basis Set: AUG-CC-PVTZ
    Blend: AUG-CC-PVTZ
  Basis Set: (AUG-CC-PVTZ AUX)
    Blend: AUG-CC-PVTZ-JKFIT
	 Reference Energy          =    -551.5903163179619924 [Eh]
	 Singles Energy            =      -0.0000000000000000 [Eh]
	 Same-Spin Energy          =      -0.5799267414976320 [Eh]
	 Opposite-Spin Energy      =      -1.8003571734324018 [Eh]
	 Correlation Energy        =      -2.3802839149300339 [Eh]
	 Total Energy              =    -553.9706002328920249 [Eh]

	 ================> DF-SCS-MP2 Energies <==================
	-----------------------------------------------------------
	 SCS Same-Spin Scale       =       0.3333333333333333 [-]
	 SCS Opposite-Spin Scale   =       1.2000000000000000 [-]
	 SCS Same-Spin Energy      =      -0.1933089138325440 [Eh]
	 SCS Opposite-Spin Energy  =      -2.1604286081188819 [Eh]
	 SCS Correlation Energy    =      -2.3537375219514258 [Eh]
	 SCS Total Energy          =    -553.9440538399134084 [Eh]
	-----------------------------------------------------------

  Dipole Moment: [D]
     X:     0.1552      Y:     0.2061      Z:     0.2677     Total:     0.3718

*** Psi4 exiting successfully. Buy a developer a beer!
