                               Psi4 1.3.2 release

  ==> Input File <==

--------------------------------------------------------------------------
#psi4
#
memory 32 gb

molecule  {
0 1
  O        2.4716429     0.5150156    -0.0961259
  O        1.5746620    -1.5220150     0.0896580
  N       -1.1191790    -1.6921850    -0.1509940
  C       -1.0966210    -0.3229200    -0.0500550
  C        0.1267050     0.4076130    -0.0279230
  C       -2.3003260     0.4165330    -0.0467730
  C        0.1050810     1.8109880     0.0359760
  C       -2.2954060     1.8037730     0.0119910
  C       -1.0915490     2.5140600     0.0407670
  C        1.4212810    -0.3016580     0.0102200
  C       -2.3257850    -2.4585570     0.0736050
  C        3.7618060    -0.1198990    -0.0066490
  H       -3.2501560    -0.1077310    -0.0690300
  H        1.0507040     2.3420820     0.0640380
  H       -0.2300450    -2.1418000     0.0381510
  H       -3.2442430     2.3364260     0.0191250
  H       -1.0894800     3.5992760     0.0899090
  H       -2.7979590    -2.2384410     1.0412790
  H       -2.0612830    -3.5169920     0.0485590
  H       -3.0612710    -2.2783540    -0.7172980
  H        3.8686140    -0.8046650    -0.8491430
  H        3.8704280    -0.6765840     0.9253170
  H        4.4925120     0.6845290    -0.0653970
units angstrom
no_reorient  #important for SAPT in psi4, default
symmetry c1  #important for SAPT in psi4, default
}

set PROPERTIES_ORIGIN ["COM"]
properties('MP2/aug-cc-pvtz', properties = ['dipole'])
--------------------------------------------------------------------------

    Molecular point group: c1
  Charge       = 0
  Multiplicity = 1
  Basis Set: AUG-CC-PVTZ
    Blend: AUG-CC-PVTZ
  Basis Set: (AUG-CC-PVTZ AUX)
    Blend: AUG-CC-PVTZ-JKFIT

    Orbital Energies [Eh]
    ---------------------

    Doubly Occupied:

       1A    -20.603338     2A    -20.537849     3A    -15.562249
       4A    -11.382945     5A    -11.297685     6A    -11.286328
       7A    -11.257819     8A    -11.251232     9A    -11.249724
      10A    -11.239075    11A    -11.227135    12A    -11.223115
      13A     -1.461251    14A     -1.348660    15A     -1.244821
      16A     -1.141646    17A     -1.046353    18A     -1.009155
      19A     -0.972427    20A     -0.922898    21A     -0.863928
      22A     -0.808718    23A     -0.784816    24A     -0.730463
      25A     -0.699299    26A     -0.674695    27A     -0.671948
      28A     -0.660715    29A     -0.629871    30A     -0.615714
      31A     -0.611453    32A     -0.582633    33A     -0.578972
      34A     -0.555783    35A     -0.541548    36A     -0.534746
      37A     -0.523184    38A     -0.506854    39A     -0.501042
      40A     -0.463962    41A     -0.443700    42A     -0.426945
      43A     -0.349017    44A     -0.290913

  @DF-RHF Final Energy:  -551.60270486195589

   => Energetics <=

    Nuclear Repulsion Energy =            688.5802893963981433
    One-Electron Energy =               -2117.7327409735598849
    Two-Electron Energy =                 877.5497467152057425
    Total Energy =                       -551.6027048619558855
  Basis Set: (AUG-CC-PVTZ AUX)
    Blend: AUG-CC-PVTZ-RI
    Molecular point group: c1

    Geometry (in Angstrom), charge = 0, multiplicity = 1:

       Center              X                  Y                   Z               Mass
    ------------   -----------------  -----------------  -----------------  -----------------
         O            2.458078364537     0.500644581454    -0.088891159744    15.994914619570
         O            1.561097464537    -1.536386018546     0.096892740256    15.994914619570
         N           -1.132743535463    -1.706556018546    -0.143759259744    14.003074004430
         C           -1.110185535463    -0.337291018546    -0.042820259744    12.000000000000
         C            0.113140464537     0.393241981454    -0.020688259744    12.000000000000
         C           -2.313890535463     0.402161981454    -0.039538259744    12.000000000000
         C            0.091516464537     1.796616981454     0.043210740256    12.000000000000
         C           -2.308970535463     1.789401981454     0.019225740256    12.000000000000
         C           -1.105113535463     2.499688981454     0.048001740256    12.000000000000
         C            1.407716464537    -0.316029018546     0.017454740256    12.000000000000
         C           -2.339349535463    -2.472928018546     0.080839740256    12.000000000000
         C            3.748241464537    -0.134270018546     0.000585740256    12.000000000000
         H           -3.263720535463    -0.122102018546    -0.061795259744     1.007825032230
         H            1.037139464537     2.327710981454     0.071272740256     1.007825032230
         H           -0.243609535463    -2.156171018546     0.045385740256     1.007825032230
         H           -3.257807535463     2.322054981454     0.026359740256     1.007825032230
         H           -1.103044535463     3.584904981454     0.097143740256     1.007825032230
         H           -2.811523535463    -2.252812018546     1.048513740256     1.007825032230
         H           -2.074847535463    -3.531363018546     0.055793740256     1.007825032230
         H           -3.074835535463    -2.292725018546    -0.710063259744     1.007825032230
         H            3.855049464537    -0.819036018546    -0.841908259744     1.007825032230
         H            3.856863464537    -0.690955018546     0.932551740256     1.007825032230
         H            4.478947464537     0.670157981454    -0.058162259744     1.007825032230

  Basis Set: AUG-CC-PVTZ
    Blend: AUG-CC-PVTZ
  Basis Set: (AUG-CC-PVTZ AUX)
    Blend: AUG-CC-PVTZ-JKFIT
	 Reference Energy          =    -551.6027048619558855 [Eh]
	 Singles Energy            =      -0.0000000000000000 [Eh]
	 Same-Spin Energy          =      -0.5785909916828271 [Eh]
	 Opposite-Spin Energy      =      -1.7988914337759963 [Eh]
	 Correlation Energy        =      -2.3774824254588234 [Eh]
	 Total Energy              =    -553.9801872874147648 [Eh]

	 ================> DF-SCS-MP2 Energies <==================
	-----------------------------------------------------------
	 SCS Same-Spin Scale       =       0.3333333333333333 [-]
	 SCS Opposite-Spin Scale   =       1.2000000000000000 [-]
	 SCS Same-Spin Energy      =      -0.1928636638942757 [Eh]
	 SCS Opposite-Spin Energy  =      -2.1586697205311953 [Eh]
	 SCS Correlation Energy    =      -2.3515333844254709 [Eh]
	 SCS Total Energy          =    -553.9542382463813510 [Eh]
	-----------------------------------------------------------

  Dipole Moment: [D]
     X:    -0.0371      Y:    -0.0195      Z:     0.3718     Total:     0.3742

*** Psi4 exiting successfully. Buy a developer a beer!
