                               Psi4 1.3.2 release

  ==> Input File <==

--------------------------------------------------------------------------
#psi4
#
memory 32 gb

molecule  {
0 1
  O        2.4822540     0.5405090    -0.0540980
  O        1.7016509    -1.4993873     0.0873206
  N       -1.1191790    -1.6921850    -0.1509940
  C       -1.0966210    -0.3229200    -0.0500550
  C        0.1267050     0.4076130    -0.0279230
  C       -2.3003260     0.4165330    -0.0467730
  C        0.1050810     1.8109880     0.0359760
  C       -2.2954060     1.8037730     0.0119910
  C       -1.0915490     2.5140600     0.0407670
  C        1.4212810    -0.3016580     0.0102200
  C       -2.3257850    -2.4585570     0.0736050
  C        3.7618060    -0.1198990    -0.0066490
  H       -3.2501560    -0.1077310    -0.0690300
  H        1.0507040     2.3420820     0.0640380
  H       -0.2300450    -2.1418000     0.0381510
  H       -3.2442430     2.3364260     0.0191250
  H       -1.0894800     3.5992760     0.0899090
  H       -2.7979590    -2.2384410     1.0412790
  H       -2.0612830    -3.5169920     0.0485590
  H       -3.0612710    -2.2783540    -0.7172980
  H        3.8686140    -0.8046650    -0.8491430
  H        3.8704280    -0.6765840     0.9253170
  H        4.4925120     0.6845290    -0.0653970
units angstrom
no_reorient  #important for SAPT in psi4, default
symmetry c1  #important for SAPT in psi4, default
}

set PROPERTIES_ORIGIN ["COM"]
properties('MP2/aug-cc-pvtz', properties = ['dipole'])
--------------------------------------------------------------------------

    Molecular point group: c1
  Charge       = 0
  Multiplicity = 1
  Basis Set: AUG-CC-PVTZ
    Blend: AUG-CC-PVTZ
  Basis Set: (AUG-CC-PVTZ AUX)
    Blend: AUG-CC-PVTZ-JKFIT

    Orbital Energies [Eh]
    ---------------------

    Doubly Occupied:

       1A    -20.592860     2A    -20.538058     3A    -15.568786
       4A    -11.383458     5A    -11.302025     6A    -11.277946
       7A    -11.261699     8A    -11.254705     9A    -11.253325
      10A    -11.244814    11A    -11.230315    12A    -11.226101
      13A     -1.453652    14A     -1.338158    15A     -1.250348
      16A     -1.145261    17A     -1.049011    18A     -1.012736
      19A     -0.964922    20A     -0.925573    21A     -0.866731
      22A     -0.811616    23A     -0.779692    24A     -0.728744
      25A     -0.703604    26A     -0.670932    27A     -0.664266
      28A     -0.660198    29A     -0.631017    30A     -0.618442
      31A     -0.615054    32A     -0.587910    33A     -0.574515
      34A     -0.551463    35A     -0.545688    36A     -0.533510
      37A     -0.519093    38A     -0.508103    39A     -0.503007
      40A     -0.459048    41A     -0.444397    42A     -0.431176
      43A     -0.352451    44A     -0.295044

  @DF-RHF Final Energy:  -551.59792048477652

   => Energetics <=

    Nuclear Repulsion Energy =            687.2888835389526321
    One-Electron Energy =               -2115.1147015686924533
    Two-Electron Energy =                 876.2278975449632981
    Total Energy =                       -551.5979204847765232
  Basis Set: (AUG-CC-PVTZ AUX)
    Blend: AUG-CC-PVTZ-RI
    Molecular point group: c1

    Geometry (in Angstrom), charge = 0, multiplicity = 1:

       Center              X                  Y                   Z               Mass
    ------------   -----------------  -----------------  -----------------  -----------------
         O            2.455357056799     0.521475407864    -0.050708971440    15.994914619570
         O            1.674753956799    -1.518420892136     0.090709628560    15.994914619570
         N           -1.146075943201    -1.711218592136    -0.147604971440    14.003074004430
         C           -1.123517943201    -0.341953592136    -0.046665971440    12.000000000000
         C            0.099808056799     0.388579407864    -0.024533971440    12.000000000000
         C           -2.327222943201     0.397499407864    -0.043383971440    12.000000000000
         C            0.078184056799     1.791954407864     0.039365028560    12.000000000000
         C           -2.322302943201     1.784739407864     0.015380028560    12.000000000000
         C           -1.118445943201     2.495026407864     0.044156028560    12.000000000000
         C            1.394384056799    -0.320691592136     0.013609028560    12.000000000000
         C           -2.352681943201    -2.477590592136     0.076994028560    12.000000000000
         C            3.734909056799    -0.138932592136    -0.003259971440    12.000000000000
         H           -3.277052943201    -0.126764592136    -0.065640971440     1.007825032230
         H            1.023807056799     2.323048407864     0.067427028560     1.007825032230
         H           -0.256941943201    -2.160833592136     0.041540028560     1.007825032230
         H           -3.271139943201     2.317392407864     0.022514028560     1.007825032230
         H           -1.116376943201     3.580242407864     0.093298028560     1.007825032230
         H           -2.824855943201    -2.257474592136     1.044668028560     1.007825032230
         H           -2.088179943201    -3.536025592136     0.051948028560     1.007825032230
         H           -3.088167943201    -2.297387592136    -0.713908971440     1.007825032230
         H            3.841717056799    -0.823698592136    -0.845753971440     1.007825032230
         H            3.843531056799    -0.695617592136     0.928706028560     1.007825032230
         H            4.465615056799     0.665495407864    -0.062007971440     1.007825032230

  Basis Set: AUG-CC-PVTZ
    Blend: AUG-CC-PVTZ
  Basis Set: (AUG-CC-PVTZ AUX)
    Blend: AUG-CC-PVTZ-JKFIT
	 Reference Energy          =    -551.5979204847765232 [Eh]
	 Singles Energy            =      -0.0000000000000000 [Eh]
	 Same-Spin Energy          =      -0.5787165790069091 [Eh]
	 Opposite-Spin Energy      =      -1.7996210718478050 [Eh]
	 Correlation Energy        =      -2.3783376508547143 [Eh]
	 Total Energy              =    -553.9762581356312694 [Eh]

	 ================> DF-SCS-MP2 Energies <==================
	-----------------------------------------------------------
	 SCS Same-Spin Scale       =       0.3333333333333333 [-]
	 SCS Opposite-Spin Scale   =       1.2000000000000000 [-]
	 SCS Same-Spin Energy      =      -0.1929055263356363 [Eh]
	 SCS Opposite-Spin Energy  =      -2.1595452862173659 [Eh]
	 SCS Correlation Energy    =      -2.3524508125530024 [Eh]
	 SCS Total Energy          =    -553.9503712973295251 [Eh]
	-----------------------------------------------------------

  Dipole Moment: [D]
     X:    -0.6883      Y:    -0.0827      Z:     0.3318     Total:     0.7685

*** Psi4 exiting successfully. Buy a developer a beer!
