                               Psi4 1.3.2 release

  ==> Input File <==

--------------------------------------------------------------------------
#psi4
#
memory 32 gb

molecule  {
0 1
  O        2.4822540     0.5405090    -0.0540980
  O        1.5746620    -1.5220150     0.0896580
  N       -1.2148657    -1.6874646    -0.1481382
  C       -1.0966210    -0.3229200    -0.0500550
  C        0.1267050     0.4076130    -0.0279230
  C       -2.3003260     0.4165330    -0.0467730
  C        0.1050810     1.8109880     0.0359760
  C       -2.2954060     1.8037730     0.0119910
  C       -1.0915490     2.5140600     0.0407670
  C        1.4212810    -0.3016580     0.0102200
  C       -2.3257850    -2.4585570     0.0736050
  C        3.7618060    -0.1198990    -0.0066490
  H       -3.2501560    -0.1077310    -0.0690300
  H        1.0507040     2.3420820     0.0640380
  H       -0.2300450    -2.1418000     0.0381510
  H       -3.2442430     2.3364260     0.0191250
  H       -1.0894800     3.5992760     0.0899090
  H       -2.7979590    -2.2384410     1.0412790
  H       -2.0612830    -3.5169920     0.0485590
  H       -3.0612710    -2.2783540    -0.7172980
  H        3.8686140    -0.8046650    -0.8491430
  H        3.8704280    -0.6765840     0.9253170
  H        4.4925120     0.6845290    -0.0653970
units angstrom
no_reorient  #important for SAPT in psi4, default
symmetry c1  #important for SAPT in psi4, default
}

set PROPERTIES_ORIGIN ["COM"]
properties('MP2/aug-cc-pvtz', properties = ['dipole'])
--------------------------------------------------------------------------

    Molecular point group: c1
  Charge       = 0
  Multiplicity = 1
  Basis Set: AUG-CC-PVTZ
    Blend: AUG-CC-PVTZ
  Basis Set: (AUG-CC-PVTZ AUX)
    Blend: AUG-CC-PVTZ-JKFIT

    Orbital Energies [Eh]
    ---------------------

    Doubly Occupied:

       1A    -20.604266     2A    -20.544484     3A    -15.565332
       4A    -11.387625     5A    -11.299960     6A    -11.285383
       7A    -11.252374     8A    -11.251156     9A    -11.251117
      10A    -11.242497    11A    -11.226031    12A    -11.223770
      13A     -1.455750    14A     -1.351853    15A     -1.254513
      16A     -1.145341    17A     -1.047024    18A     -1.016079
      19A     -0.969700    20A     -0.919192    21A     -0.864243
      22A     -0.804634    23A     -0.784648    24A     -0.729083
      25A     -0.694135    26A     -0.673762    27A     -0.670262
      28A     -0.668422    29A     -0.633307    30A     -0.620421
      31A     -0.617127    32A     -0.591335    33A     -0.577418
      34A     -0.557296    35A     -0.536893    36A     -0.532916
      37A     -0.519771    38A     -0.505932    39A     -0.503808
      40A     -0.466992    41A     -0.441737    42A     -0.422145
      43A     -0.350144    44A     -0.289671

  @DF-RHF Final Energy:  -551.58682255261840

   => Energetics <=

    Nuclear Repulsion Energy =            687.9988788233569039
    One-Electron Energy =               -2116.4723033887189558
    Two-Electron Energy =                 876.8866020127437650
    Total Energy =                       -551.5868225526184006
  Basis Set: (AUG-CC-PVTZ AUX)
    Blend: AUG-CC-PVTZ-RI
    Molecular point group: c1

    Geometry (in Angstrom), charge = 0, multiplicity = 1:

       Center              X                  Y                   Z               Mass
    ------------   -----------------  -----------------  -----------------  -----------------
         O            2.475778097583     0.523267447174    -0.051177695519    15.994914619570
         O            1.568186097583    -1.539256552826     0.092578304481    15.994914619570
         N           -1.221341602417    -1.704706152826    -0.145217895519    14.003074004430
         C           -1.103096902417    -0.340161552826    -0.047134695519    12.000000000000
         C            0.120229097583     0.390371447174    -0.025002695519    12.000000000000
         C           -2.306801902417     0.399291447174    -0.043852695519    12.000000000000
         C            0.098605097583     1.793746447174     0.038896304481    12.000000000000
         C           -2.301881902417     1.786531447174     0.014911304481    12.000000000000
         C           -1.098024902417     2.496818447174     0.043687304481    12.000000000000
         C            1.414805097583    -0.318899552826     0.013140304481    12.000000000000
         C           -2.332260902417    -2.475798552826     0.076525304481    12.000000000000
         C            3.755330097583    -0.137140552826    -0.003728695519    12.000000000000
         H           -3.256631902417    -0.124972552826    -0.066109695519     1.007825032230
         H            1.044228097583     2.324840447174     0.066958304481     1.007825032230
         H           -0.236520902417    -2.159041552826     0.041071304481     1.007825032230
         H           -3.250718902417     2.319184447174     0.022045304481     1.007825032230
         H           -1.095955902417     3.582034447174     0.092829304481     1.007825032230
         H           -2.804434902417    -2.255682552826     1.044199304481     1.007825032230
         H           -2.067758902417    -3.534233552826     0.051479304481     1.007825032230
         H           -3.067746902417    -2.295595552826    -0.714377695519     1.007825032230
         H            3.862138097583    -0.821906552826    -0.846222695519     1.007825032230
         H            3.863952097583    -0.693825552826     0.928237304481     1.007825032230
         H            4.486036097583     0.667287447174    -0.062476695519     1.007825032230

  Basis Set: AUG-CC-PVTZ
    Blend: AUG-CC-PVTZ
  Basis Set: (AUG-CC-PVTZ AUX)
    Blend: AUG-CC-PVTZ-JKFIT
	 Reference Energy          =    -551.5868225526184006 [Eh]
	 Singles Energy            =      -0.0000000000000000 [Eh]
	 Same-Spin Energy          =      -0.5802273910219258 [Eh]
	 Opposite-Spin Energy      =      -1.8015403742957079 [Eh]
	 Correlation Energy        =      -2.3817677653176337 [Eh]
	 Total Energy              =    -553.9685903179359912 [Eh]

	 ================> DF-SCS-MP2 Energies <==================
	-----------------------------------------------------------
	 SCS Same-Spin Scale       =       0.3333333333333333 [-]
	 SCS Opposite-Spin Scale   =       1.2000000000000000 [-]
	 SCS Same-Spin Energy      =      -0.1934091303406419 [Eh]
	 SCS Opposite-Spin Energy  =      -2.1618484491548493 [Eh]
	 SCS Correlation Energy    =      -2.3552575794954911 [Eh]
	 SCS Total Energy          =    -553.9420801321139152 [Eh]
	-----------------------------------------------------------

  Dipole Moment: [D]
     X:     0.0523      Y:    -0.0670      Z:     0.2928     Total:     0.3049

*** Psi4 exiting successfully. Buy a developer a beer!
