                               Psi4 1.3.2 release

  ==> Input File <==

--------------------------------------------------------------------------
#psi4
#
memory 32 gb

molecule  {
0 1
  O        2.4822540     0.5405090    -0.0540980
  O        1.5746620    -1.5220150     0.0896580
  N       -1.2625220    -1.6826088    -0.1465301
  C       -1.0966210    -0.3229200    -0.0500550
  C        0.1267050     0.4076130    -0.0279230
  C       -2.3003260     0.4165330    -0.0467730
  C        0.1050810     1.8109880     0.0359760
  C       -2.2954060     1.8037730     0.0119910
  C       -1.0915490     2.5140600     0.0407670
  C        1.4212810    -0.3016580     0.0102200
  C       -2.3257850    -2.4585570     0.0736050
  C        3.7618060    -0.1198990    -0.0066490
  H       -3.2501560    -0.1077310    -0.0690300
  H        1.0507040     2.3420820     0.0640380
  H       -0.2300450    -2.1418000     0.0381510
  H       -3.2442430     2.3364260     0.0191250
  H       -1.0894800     3.5992760     0.0899090
  H       -2.7979590    -2.2384410     1.0412790
  H       -2.0612830    -3.5169920     0.0485590
  H       -3.0612710    -2.2783540    -0.7172980
  H        3.8686140    -0.8046650    -0.8491430
  H        3.8704280    -0.6765840     0.9253170
  H        4.4925120     0.6845290    -0.0653970
units angstrom
no_reorient  #important for SAPT in psi4, default
symmetry c1  #important for SAPT in psi4, default
}

set PROPERTIES_ORIGIN ["COM"]
properties('MP2/aug-cc-pvtz', properties = ['dipole'])
--------------------------------------------------------------------------

    Molecular point group: c1
  Charge       = 0
  Multiplicity = 1
  Basis Set: AUG-CC-PVTZ
    Blend: AUG-CC-PVTZ
  Basis Set: (AUG-CC-PVTZ AUX)
    Blend: AUG-CC-PVTZ-JKFIT

    Orbital Energies [Eh]
    ---------------------

    Doubly Occupied:

       1A    -20.605043     2A    -20.545856     3A    -15.566208
       4A    -11.388646     5A    -11.301399     6A    -11.285938
       7A    -11.251774     8A    -11.250835     9A    -11.249601
      10A    -11.243964    11A    -11.225431    12A    -11.224027
      13A     -1.456622    14A     -1.352834    15A     -1.260648
      16A     -1.147331    17A     -1.047517    18A     -1.019976
      19A     -0.970250    20A     -0.917744    21A     -0.864027
      22A     -0.803458    23A     -0.784576    24A     -0.729676
      25A     -0.692590    26A     -0.674650    27A     -0.672282
      28A     -0.670372    29A     -0.635771    30A     -0.625433
      31A     -0.617541    32A     -0.594593    33A     -0.577928
      34A     -0.558117    35A     -0.536640    36A     -0.531428
      37A     -0.514639    38A     -0.505148    39A     -0.504560
      40A     -0.467881    41A     -0.438443    42A     -0.419279
      43A     -0.350587    44A     -0.288547

  @DF-RHF Final Energy:  -551.57016142349312

   => Energetics <=

    Nuclear Repulsion Energy =            688.0687052205637428
    One-Electron Energy =               -2116.5381136980772681
    Two-Electron Energy =                 876.8992470540204067
    Total Energy =                       -551.5701614234931185
  Basis Set: (AUG-CC-PVTZ AUX)
    Blend: AUG-CC-PVTZ-RI
    Molecular point group: c1

    Geometry (in Angstrom), charge = 0, multiplicity = 1:

       Center              X                  Y                   Z               Mass
    ------------   -----------------  -----------------  -----------------  -----------------
         O            2.479820615300     0.522855546596    -0.051314105033    15.994914619570
         O            1.572228615300    -1.539668453404     0.092441894967    15.994914619570
         N           -1.264955384700    -1.700262253404    -0.143746205033    14.003074004430
         C           -1.099054384700    -0.340573453404    -0.047271105033    12.000000000000
         C            0.124271615300     0.389959546596    -0.025139105033    12.000000000000
         C           -2.302759384700     0.398879546596    -0.043989105033    12.000000000000
         C            0.102647615300     1.793334546596     0.038759894967    12.000000000000
         C           -2.297839384700     1.786119546596     0.014774894967    12.000000000000
         C           -1.093982384700     2.496406546596     0.043550894967    12.000000000000
         C            1.418847615300    -0.319311453404     0.013003894967    12.000000000000
         C           -2.328218384700    -2.476210453404     0.076388894967    12.000000000000
         C            3.759372615300    -0.137552453404    -0.003865105033    12.000000000000
         H           -3.252589384700    -0.125384453404    -0.066246105033     1.007825032230
         H            1.048270615300     2.324428546596     0.066821894967     1.007825032230
         H           -0.232478384700    -2.159453453404     0.040934894967     1.007825032230
         H           -3.246676384700     2.318772546596     0.021908894967     1.007825032230
         H           -1.091913384700     3.581622546596     0.092692894967     1.007825032230
         H           -2.800392384700    -2.256094453404     1.044062894967     1.007825032230
         H           -2.063716384700    -3.534645453404     0.051342894967     1.007825032230
         H           -3.063704384700    -2.296007453404    -0.714514105033     1.007825032230
         H            3.866180615300    -0.822318453404    -0.846359105033     1.007825032230
         H            3.867994615300    -0.694237453404     0.928100894967     1.007825032230
         H            4.490078615300     0.666875546596    -0.062613105033     1.007825032230

  Basis Set: AUG-CC-PVTZ
    Blend: AUG-CC-PVTZ
  Basis Set: (AUG-CC-PVTZ AUX)
    Blend: AUG-CC-PVTZ-JKFIT
	 Reference Energy          =    -551.5701614234931185 [Eh]
	 Singles Energy            =      -0.0000000000000000 [Eh]
	 Same-Spin Energy          =      -0.5811408106011838 [Eh]
	 Opposite-Spin Energy      =      -1.8029771951066809 [Eh]
	 Correlation Energy        =      -2.3841180057078648 [Eh]
	 Total Energy              =    -553.9542794292009376 [Eh]

	 ================> DF-SCS-MP2 Energies <==================
	-----------------------------------------------------------
	 SCS Same-Spin Scale       =       0.3333333333333333 [-]
	 SCS Opposite-Spin Scale   =       1.2000000000000000 [-]
	 SCS Same-Spin Energy      =      -0.1937136035337279 [Eh]
	 SCS Opposite-Spin Energy  =      -2.1635726341280170 [Eh]
	 SCS Correlation Energy    =      -2.3572862376617452 [Eh]
	 SCS Total Energy          =    -553.9274476611548153 [Eh]
	-----------------------------------------------------------

  Dipole Moment: [D]
     X:     0.1669      Y:    -0.0482      Z:     0.2741     Total:     0.3245

*** Psi4 exiting successfully. Buy a developer a beer!
