                               Psi4 1.3.2 release

  ==> Input File <==

--------------------------------------------------------------------------
#psi4
#
memory 32 gb

molecule  {
0 1
  O        2.4822540     0.5405090    -0.0540980
  O        1.5746620    -1.5220150     0.0896580
  N       -1.1191790    -1.6921850    -0.1509940
  C       -1.1445679    -0.2357973    -0.0520721
  C        0.1267050     0.4076130    -0.0279230
  C       -2.3003260     0.4165330    -0.0467730
  C        0.1050810     1.8109880     0.0359760
  C       -2.2954060     1.8037730     0.0119910
  C       -1.0915490     2.5140600     0.0407670
  C        1.4212810    -0.3016580     0.0102200
  C       -2.3257850    -2.4585570     0.0736050
  C        3.7618060    -0.1198990    -0.0066490
  H       -3.2501560    -0.1077310    -0.0690300
  H        1.0507040     2.3420820     0.0640380
  H       -0.2300450    -2.1418000     0.0381510
  H       -3.2442430     2.3364260     0.0191250
  H       -1.0894800     3.5992760     0.0899090
  H       -2.7979590    -2.2384410     1.0412790
  H       -2.0612830    -3.5169920     0.0485590
  H       -3.0612710    -2.2783540    -0.7172980
  H        3.8686140    -0.8046650    -0.8491430
  H        3.8704280    -0.6765840     0.9253170
  H        4.4925120     0.6845290    -0.0653970
units angstrom
no_reorient  #important for SAPT in psi4, default
symmetry c1  #important for SAPT in psi4, default
}

set PROPERTIES_ORIGIN ["COM"]
properties('MP2/aug-cc-pvtz', properties = ['dipole'])
--------------------------------------------------------------------------

    Molecular point group: c1
  Charge       = 0
  Multiplicity = 1
  Basis Set: AUG-CC-PVTZ
    Blend: AUG-CC-PVTZ
  Basis Set: (AUG-CC-PVTZ AUX)
    Blend: AUG-CC-PVTZ-JKFIT

    Orbital Energies [Eh]
    ---------------------

    Doubly Occupied:

       1A    -20.605783     2A    -20.543849     3A    -15.549142
       4A    -11.390157     5A    -11.290695     6A    -11.286184
       7A    -11.256355     8A    -11.253623     9A    -11.248351
      10A    -11.245471    11A    -11.229606    12A    -11.222709
      13A     -1.456498    14A     -1.351438    15A     -1.220428
      16A     -1.146448    17A     -1.052405    18A     -1.018106
      19A     -0.969465    20A     -0.908754    21A     -0.871816
      22A     -0.808721    23A     -0.786650    24A     -0.732259
      25A     -0.692614    26A     -0.677822    27A     -0.670776
      28A     -0.655985    29A     -0.626698    30A     -0.620228
      31A     -0.600700    32A     -0.582669    33A     -0.578202
      34A     -0.556790    35A     -0.541135    36A     -0.532122
      37A     -0.526384    38A     -0.512039    39A     -0.496315
      40A     -0.466516    41A     -0.448632    42A     -0.412902
      43A     -0.353304    44A     -0.300996

  @DF-RHF Final Energy:  -551.58871836993944

   => Energetics <=

    Nuclear Repulsion Energy =            687.9358118026110560
    One-Electron Energy =               -2116.4535698752406461
    Two-Electron Energy =                 876.9290397026900337
    Total Energy =                       -551.5887183699394427
  Basis Set: (AUG-CC-PVTZ AUX)
    Blend: AUG-CC-PVTZ-RI
    Molecular point group: c1

    Geometry (in Angstrom), charge = 0, multiplicity = 1:

       Center              X                  Y                   Z               Mass
    ------------   -----------------  -----------------  -----------------  -----------------
         O            2.471146707518     0.517334697301    -0.050788819968    15.994914619570
         O            1.563554707518    -1.545189302699     0.092967180032    15.994914619570
         N           -1.130286292482    -1.715359302699    -0.147684819968    14.003074004430
         C           -1.155675192482    -0.258971602699    -0.048762919968    12.000000000000
         C            0.115597707518     0.384438697301    -0.024613819968    12.000000000000
         C           -2.311433292482     0.393358697301    -0.043463819968    12.000000000000
         C            0.093973707518     1.787813697301     0.039285180032    12.000000000000
         C           -2.306513292482     1.780598697301     0.015300180032    12.000000000000
         C           -1.102656292482     2.490885697301     0.044076180032    12.000000000000
         C            1.410173707518    -0.324832302699     0.013529180032    12.000000000000
         C           -2.336892292482    -2.481731302699     0.076914180032    12.000000000000
         C            3.750698707518    -0.143073302699    -0.003339819968    12.000000000000
         H           -3.261263292482    -0.130905302699    -0.065720819968     1.007825032230
         H            1.039596707518     2.318907697301     0.067347180032     1.007825032230
         H           -0.241152292482    -2.164974302699     0.041460180032     1.007825032230
         H           -3.255350292482     2.313251697301     0.022434180032     1.007825032230
         H           -1.100587292482     3.576101697301     0.093218180032     1.007825032230
         H           -2.809066292482    -2.261615302699     1.044588180032     1.007825032230
         H           -2.072390292482    -3.540166302699     0.051868180032     1.007825032230
         H           -3.072378292482    -2.301528302699    -0.713988819968     1.007825032230
         H            3.857506707518    -0.827839302699    -0.845833819968     1.007825032230
         H            3.859320707518    -0.699758302699     0.928626180032     1.007825032230
         H            4.481404707518     0.661354697301    -0.062087819968     1.007825032230

  Basis Set: AUG-CC-PVTZ
    Blend: AUG-CC-PVTZ
  Basis Set: (AUG-CC-PVTZ AUX)
    Blend: AUG-CC-PVTZ-JKFIT
	 Reference Energy          =    -551.5887183699394427 [Eh]
	 Singles Energy            =      -0.0000000000000000 [Eh]
	 Same-Spin Energy          =      -0.5788562227653964 [Eh]
	 Opposite-Spin Energy      =      -1.8002546205818453 [Eh]
	 Correlation Energy        =      -2.3791108433472417 [Eh]
	 Total Energy              =    -553.9678292132866773 [Eh]

	 ================> DF-SCS-MP2 Energies <==================
	-----------------------------------------------------------
	 SCS Same-Spin Scale       =       0.3333333333333333 [-]
	 SCS Opposite-Spin Scale   =       1.2000000000000000 [-]
	 SCS Same-Spin Energy      =      -0.1929520742551321 [Eh]
	 SCS Opposite-Spin Energy  =      -2.1603055446982142 [Eh]
	 SCS Correlation Energy    =      -2.3532576189533465 [Eh]
	 SCS Total Energy          =    -553.9419759888927501 [Eh]
	-----------------------------------------------------------

  Dipole Moment: [D]
     X:     0.0423      Y:     0.5763      Z:     0.3645     Total:     0.6832

*** Psi4 exiting successfully. Buy a developer a beer!
