                               Psi4 1.3.2 release

  ==> Input File <==

--------------------------------------------------------------------------
#psi4
#
memory 32 gb

molecule  {
0 1
  O        2.4822540     0.5405090    -0.0540980
  O        1.6595944    -1.5084032     0.0881950
  N       -1.1191790    -1.6921850    -0.1509940
  C       -1.0966210    -0.3229200    -0.0500550
  C        0.1267050     0.4076130    -0.0279230
  C       -2.3003260     0.4165330    -0.0467730
  C        0.1050810     1.8109880     0.0359760
  C       -2.2954060     1.8037730     0.0119910
  C       -1.0915490     2.5140600     0.0407670
  C        1.4212810    -0.3016580     0.0102200
  C       -2.3257850    -2.4585570     0.0736050
  C        3.7618060    -0.1198990    -0.0066490
  H       -3.2501560    -0.1077310    -0.0690300
  H        1.0507040     2.3420820     0.0640380
  H       -0.2300450    -2.1418000     0.0381510
  H       -3.2442430     2.3364260     0.0191250
  H       -1.0894800     3.5992760     0.0899090
  H       -2.7979590    -2.2384410     1.0412790
  H       -2.0612830    -3.5169920     0.0485590
  H       -3.0612710    -2.2783540    -0.7172980
  H        3.8686140    -0.8046650    -0.8491430
  H        3.8704280    -0.6765840     0.9253170
  H        4.4925120     0.6845290    -0.0653970
units angstrom
no_reorient  #important for SAPT in psi4, default
symmetry c1  #important for SAPT in psi4, default
}

set PROPERTIES_ORIGIN ["COM"]
properties('MP2/aug-cc-pvtz', properties = ['dipole'])
--------------------------------------------------------------------------

    Molecular point group: c1
  Charge       = 0
  Multiplicity = 1
  Basis Set: AUG-CC-PVTZ
    Blend: AUG-CC-PVTZ
  Basis Set: (AUG-CC-PVTZ AUX)
    Blend: AUG-CC-PVTZ-JKFIT

    Orbital Energies [Eh]
    ---------------------

    Doubly Occupied:

       1A    -20.596201     2A    -20.539399     3A    -15.566958
       4A    -11.384132     5A    -11.300835     6A    -11.280086
       7A    -11.260618     8A    -11.253746     9A    -11.252248
      10A    -11.243135    11A    -11.229416    12A    -11.225227
      13A     -1.453605    14A     -1.342200    15A     -1.248798
      16A     -1.144222    17A     -1.048043    18A     -1.011723
      19A     -0.966044    20A     -0.924787    21A     -0.866036
      22A     -0.810764    23A     -0.781153    24A     -0.728752
      25A     -0.702457    26A     -0.671333    27A     -0.665654
      28A     -0.660641    29A     -0.630484    30A     -0.617742
      31A     -0.614030    32A     -0.586368    33A     -0.575176
      34A     -0.552884    35A     -0.544571    36A     -0.533997
      37A     -0.521088    38A     -0.507753    39A     -0.502532
      40A     -0.461133    41A     -0.444896    42A     -0.430006
      43A     -0.351467    44A     -0.293889

  @DF-RHF Final Energy:  -551.60014355335773

   => Energetics <=

    Nuclear Repulsion Energy =            687.4798197518101688
    One-Electron Energy =               -2115.5074735341127052
    Two-Electron Energy =                 876.4275102289446977
    Total Energy =                       -551.6001435533577251
  Basis Set: (AUG-CC-PVTZ AUX)
    Blend: AUG-CC-PVTZ-RI
    Molecular point group: c1

    Geometry (in Angstrom), charge = 0, multiplicity = 1:

       Center              X                  Y                   Z               Mass
    ------------   -----------------  -----------------  -----------------  -----------------
         O            2.459432016145     0.522348980937    -0.050793694240    15.994914619570
         O            1.636772416145    -1.526563219063     0.091499305760    15.994914619570
         N           -1.142000983855    -1.710345019063    -0.147689694240    14.003074004430
         C           -1.119442983855    -0.341080019063    -0.046750694240    12.000000000000
         C            0.103883016145     0.389452980937    -0.024618694240    12.000000000000
         C           -2.323147983855     0.398372980937    -0.043468694240    12.000000000000
         C            0.082259016145     1.792827980937     0.039280305760    12.000000000000
         C           -2.318227983855     1.785612980937     0.015295305760    12.000000000000
         C           -1.114370983855     2.495899980937     0.044071305760    12.000000000000
         C            1.398459016145    -0.319818019063     0.013524305760    12.000000000000
         C           -2.348606983855    -2.476717019063     0.076909305760    12.000000000000
         C            3.738984016145    -0.138059019063    -0.003344694240    12.000000000000
         H           -3.272977983855    -0.125891019063    -0.065725694240     1.007825032230
         H            1.027882016145     2.323921980937     0.067342305760     1.007825032230
         H           -0.252866983855    -2.159960019063     0.041455305760     1.007825032230
         H           -3.267064983855     2.318265980937     0.022429305760     1.007825032230
         H           -1.112301983855     3.581115980937     0.093213305760     1.007825032230
         H           -2.820780983855    -2.256601019063     1.044583305760     1.007825032230
         H           -2.084104983855    -3.535152019063     0.051863305760     1.007825032230
         H           -3.084092983855    -2.296514019063    -0.713993694240     1.007825032230
         H            3.845792016145    -0.822825019063    -0.845838694240     1.007825032230
         H            3.847606016145    -0.694744019063     0.928621305760     1.007825032230
         H            4.469690016145     0.666368980937    -0.062092694240     1.007825032230

  Basis Set: AUG-CC-PVTZ
    Blend: AUG-CC-PVTZ
  Basis Set: (AUG-CC-PVTZ AUX)
    Blend: AUG-CC-PVTZ-JKFIT
	 Reference Energy          =    -551.6001435533577251 [Eh]
	 Singles Energy            =      -0.0000000000000000 [Eh]
	 Same-Spin Energy          =      -0.5787283394223980 [Eh]
	 Opposite-Spin Energy      =      -1.7996203078485244 [Eh]
	 Correlation Energy        =      -2.3783486472709225 [Eh]
	 Total Energy              =    -553.9784922006286934 [Eh]

	 ================> DF-SCS-MP2 Energies <==================
	-----------------------------------------------------------
	 SCS Same-Spin Scale       =       0.3333333333333333 [-]
	 SCS Opposite-Spin Scale   =       1.2000000000000000 [-]
	 SCS Same-Spin Energy      =      -0.1929094464741327 [Eh]
	 SCS Opposite-Spin Energy  =      -2.1595443694182292 [Eh]
	 SCS Correlation Energy    =      -2.3524538158923618 [Eh]
	 SCS Total Energy          =    -553.9525973692500429 [Eh]
	-----------------------------------------------------------

  Dipole Moment: [D]
     X:    -0.5173      Y:    -0.0827      Z:     0.3298     Total:     0.6190

*** Psi4 exiting successfully. Buy a developer a beer!
