                               Psi4 1.3.2 release

  ==> Input File <==

--------------------------------------------------------------------------
#psi4
#
memory 32 gb

molecule  {
0 1
  O        2.4822540     0.5405090    -0.0540980
  O        1.5746620    -1.5220150     0.0896580
  N       -1.1191790    -1.6921850    -0.1509940
  C       -1.0966210    -0.3229200    -0.0500550
  C        0.1267050     0.4076130    -0.0279230
  C       -2.3003260     0.4165330    -0.0467730
  C        0.1050810     1.8109880     0.0359760
  C       -2.2954060     1.8037730     0.0119910
  C       -1.0915490     2.5140600     0.0407670
  C        1.5153797    -0.4076485     0.0179926
  C       -2.3257850    -2.4585570     0.0736050
  C        3.7618060    -0.1198990    -0.0066490
  H       -3.2501560    -0.1077310    -0.0690300
  H        1.0507040     2.3420820     0.0640380
  H       -0.2300450    -2.1418000     0.0381510
  H       -3.2442430     2.3364260     0.0191250
  H       -1.0894800     3.5992760     0.0899090
  H       -2.7979590    -2.2384410     1.0412790
  H       -2.0612830    -3.5169920     0.0485590
  H       -3.0612710    -2.2783540    -0.7172980
  H        3.8686140    -0.8046650    -0.8491430
  H        3.8704280    -0.6765840     0.9253170
  H        4.4925120     0.6845290    -0.0653970
units angstrom
no_reorient  #important for SAPT in psi4, default
symmetry c1  #important for SAPT in psi4, default
}

set PROPERTIES_ORIGIN ["COM"]
properties('MP2/aug-cc-pvtz', properties = ['dipole'])
--------------------------------------------------------------------------

    Molecular point group: c1
  Charge       = 0
  Multiplicity = 1
  Basis Set: AUG-CC-PVTZ
    Blend: AUG-CC-PVTZ
  Basis Set: (AUG-CC-PVTZ AUX)
    Blend: AUG-CC-PVTZ-JKFIT

    Orbital Energies [Eh]
    ---------------------

    Doubly Occupied:

       1A    -20.607691     2A    -20.566861     3A    -15.558406
       4A    -11.384106     5A    -11.288506     6A    -11.285746
       7A    -11.255710     8A    -11.239790     9A    -11.238588
      10A    -11.236259    11A    -11.219883    12A    -11.215972
      13A     -1.505182    14A     -1.406318    15A     -1.240551
      16A     -1.130216    17A     -1.025087    18A     -1.001255
      19A     -0.967030    20A     -0.917869    21A     -0.844253
      22A     -0.801515    23A     -0.790394    24A     -0.732479
      25A     -0.708935    26A     -0.694992    27A     -0.687067
      28A     -0.657861    29A     -0.623635    30A     -0.611793
      31A     -0.608566    32A     -0.585137    33A     -0.578128
      34A     -0.576672    35A     -0.542987    36A     -0.538641
      37A     -0.530830    38A     -0.505977    39A     -0.495580
      40A     -0.485480    41A     -0.432795    42A     -0.422780
      43A     -0.338228    44A     -0.283261

  @DF-RHF Final Energy:  -551.57877686237362

   => Energetics <=

    Nuclear Repulsion Energy =            688.0519789581517216
    One-Electron Energy =               -2116.5234930456654183
    Two-Electron Energy =                 876.8927372251400811
    Total Energy =                       -551.5787768623736156
  Basis Set: (AUG-CC-PVTZ AUX)
    Blend: AUG-CC-PVTZ-RI
    Molecular point group: c1

    Geometry (in Angstrom), charge = 0, multiplicity = 1:

       Center              X                  Y                   Z               Mass
    ------------   -----------------  -----------------  -----------------  -----------------
         O            2.460821060883     0.531372574320    -0.051500457519    15.994914619570
         O            1.553229060883    -1.531151425680     0.092255542481    15.994914619570
         N           -1.140611939117    -1.701321425680    -0.148396457519    14.003074004430
         C           -1.118053939117    -0.332056425680    -0.047457457519    12.000000000000
         C            0.105272060883     0.398476574320    -0.025325457519    12.000000000000
         C           -2.321758939117     0.407396574320    -0.044175457519    12.000000000000
         C            0.083648060883     1.801851574320     0.038573542481    12.000000000000
         C           -2.316838939117     1.794636574320     0.014588542481    12.000000000000
         C           -1.112981939117     2.504923574320     0.043364542481    12.000000000000
         C            1.493946760883    -0.416784925680     0.020590142481    12.000000000000
         C           -2.347217939117    -2.467693425680     0.076202542481    12.000000000000
         C            3.740373060883    -0.129035425680    -0.004051457519    12.000000000000
         H           -3.271588939117    -0.116867425680    -0.066432457519     1.007825032230
         H            1.029271060883     2.332945574320     0.066635542481     1.007825032230
         H           -0.251477939117    -2.150936425680     0.040748542481     1.007825032230
         H           -3.265675939117     2.327289574320     0.021722542481     1.007825032230
         H           -1.110912939117     3.590139574320     0.092506542481     1.007825032230
         H           -2.819391939117    -2.247577425680     1.043876542481     1.007825032230
         H           -2.082715939117    -3.526128425680     0.051156542481     1.007825032230
         H           -3.082703939117    -2.287490425680    -0.714700457519     1.007825032230
         H            3.847181060883    -0.813801425680    -0.846545457519     1.007825032230
         H            3.848995060883    -0.685720425680     0.927914542481     1.007825032230
         H            4.471079060883     0.675392574320    -0.062799457519     1.007825032230

  Basis Set: AUG-CC-PVTZ
    Blend: AUG-CC-PVTZ
  Basis Set: (AUG-CC-PVTZ AUX)
    Blend: AUG-CC-PVTZ-JKFIT
	 Reference Energy          =    -551.5787768623736156 [Eh]
	 Singles Energy            =      -0.0000000000000000 [Eh]
	 Same-Spin Energy          =      -0.5769135774712308 [Eh]
	 Opposite-Spin Energy      =      -1.7961357007730911 [Eh]
	 Correlation Energy        =      -2.3730492782443218 [Eh]
	 Total Energy              =    -553.9518261406179818 [Eh]

	 ================> DF-SCS-MP2 Energies <==================
	-----------------------------------------------------------
	 SCS Same-Spin Scale       =       0.3333333333333333 [-]
	 SCS Opposite-Spin Scale   =       1.2000000000000000 [-]
	 SCS Same-Spin Energy      =      -0.1923045258237436 [Eh]
	 SCS Opposite-Spin Energy  =      -2.1553628409277095 [Eh]
	 SCS Correlation Energy    =      -2.3476673667514532 [Eh]
	 SCS Total Energy          =    -553.9264442291250816 [Eh]
	-----------------------------------------------------------

  Dipole Moment: [D]
     X:     0.8153      Y:    -0.8231      Z:     0.3750     Total:     1.2178

*** Psi4 exiting successfully. Buy a developer a beer!
