                               Psi4 1.3.2 release

  ==> Input File <==

--------------------------------------------------------------------------
#psi4
#
memory 32 gb

molecule  {
0 1
  O        2.4822540     0.5405090    -0.0540980
  O        1.5746620    -1.5220150     0.0896580
  N       -1.1191790    -1.6921850    -0.1509940
  C       -1.0966210    -0.3229200    -0.0500550
  C        0.1267050     0.4076130    -0.0279230
  C       -2.3003260     0.4165330    -0.0467730
  C        0.1050810     1.8109880     0.0359760
  C       -2.2954060     1.8037730     0.0119910
  C       -1.0915490     2.5140600     0.0407670
  C        1.3649480    -0.2257956     0.0046412
  C       -2.3257850    -2.4585570     0.0736050
  C        3.7618060    -0.1198990    -0.0066490
  H       -3.2501560    -0.1077310    -0.0690300
  H        1.0507040     2.3420820     0.0640380
  H       -0.2300450    -2.1418000     0.0381510
  H       -3.2442430     2.3364260     0.0191250
  H       -1.0894800     3.5992760     0.0899090
  H       -2.7979590    -2.2384410     1.0412790
  H       -2.0612830    -3.5169920     0.0485590
  H       -3.0612710    -2.2783540    -0.7172980
  H        3.8686140    -0.8046650    -0.8491430
  H        3.8704280    -0.6765840     0.9253170
  H        4.4925120     0.6845290    -0.0653970
units angstrom
no_reorient  #important for SAPT in psi4, default
symmetry c1  #important for SAPT in psi4, default
}

set PROPERTIES_ORIGIN ["COM"]
properties('MP2/aug-cc-pvtz', properties = ['dipole'])
--------------------------------------------------------------------------

    Molecular point group: c1
  Charge       = 0
  Multiplicity = 1
  Basis Set: AUG-CC-PVTZ
    Blend: AUG-CC-PVTZ
  Basis Set: (AUG-CC-PVTZ AUX)
    Blend: AUG-CC-PVTZ-JKFIT

    Orbital Energies [Eh]
    ---------------------

    Doubly Occupied:

       1A    -20.599226     2A    -20.522218     3A    -15.567370
       4A    -11.384033     5A    -11.307643     6A    -11.281703
       7A    -11.260706     8A    -11.260543     9A    -11.257749
      10A    -11.237904    11A    -11.232985    12A    -11.228522
      13A     -1.437439    14A     -1.299538    15A     -1.247747
      16A     -1.151237    17A     -1.062359    18A     -1.015562
      19A     -0.969254    20A     -0.927114    21A     -0.878672
      22A     -0.815525    23A     -0.783015    24A     -0.728677
      25A     -0.703087    26A     -0.670186    27A     -0.660322
      28A     -0.652066    29A     -0.632701    30A     -0.617055
      31A     -0.614127    32A     -0.585466    33A     -0.578533
      34A     -0.549961    35A     -0.545063    36A     -0.533328
      37A     -0.516202    38A     -0.503817    39A     -0.500219
      40A     -0.446756    41A     -0.434427    42A     -0.429131
      43A     -0.355967    44A     -0.297221

  @DF-RHF Final Energy:  -551.58153581848080

   => Energetics <=

    Nuclear Repulsion Energy =            688.1186800556907883
    One-Electron Energy =               -2116.8356759443536248
    Two-Electron Energy =                 877.1354600701821482
    Total Energy =                       -551.5815358184808019
  Basis Set: (AUG-CC-PVTZ AUX)
    Blend: AUG-CC-PVTZ-RI
    Molecular point group: c1

    Geometry (in Angstrom), charge = 0, multiplicity = 1:

       Center              X                  Y                   Z               Mass
    ------------   -----------------  -----------------  -----------------  -----------------
         O            2.471756313907     0.518153236409    -0.050529911170    15.994914619570
         O            1.564164313907    -1.544370763591     0.093226088830    15.994914619570
         N           -1.129676686093    -1.714540763591    -0.147425911170    14.003074004430
         C           -1.107118686093    -0.345275763591    -0.046486911170    12.000000000000
         C            0.116207313907     0.385257236409    -0.024354911170    12.000000000000
         C           -2.310823686093     0.394177236409    -0.043204911170    12.000000000000
         C            0.094583313907     1.788632236409     0.039544088830    12.000000000000
         C           -2.305903686093     1.781417236409     0.015559088830    12.000000000000
         C           -1.102046686093     2.491704236409     0.044335088830    12.000000000000
         C            1.354450313907    -0.248151363591     0.008209288830    12.000000000000
         C           -2.336282686093    -2.480912763591     0.077173088830    12.000000000000
         C            3.751308313907    -0.142254763591    -0.003080911170    12.000000000000
         H           -3.260653686093    -0.130086763591    -0.065461911170     1.007825032230
         H            1.040206313907     2.319726236409     0.067606088830     1.007825032230
         H           -0.240542686093    -2.164155763591     0.041719088830     1.007825032230
         H           -3.254740686093     2.314070236409     0.022693088830     1.007825032230
         H           -1.099977686093     3.576920236409     0.093477088830     1.007825032230
         H           -2.808456686093    -2.260796763591     1.044847088830     1.007825032230
         H           -2.071780686093    -3.539347763591     0.052127088830     1.007825032230
         H           -3.071768686093    -2.300709763591    -0.713729911170     1.007825032230
         H            3.858116313907    -0.827020763591    -0.845574911170     1.007825032230
         H            3.859930313907    -0.698939763591     0.928885088830     1.007825032230
         H            4.482014313907     0.662173236409    -0.061828911170     1.007825032230

  Basis Set: AUG-CC-PVTZ
    Blend: AUG-CC-PVTZ
  Basis Set: (AUG-CC-PVTZ AUX)
    Blend: AUG-CC-PVTZ-JKFIT
	 Reference Energy          =    -551.5815358184808019 [Eh]
	 Singles Energy            =      -0.0000000000000000 [Eh]
	 Same-Spin Energy          =      -0.5809593650275932 [Eh]
	 Opposite-Spin Energy      =      -1.8039017130723245 [Eh]
	 Correlation Energy        =      -2.3848610780999175 [Eh]
	 Total Energy              =    -553.9663968965807044 [Eh]

	 ================> DF-SCS-MP2 Energies <==================
	-----------------------------------------------------------
	 SCS Same-Spin Scale       =       0.3333333333333333 [-]
	 SCS Opposite-Spin Scale   =       1.2000000000000000 [-]
	 SCS Same-Spin Energy      =      -0.1936531216758644 [Eh]
	 SCS Opposite-Spin Energy  =      -2.1646820556867894 [Eh]
	 SCS Correlation Energy    =      -2.3583351773626537 [Eh]
	 SCS Total Energy          =    -553.9398709958434210 [Eh]
	-----------------------------------------------------------

  Dipole Moment: [D]
     X:    -0.8287      Y:     0.3467      Z:     0.2938     Total:     0.9452

*** Psi4 exiting successfully. Buy a developer a beer!
