                               Psi4 1.3.2 release

  ==> Input File <==

--------------------------------------------------------------------------
#psi4
#
memory 32 gb

molecule  {
0 1
  O        2.4822540     0.5405090    -0.0540980
  O        1.5746620    -1.5220150     0.0896580
  N       -1.0656556    -1.7540675    -0.0235402
  C       -1.0966210    -0.3229200    -0.0500550
  C        0.1267050     0.4076130    -0.0279230
  C       -2.3003260     0.4165330    -0.0467730
  C        0.1050810     1.8109880     0.0359760
  C       -2.2954060     1.8037730     0.0119910
  C       -1.0915490     2.5140600     0.0407670
  C        1.4212810    -0.3016580     0.0102200
  C       -2.3257850    -2.4585570     0.0736050
  C        3.7618060    -0.1198990    -0.0066490
  H       -3.2501560    -0.1077310    -0.0690300
  H        1.0507040     2.3420820     0.0640380
  H       -0.2300450    -2.1418000     0.0381510
  H       -3.2442430     2.3364260     0.0191250
  H       -1.0894800     3.5992760     0.0899090
  H       -2.7979590    -2.2384410     1.0412790
  H       -2.0612830    -3.5169920     0.0485590
  H       -3.0612710    -2.2783540    -0.7172980
  H        3.8686140    -0.8046650    -0.8491430
  H        3.8704280    -0.6765840     0.9253170
  H        4.4925120     0.6845290    -0.0653970
units angstrom
no_reorient  #important for SAPT in psi4, default
symmetry c1  #important for SAPT in psi4, default
}

set PROPERTIES_ORIGIN ["COM"]
properties('MP2/aug-cc-pvtz', properties = ['dipole'])
--------------------------------------------------------------------------

    Molecular point group: c1
  Charge       = 0
  Multiplicity = 1
  Basis Set: AUG-CC-PVTZ
    Blend: AUG-CC-PVTZ
  Basis Set: (AUG-CC-PVTZ AUX)
    Blend: AUG-CC-PVTZ-JKFIT

    Orbital Energies [Eh]
    ---------------------

    Doubly Occupied:

       1A    -20.603087     2A    -20.541501     3A    -15.554078
       4A    -11.385776     5A    -11.302112     6A    -11.284462
       7A    -11.256530     8A    -11.253780     9A    -11.251069
      10A    -11.242195    11A    -11.232052    12A    -11.226898
      13A     -1.454216    14A     -1.349860    15A     -1.235022
      16A     -1.145182    17A     -1.047436    18A     -1.010748
      19A     -0.968212    20A     -0.925334    21A     -0.865310
      22A     -0.816603    23A     -0.783129    24A     -0.730296
      25A     -0.703939    26A     -0.673841    27A     -0.668716
      28A     -0.660132    29A     -0.627556    30A     -0.617502
      31A     -0.606283    32A     -0.595046    33A     -0.577299
      34A     -0.555749    35A     -0.540574    36A     -0.531524
      37A     -0.524991    38A     -0.505625    39A     -0.500637
      40A     -0.465069    41A     -0.448206    42A     -0.419643
      43A     -0.350399    44A     -0.295734

  @DF-RHF Final Energy:  -551.58879564440440

   => Energetics <=

    Nuclear Repulsion Energy =            687.3590948393166400
    One-Electron Energy =               -2115.2290789689045596
    Two-Electron Energy =                 876.2811884851835202
    Total Energy =                       -551.5887956444043994
  Basis Set: (AUG-CC-PVTZ AUX)
    Blend: AUG-CC-PVTZ-RI
    Molecular point group: c1

    Geometry (in Angstrom), charge = 0, multiplicity = 1:

       Center              X                  Y                   Z               Mass
    ------------   -----------------  -----------------  -----------------  -----------------
         O            2.463121125204     0.528917138889    -0.061746909295    15.994914619570
         O            1.555529125204    -1.533606861111     0.082009090705    15.994914619570
         N           -1.084788474796    -1.765659361111    -0.031189109295    14.003074004430
         C           -1.115753874796    -0.334511861111    -0.057703909295    12.000000000000
         C            0.107572125204     0.396021138889    -0.035571909295    12.000000000000
         C           -2.319458874796     0.404941138889    -0.054421909295    12.000000000000
         C            0.085948125204     1.799396138889     0.028327090705    12.000000000000
         C           -2.314538874796     1.792181138889     0.004342090705    12.000000000000
         C           -1.110681874796     2.502468138889     0.033118090705    12.000000000000
         C            1.402148125204    -0.313249861111     0.002571090705    12.000000000000
         C           -2.344917874796    -2.470148861111     0.065956090705    12.000000000000
         C            3.742673125204    -0.131490861111    -0.014297909295    12.000000000000
         H           -3.269288874796    -0.119322861111    -0.076678909295     1.007825032230
         H            1.031571125204     2.330490138889     0.056389090705     1.007825032230
         H           -0.249177874796    -2.153391861111     0.030502090705     1.007825032230
         H           -3.263375874796     2.324834138889     0.011476090705     1.007825032230
         H           -1.108612874796     3.587684138889     0.082260090705     1.007825032230
         H           -2.817091874796    -2.250032861111     1.033630090705     1.007825032230
         H           -2.080415874796    -3.528583861111     0.040910090705     1.007825032230
         H           -3.080403874796    -2.289945861111    -0.724946909295     1.007825032230
         H            3.849481125204    -0.816256861111    -0.856791909295     1.007825032230
         H            3.851295125204    -0.688175861111     0.917668090705     1.007825032230
         H            4.473379125204     0.672937138889    -0.073045909295     1.007825032230

  Basis Set: AUG-CC-PVTZ
    Blend: AUG-CC-PVTZ
  Basis Set: (AUG-CC-PVTZ AUX)
    Blend: AUG-CC-PVTZ-JKFIT
	 Reference Energy          =    -551.5887956444043994 [Eh]
	 Singles Energy            =      -0.0000000000000000 [Eh]
	 Same-Spin Energy          =      -0.5784977559703245 [Eh]
	 Opposite-Spin Energy      =      -1.7997756944739243 [Eh]
	 Correlation Energy        =      -2.3782734504442486 [Eh]
	 Total Energy              =    -553.9670690948486254 [Eh]

	 ================> DF-SCS-MP2 Energies <==================
	-----------------------------------------------------------
	 SCS Same-Spin Scale       =       0.3333333333333333 [-]
	 SCS Opposite-Spin Scale   =       1.2000000000000000 [-]
	 SCS Same-Spin Energy      =      -0.1928325853234415 [Eh]
	 SCS Opposite-Spin Energy  =      -2.1597308333687089 [Eh]
	 SCS Correlation Energy    =      -2.3525634186921502 [Eh]
	 SCS Total Energy          =    -553.9413590630965700 [Eh]
	-----------------------------------------------------------

  Dipole Moment: [D]
     X:    -0.1905      Y:     0.2033      Z:     0.1184     Total:     0.3028

*** Psi4 exiting successfully. Buy a developer a beer!
