                               Psi4 1.3.2 release

  ==> Input File <==

--------------------------------------------------------------------------
#psi4
#
memory 32 gb

molecule  {
0 1
  O        2.4822540     0.5405090    -0.0540980
  O        1.5746620    -1.5220150     0.0896580
  N       -1.1191790    -1.6921850    -0.1509940
  C       -1.0966210    -0.3229200    -0.0500550
  C        0.1267050     0.4076130    -0.0279230
  C       -2.3003260     0.4165330    -0.0467730
  C        0.1050810     1.8109880     0.0359760
  C       -2.2954060     1.8037730     0.0119910
  C       -1.0915490     2.5140600     0.0407670
  C        1.3388066    -0.1864405     0.0017427
  C       -2.3257850    -2.4585570     0.0736050
  C        3.7618060    -0.1198990    -0.0066490
  H       -3.2501560    -0.1077310    -0.0690300
  H        1.0507040     2.3420820     0.0640380
  H       -0.2300450    -2.1418000     0.0381510
  H       -3.2442430     2.3364260     0.0191250
  H       -1.0894800     3.5992760     0.0899090
  H       -2.7979590    -2.2384410     1.0412790
  H       -2.0612830    -3.5169920     0.0485590
  H       -3.0612710    -2.2783540    -0.7172980
  H        3.8686140    -0.8046650    -0.8491430
  H        3.8704280    -0.6765840     0.9253170
  H        4.4925120     0.6845290    -0.0653970
units angstrom
no_reorient  #important for SAPT in psi4, default
symmetry c1  #important for SAPT in psi4, default
}

set PROPERTIES_ORIGIN ["COM"]
properties('MP2/aug-cc-pvtz', properties = ['dipole'])
--------------------------------------------------------------------------

    Molecular point group: c1
  Charge       = 0
  Multiplicity = 1
  Basis Set: AUG-CC-PVTZ
    Blend: AUG-CC-PVTZ
  Basis Set: (AUG-CC-PVTZ AUX)
    Blend: AUG-CC-PVTZ-JKFIT

    Orbital Energies [Eh]
    ---------------------

    Doubly Occupied:

       1A    -20.596944     2A    -20.511295     3A    -15.569932
       4A    -11.381450     5A    -11.312636     6A    -11.280218
       7A    -11.265542     8A    -11.261813     9A    -11.261767
      10A    -11.236252    11A    -11.235880    12A    -11.231225
      13A     -1.430963    14A     -1.277529    15A     -1.245399
      16A     -1.156299    17A     -1.070825    18A     -1.018715
      19A     -0.969541    20A     -0.929224    21A     -0.885497
      22A     -0.819065    23A     -0.783286    24A     -0.728413
      25A     -0.705185    26A     -0.672622    27A     -0.656752
      28A     -0.648746    29A     -0.634339    30A     -0.617555
      31A     -0.614475    32A     -0.587622    33A     -0.575541
      34A     -0.550347    35A     -0.546179    36A     -0.533622
      37A     -0.515677    38A     -0.501448    39A     -0.493544
      40A     -0.440386    41A     -0.427483    42A     -0.424283
      43A     -0.358529    44A     -0.300244

  @DF-RHF Final Energy:  -551.56229209865910

   => Energetics <=

    Nuclear Repulsion Energy =            688.2400162448003584
    One-Electron Energy =               -2117.0760358908969465
    Two-Electron Energy =                 877.2737275474376020
    Total Energy =                       -551.5622920986590998
  Basis Set: (AUG-CC-PVTZ AUX)
    Blend: AUG-CC-PVTZ-RI
    Molecular point group: c1

    Geometry (in Angstrom), charge = 0, multiplicity = 1:

       Center              X                  Y                   Z               Mass
    ------------   -----------------  -----------------  -----------------  -----------------
         O            2.473656597048     0.515292416673    -0.050319212022    15.994914619570
         O            1.566064597048    -1.547231583327     0.093436787978    15.994914619570
         N           -1.127776402952    -1.717401583327    -0.147215212022    14.003074004430
         C           -1.105218402952    -0.348136583327    -0.046276212022    12.000000000000
         C            0.118107597048     0.382396416673    -0.024144212022    12.000000000000
         C           -2.308923402952     0.391316416673    -0.042994212022    12.000000000000
         C            0.096483597048     1.785771416673     0.039754787978    12.000000000000
         C           -2.304003402952     1.778556416673     0.015769787978    12.000000000000
         C           -1.100146402952     2.488843416673     0.044545787978    12.000000000000
         C            1.330209197048    -0.211657083327     0.005521487978    12.000000000000
         C           -2.334382402952    -2.483773583327     0.077383787978    12.000000000000
         C            3.753208597048    -0.145115583327    -0.002870212022    12.000000000000
         H           -3.258753402952    -0.132947583327    -0.065251212022     1.007825032230
         H            1.042106597048     2.316865416673     0.067816787978     1.007825032230
         H           -0.238642402952    -2.167016583327     0.041929787978     1.007825032230
         H           -3.252840402952     2.311209416673     0.022903787978     1.007825032230
         H           -1.098077402952     3.574059416673     0.093687787978     1.007825032230
         H           -2.806556402952    -2.263657583327     1.045057787978     1.007825032230
         H           -2.069880402952    -3.542208583327     0.052337787978     1.007825032230
         H           -3.069868402952    -2.303570583327    -0.713519212022     1.007825032230
         H            3.860016597048    -0.829881583327    -0.845364212022     1.007825032230
         H            3.861830597048    -0.701800583327     0.929095787978     1.007825032230
         H            4.483914597048     0.659312416673    -0.061618212022     1.007825032230

  Basis Set: AUG-CC-PVTZ
    Blend: AUG-CC-PVTZ
  Basis Set: (AUG-CC-PVTZ AUX)
    Blend: AUG-CC-PVTZ-JKFIT
	 Reference Energy          =    -551.5622920986590998 [Eh]
	 Singles Energy            =      -0.0000000000000000 [Eh]
	 Same-Spin Energy          =      -0.5820158675642417 [Eh]
	 Opposite-Spin Energy      =      -1.8061591310901020 [Eh]
	 Correlation Energy        =      -2.3881749986543435 [Eh]
	 Total Energy              =    -553.9504670973134353 [Eh]

	 ================> DF-SCS-MP2 Energies <==================
	-----------------------------------------------------------
	 SCS Same-Spin Scale       =       0.3333333333333333 [-]
	 SCS Opposite-Spin Scale   =       1.2000000000000000 [-]
	 SCS Same-Spin Energy      =      -0.1940052891880806 [Eh]
	 SCS Opposite-Spin Energy  =      -2.1673909573081223 [Eh]
	 SCS Correlation Energy    =      -2.3613962464962031 [Eh]
	 SCS Total Energy          =    -553.9236883451552558 [Eh]
	-----------------------------------------------------------

  Dipole Moment: [D]
     X:    -1.1685      Y:     0.5588      Z:     0.2767     Total:     1.3245

*** Psi4 exiting successfully. Buy a developer a beer!
