                               Psi4 1.4a3.dev225

  ==> Input File <==

--------------------------------------------------------------------------
#psi4
#
memory 32 gb

molecule  {
0 1
  O        2.4822540     0.5405090    -0.0540980
  O        1.5746620    -1.5220150     0.0896580
  N       -1.1191790    -1.6921850    -0.1509940
  C       -1.0966210    -0.3229200    -0.0500550
  C        0.1267050     0.4076130    -0.0279230
  C       -2.3003260     0.4165330    -0.0467730
  C        0.1050810     1.8109880     0.0359760
  C       -2.2954060     1.8037730     0.0119910
  C       -1.0915490     2.5140600     0.0407670
  C        1.3774456    -0.2776415     0.0089284
  C       -2.3257850    -2.4585570     0.0736050
  C        3.7618060    -0.1198990    -0.0066490
  H       -3.2501560    -0.1077310    -0.0690300
  H        1.0507040     2.3420820     0.0640380
  H       -0.2300450    -2.1418000     0.0381510
  H       -3.2442430     2.3364260     0.0191250
  H       -1.0894800     3.5992760     0.0899090
  H       -2.7979590    -2.2384410     1.0412790
  H       -2.0612830    -3.5169920     0.0485590
  H       -3.0612710    -2.2783540    -0.7172980
  H        3.8686140    -0.8046650    -0.8491430
  H        3.8704280    -0.6765840     0.9253170
  H        4.4925120     0.6845290    -0.0653970
units angstrom
no_reorient  #important for SAPT in psi4, default
symmetry c1  #important for SAPT in psi4, default
}

set PROPERTIES_ORIGIN ["COM"]
properties('MP2/aug-cc-pvtz', properties = ['dipole'])
--------------------------------------------------------------------------

    Molecular point group: c1
  Charge       = 0
  Multiplicity = 1
  Basis Set: AUG-CC-PVTZ
    Blend: AUG-CC-PVTZ
  Basis Set: (AUG-CC-PVTZ AUX)
    Blend: AUG-CC-PVTZ-JKFIT

    Orbital Energies [Eh]
    ---------------------

    Doubly Occupied:

       1A    -20.595708     2A    -20.535449     3A    -15.566396
       4A    -11.384949     5A    -11.303596     6A    -11.280185
       7A    -11.260260     8A    -11.256987     9A    -11.254731
      10A    -11.239166    11A    -11.230804    12A    -11.226580
      13A     -1.437847    14A     -1.329052    15A     -1.248455
      16A     -1.147350    17A     -1.054987    18A     -1.013362
      19A     -0.964812    20A     -0.925291    21A     -0.873286
      22A     -0.812747    23A     -0.781925    24A     -0.726272
      25A     -0.702949    26A     -0.668745    27A     -0.659775
      28A     -0.657015    29A     -0.630708    30A     -0.618147
      31A     -0.613935    32A     -0.585497    33A     -0.578057
      34A     -0.552435    35A     -0.544772    36A     -0.534376
      37A     -0.519201    38A     -0.505565    39A     -0.502056
      40A     -0.456512    41A     -0.442139    42A     -0.429654
      43A     -0.353654    44A     -0.295320

  @DF-RHF Final Energy:  -551.59476012337450

   => Energetics <=

    Nuclear Repulsion Energy =            688.0776183703077322
    One-Electron Energy =               -2116.7433429178445294
    Two-Electron Energy =                 877.0709644241621845
    Total Energy =                       -551.5947601233744990
  Basis Set: (AUG-CC-PVTZ AUX)
    Blend: AUG-CC-PVTZ-RI
    Molecular point group: c1

    Geometry (in Angstrom), charge = 0, multiplicity = 1:

       Center              X                  Y                   Z               Mass
    ------------   -----------------  -----------------  -----------------  -----------------
         O            2.470847832396     0.521922043348    -0.050841558361    15.994914619570
         O            1.563255832396    -1.540601956652     0.092914441639    15.994914619570
         N           -1.130585167604    -1.710771956652    -0.147737558361    14.003074004430
         C           -1.108027167604    -0.341506956652    -0.046798558361    12.000000000000
         C            0.115298832396     0.389026043348    -0.024666558361    12.000000000000
         C           -2.311732167604     0.397946043348    -0.043516558361    12.000000000000
         C            0.093674832396     1.792401043348     0.039232441639    12.000000000000
         C           -2.306812167604     1.785186043348     0.015247441639    12.000000000000
         C           -1.102955167604     2.495473043348     0.044023441639    12.000000000000
         C            1.366039432396    -0.296228456652     0.012184841639    12.000000000000
         C           -2.337191167604    -2.477143956652     0.076861441639    12.000000000000
         C            3.750399832396    -0.138485956652    -0.003392558361    12.000000000000
         H           -3.261562167604    -0.126317956652    -0.065773558361     1.007825032230
         H            1.039297832396     2.323495043348     0.067294441639     1.007825032230
         H           -0.241451167604    -2.160386956652     0.041407441639     1.007825032230
         H           -3.255649167604     2.317839043348     0.022381441639     1.007825032230
         H           -1.100886167604     3.580689043348     0.093165441639     1.007825032230
         H           -2.809365167604    -2.257027956652     1.044535441639     1.007825032230
         H           -2.072689167604    -3.535578956652     0.051815441639     1.007825032230
         H           -3.072677167604    -2.296940956652    -0.714041558361     1.007825032230
         H            3.857207832396    -0.823251956652    -0.845886558361     1.007825032230
         H            3.859021832396    -0.695170956652     0.928573441639     1.007825032230
         H            4.481105832396     0.665942043348    -0.062140558361     1.007825032230

  Basis Set: AUG-CC-PVTZ
    Blend: AUG-CC-PVTZ
  Basis Set: (AUG-CC-PVTZ AUX)
    Blend: AUG-CC-PVTZ-JKFIT
	 Reference Energy          =    -551.5947601233744990 [Eh]
	 Singles Energy            =      -0.0000000000000000 [Eh]
	 Same-Spin Energy          =      -0.5798973934874461 [Eh]
	 Opposite-Spin Energy      =      -1.8018641908652251 [Eh]
	 Correlation Energy        =      -2.3817615843526712 [Eh]
	 Total Energy              =    -553.9765217077272155 [Eh]

	 ================> DF-SCS-MP2 Energies <==================
	-----------------------------------------------------------
	 SCS Same-Spin Scale       =       0.3333333333333333 [-]
	 SCS Opposite-Spin Scale   =       1.2000000000000000 [-]
	 SCS Same-Spin Energy      =      -0.1932991311624820 [Eh]
	 SCS Opposite-Spin Energy  =      -2.1622370290382702 [Eh]
	 SCS Correlation Energy    =      -2.3555361602007521 [Eh]
	 SCS Total Energy          =    -553.9502962835751987 [Eh]
	-----------------------------------------------------------

  Dipole Moment: [D]
     X:    -0.6872      Y:     0.0622      Z:     0.3194     Total:     0.7603

*** Psi4 exiting successfully. Buy a developer a beer!
