                               Psi4 1.3.2 release

  ==> Input File <==

--------------------------------------------------------------------------
#psi4
#
memory 32 gb

molecule  {
0 1
  O        2.4822540     0.5405090    -0.0540980
  O        1.4889823    -1.5296814     0.0907339
  N       -1.1191790    -1.6921850    -0.1509940
  C       -1.0966210    -0.3229200    -0.0500550
  C        0.1267050     0.4076130    -0.0279230
  C       -2.3003260     0.4165330    -0.0467730
  C        0.1050810     1.8109880     0.0359760
  C       -2.2954060     1.8037730     0.0119910
  C       -1.0915490     2.5140600     0.0407670
  C        1.4212810    -0.3016580     0.0102200
  C       -2.3257850    -2.4585570     0.0736050
  C        3.7618060    -0.1198990    -0.0066490
  H       -3.2501560    -0.1077310    -0.0690300
  H        1.0507040     2.3420820     0.0640380
  H       -0.2300450    -2.1418000     0.0381510
  H       -3.2442430     2.3364260     0.0191250
  H       -1.0894800     3.5992760     0.0899090
  H       -2.7979590    -2.2384410     1.0412790
  H       -2.0612830    -3.5169920     0.0485590
  H       -3.0612710    -2.2783540    -0.7172980
  H        3.8686140    -0.8046650    -0.8491430
  H        3.8704280    -0.6765840     0.9253170
  H        4.4925120     0.6845290    -0.0653970
units angstrom
no_reorient  #important for SAPT in psi4, default
symmetry c1  #important for SAPT in psi4, default
}

set PROPERTIES_ORIGIN ["COM"]
properties('MP2/aug-cc-pvtz', properties = ['dipole'])
--------------------------------------------------------------------------

    Molecular point group: c1
  Charge       = 0
  Multiplicity = 1
  Basis Set: AUG-CC-PVTZ
    Blend: AUG-CC-PVTZ
  Basis Set: (AUG-CC-PVTZ AUX)
    Blend: AUG-CC-PVTZ-JKFIT

    Orbital Energies [Eh]
    ---------------------

    Doubly Occupied:

       1A    -20.609140     2A    -20.543830     3A    -15.559104
       4A    -11.387304     5A    -11.295780     6A    -11.288422
       7A    -11.256041     8A    -11.249697     9A    -11.247621
      10A    -11.236326    11A    -11.225662    12A    -11.221518
      13A     -1.455164    14A     -1.357526    15A     -1.242266
      16A     -1.139902    17A     -1.044155    18A     -1.007468
      19A     -0.970870    20A     -0.921535    21A     -0.862790
      22A     -0.807463    23A     -0.787619    24A     -0.728568
      25A     -0.697503    26A     -0.676869    27A     -0.671818
      28A     -0.660509    29A     -0.628289    30A     -0.615024
      31A     -0.609745    32A     -0.580902    33A     -0.576973
      34A     -0.558895    35A     -0.539433    36A     -0.536735
      37A     -0.527438    38A     -0.505502    39A     -0.499441
      40A     -0.469436    41A     -0.443146    42A     -0.424880
      43A     -0.347266    44A     -0.289055

  @DF-RHF Final Energy:  -551.59943802748137

   => Energetics <=

    Nuclear Repulsion Energy =            688.6584694950646508
    One-Electron Energy =               -2117.9065544688487535
    Two-Electron Energy =                 877.6486469463026197
    Total Energy =                       -551.5994380274813693
  Basis Set: (AUG-CC-PVTZ AUX)
    Blend: AUG-CC-PVTZ-RI
    Molecular point group: c1

    Geometry (in Angstrom), charge = 0, multiplicity = 1:

       Center              X                  Y                   Z               Mass
    ------------   -----------------  -----------------  -----------------  -----------------
         O            2.475963048720     0.524410678890    -0.051039694604    15.994914619570
         O            1.482691348720    -1.545779721110     0.093792205396    15.994914619570
         N           -1.125469951280    -1.708283321110    -0.147935694604    14.003074004430
         C           -1.102911951280    -0.339018321110    -0.046996694604    12.000000000000
         C            0.120414048720     0.391514678890    -0.024864694604    12.000000000000
         C           -2.306616951280     0.400434678890    -0.043714694604    12.000000000000
         C            0.098790048720     1.794889678890     0.039034305396    12.000000000000
         C           -2.301696951280     1.787674678890     0.015049305396    12.000000000000
         C           -1.097839951280     2.497961678890     0.043825305396    12.000000000000
         C            1.414990048720    -0.317756321110     0.013278305396    12.000000000000
         C           -2.332075951280    -2.474655321110     0.076663305396    12.000000000000
         C            3.755515048720    -0.135997321110    -0.003590694604    12.000000000000
         H           -3.256446951280    -0.123829321110    -0.065971694604     1.007825032230
         H            1.044413048720     2.325983678890     0.067096305396     1.007825032230
         H           -0.236335951280    -2.157898321110     0.041209305396     1.007825032230
         H           -3.250533951280     2.320327678890     0.022183305396     1.007825032230
         H           -1.095770951280     3.583177678890     0.092967305396     1.007825032230
         H           -2.804249951280    -2.254539321110     1.044337305396     1.007825032230
         H           -2.067573951280    -3.533090321110     0.051617305396     1.007825032230
         H           -3.067561951280    -2.294452321110    -0.714239694604     1.007825032230
         H            3.862323048720    -0.820763321110    -0.846084694604     1.007825032230
         H            3.864137048720    -0.692682321110     0.928375305396     1.007825032230
         H            4.486221048720     0.668430678890    -0.062338694604     1.007825032230

  Basis Set: AUG-CC-PVTZ
    Blend: AUG-CC-PVTZ
  Basis Set: (AUG-CC-PVTZ AUX)
    Blend: AUG-CC-PVTZ-JKFIT
	 Reference Energy          =    -551.5994380274813693 [Eh]
	 Singles Energy            =      -0.0000000000000000 [Eh]
	 Same-Spin Energy          =      -0.5792997188903930 [Eh]
	 Opposite-Spin Energy      =      -1.8003614521316813 [Eh]
	 Correlation Energy        =      -2.3796611710220743 [Eh]
	 Total Energy              =    -553.9790991985034907 [Eh]

	 ================> DF-SCS-MP2 Energies <==================
	-----------------------------------------------------------
	 SCS Same-Spin Scale       =       0.3333333333333333 [-]
	 SCS Opposite-Spin Scale   =       1.2000000000000000 [-]
	 SCS Same-Spin Energy      =      -0.1930999062967977 [Eh]
	 SCS Opposite-Spin Energy  =      -2.1604337425580176 [Eh]
	 SCS Correlation Energy    =      -2.3535336488548153 [Eh]
	 SCS Total Energy          =    -553.9529716763362330 [Eh]
	-----------------------------------------------------------

  Dipole Moment: [D]
     X:     0.1786      Y:    -0.1201      Z:     0.3251     Total:     0.3899

*** Psi4 exiting successfully. Buy a developer a beer!
