                               Psi4 1.3.2 release

  ==> Input File <==

--------------------------------------------------------------------------
#psi4
#
memory 32 gb

molecule  {
0 1
  O        2.4822540     0.5405090    -0.0540980
  O        1.5746620    -1.5220150     0.0896580
  N       -1.1294028    -1.6826706    -0.1720345
  C       -1.0966210    -0.3229200    -0.0500550
  C        0.1267050     0.4076130    -0.0279230
  C       -2.3003260     0.4165330    -0.0467730
  C        0.1050810     1.8109880     0.0359760
  C       -2.2954060     1.8037730     0.0119910
  C       -1.0915490     2.5140600     0.0407670
  C        1.4212810    -0.3016580     0.0102200
  C       -2.3257850    -2.4585570     0.0736050
  C        3.7618060    -0.1198990    -0.0066490
  H       -3.2501560    -0.1077310    -0.0690300
  H        1.0507040     2.3420820     0.0640380
  H       -0.2300450    -2.1418000     0.0381510
  H       -3.2442430     2.3364260     0.0191250
  H       -1.0894800     3.5992760     0.0899090
  H       -2.7979590    -2.2384410     1.0412790
  H       -2.0612830    -3.5169920     0.0485590
  H       -3.0612710    -2.2783540    -0.7172980
  H        3.8686140    -0.8046650    -0.8491430
  H        3.8704280    -0.6765840     0.9253170
  H        4.4925120     0.6845290    -0.0653970
units angstrom
no_reorient  #important for SAPT in psi4, default
symmetry c1  #important for SAPT in psi4, default
}

set PROPERTIES_ORIGIN ["COM"]
properties('MP2/aug-cc-pvtz', properties = ['dipole'])
--------------------------------------------------------------------------

    Molecular point group: c1
  Charge       = 0
  Multiplicity = 1
  Basis Set: AUG-CC-PVTZ
    Blend: AUG-CC-PVTZ
  Basis Set: (AUG-CC-PVTZ AUX)
    Blend: AUG-CC-PVTZ-JKFIT

    Orbital Energies [Eh]
    ---------------------

    Doubly Occupied:

       1A    -20.602782     2A    -20.541936     3A    -15.564553
       4A    -11.385686     5A    -11.297735     6A    -11.284329
       7A    -11.258592     8A    -11.251468     9A    -11.249895
      10A    -11.239567    11A    -11.226977    12A    -11.223070
      13A     -1.454114    14A     -1.350082    15A     -1.247091
      16A     -1.141690    17A     -1.045968    18A     -1.009549
      19A     -0.968477    20A     -0.922974    21A     -0.864301
      22A     -0.807870    23A     -0.784286    24A     -0.728310
      25A     -0.698995    26A     -0.673322    27A     -0.668673
      28A     -0.661171    29A     -0.629720    30A     -0.616165
      31A     -0.612661    32A     -0.581622    33A     -0.576428
      34A     -0.555820    35A     -0.541912    36A     -0.535266
      37A     -0.524544    38A     -0.506988    39A     -0.501008
      40A     -0.465393    41A     -0.443951    42A     -0.428631
      43A     -0.349312    44A     -0.291184

  @DF-RHF Final Energy:  -551.60073058187379

   => Energetics <=

    Nuclear Repulsion Energy =            688.0378271482951504
    One-Electron Energy =               -2116.6489787069090198
    Two-Electron Energy =                 877.0104209767401926
    Total Energy =                       -551.6007305818737905
  Basis Set: (AUG-CC-PVTZ AUX)
    Blend: AUG-CC-PVTZ-RI
    Molecular point group: c1

    Geometry (in Angstrom), charge = 0, multiplicity = 1:

       Center              X                  Y                   Z               Mass
    ------------   -----------------  -----------------  -----------------  -----------------
         O            2.468528577847     0.522860788875    -0.049150655734    15.994914619570
         O            1.560936577847    -1.539663211125     0.094605344266    15.994914619570
         N           -1.143128222153    -1.700318811125    -0.167087155734    14.003074004430
         C           -1.110346422153    -0.340568211125    -0.045107655734    12.000000000000
         C            0.112979577847     0.389964788875    -0.022975655734    12.000000000000
         C           -2.314051422153     0.398884788875    -0.041825655734    12.000000000000
         C            0.091355577847     1.793339788875     0.040923344266    12.000000000000
         C           -2.309131422153     1.786124788875     0.016938344266    12.000000000000
         C           -1.105274422153     2.496411788875     0.045714344266    12.000000000000
         C            1.407555577847    -0.319306211125     0.015167344266    12.000000000000
         C           -2.339510422153    -2.476205211125     0.078552344266    12.000000000000
         C            3.748080577847    -0.137547211125    -0.001701655734    12.000000000000
         H           -3.263881422153    -0.125379211125    -0.064082655734     1.007825032230
         H            1.036978577847     2.324433788875     0.068985344266     1.007825032230
         H           -0.243770422153    -2.159448211125     0.043098344266     1.007825032230
         H           -3.257968422153     2.318777788875     0.024072344266     1.007825032230
         H           -1.103205422153     3.581627788875     0.094856344266     1.007825032230
         H           -2.811684422153    -2.256089211125     1.046226344266     1.007825032230
         H           -2.075008422153    -3.534640211125     0.053506344266     1.007825032230
         H           -3.074996422153    -2.296002211125    -0.712350655734     1.007825032230
         H            3.854888577847    -0.822313211125    -0.844195655734     1.007825032230
         H            3.856702577847    -0.694232211125     0.930264344266     1.007825032230
         H            4.478786577847     0.666880788875    -0.060449655734     1.007825032230

  Basis Set: AUG-CC-PVTZ
    Blend: AUG-CC-PVTZ
  Basis Set: (AUG-CC-PVTZ AUX)
    Blend: AUG-CC-PVTZ-JKFIT
	 Reference Energy          =    -551.6007305818737905 [Eh]
	 Singles Energy            =      -0.0000000000000000 [Eh]
	 Same-Spin Energy          =      -0.5790555424376588 [Eh]
	 Opposite-Spin Energy      =      -1.8000810055484020 [Eh]
	 Correlation Energy        =      -2.3791365479860609 [Eh]
	 Total Energy              =    -553.9798671298598265 [Eh]

	 ================> DF-SCS-MP2 Energies <==================
	-----------------------------------------------------------
	 SCS Same-Spin Scale       =       0.3333333333333333 [-]
	 SCS Opposite-Spin Scale   =       1.2000000000000000 [-]
	 SCS Same-Spin Energy      =      -0.1930185141458862 [Eh]
	 SCS Opposite-Spin Energy  =      -2.1600972066580821 [Eh]
	 SCS Correlation Energy    =      -2.3531157208039684 [Eh]
	 SCS Total Energy          =    -553.9538463026777890 [Eh]
	-----------------------------------------------------------

  Dipole Moment: [D]
     X:    -0.1625      Y:    -0.1219      Z:     0.3577     Total:     0.4113

*** Psi4 exiting successfully. Buy a developer a beer!
