                               Psi4 1.3.2 release

  ==> Input File <==

--------------------------------------------------------------------------
#psi4
#
memory 32 gb

molecule  {
0 1
  O        2.4822540     0.5405090    -0.0540980
  O        1.5746620    -1.5220150     0.0896580
  N       -1.1191790    -1.6921850    -0.1509940
  C       -1.0966210    -0.3229200    -0.0500550
  C        0.1267050     0.4076130    -0.0279230
  C       -2.3003260     0.4165330    -0.0467730
  C        0.1050810     1.8109880     0.0359760
  C       -2.2954060     1.8037730     0.0119910
  C       -1.0915490     2.5140600     0.0407670
  C        1.4212810    -0.3016580     0.0102200
  C       -2.3257850    -2.4585570     0.0736050
  C        3.6729920    -0.0740599    -0.0099424
  H       -3.2501560    -0.1077310    -0.0690300
  H        1.0507040     2.3420820     0.0640380
  H       -0.2300450    -2.1418000     0.0381510
  H       -3.2442430     2.3364260     0.0191250
  H       -1.0894800     3.5992760     0.0899090
  H       -2.7979590    -2.2384410     1.0412790
  H       -2.0612830    -3.5169920     0.0485590
  H       -3.0612710    -2.2783540    -0.7172980
  H        3.8686140    -0.8046650    -0.8491430
  H        3.8704280    -0.6765840     0.9253170
  H        4.4925120     0.6845290    -0.0653970
units angstrom
no_reorient  #important for SAPT in psi4, default
symmetry c1  #important for SAPT in psi4, default
}

set PROPERTIES_ORIGIN ["COM"]
properties('MP2/aug-cc-pvtz', properties = ['dipole'])
--------------------------------------------------------------------------

    Molecular point group: c1
  Charge       = 0
  Multiplicity = 1
  Basis Set: AUG-CC-PVTZ
    Blend: AUG-CC-PVTZ
  Basis Set: (AUG-CC-PVTZ AUX)
    Blend: AUG-CC-PVTZ-JKFIT

    Orbital Energies [Eh]
    ---------------------

    Doubly Occupied:

       1A    -20.611392     2A    -20.547363     3A    -15.565574
       4A    -11.391316     5A    -11.301110     6A    -11.284015
       7A    -11.260036     8A    -11.254164     9A    -11.252921
      10A    -11.243003    11A    -11.229871    12A    -11.225804
      13A     -1.481453    14A     -1.364391    15A     -1.247998
      16A     -1.145179    17A     -1.051723    18A     -1.012051
      19A     -0.970081    20A     -0.923770    21A     -0.863926
      22A     -0.811583    23A     -0.792095    24A     -0.736907
      25A     -0.702956    26A     -0.687412    27A     -0.681214
      28A     -0.664476    29A     -0.636550    30A     -0.620296
      31A     -0.613933    32A     -0.586726    33A     -0.582259
      34A     -0.547873    35A     -0.544363    36A     -0.533645
      37A     -0.514363    38A     -0.504677    39A     -0.499769
      40A     -0.458438    41A     -0.449828    42A     -0.429653
      43A     -0.351898    44A     -0.293850

  @DF-RHF Final Energy:  -551.59337050372778

   => Energetics <=

    Nuclear Repulsion Energy =            690.1474716534979734
    One-Electron Energy =               -2120.5378693761767863
    Two-Electron Energy =                 878.7970272189509160
    Total Energy =                       -551.5933705037277832
  Basis Set: (AUG-CC-PVTZ AUX)
    Blend: AUG-CC-PVTZ-RI
    Molecular point group: c1

    Geometry (in Angstrom), charge = 0, multiplicity = 1:

       Center              X                  Y                   Z               Mass
    ------------   -----------------  -----------------  -----------------  -----------------
         O            2.474117438281     0.520335704480    -0.050696042559    15.994914619570
         O            1.566525438281    -1.542188295520     0.093059957441    15.994914619570
         N           -1.127315561719    -1.712358295520    -0.147592042559    14.003074004430
         C           -1.104757561719    -0.343093295520    -0.046653042559    12.000000000000
         C            0.118568438281     0.387439704480    -0.024521042559    12.000000000000
         C           -2.308462561719     0.396359704480    -0.043371042559    12.000000000000
         C            0.096944438281     1.790814704480     0.039377957441    12.000000000000
         C           -2.303542561719     1.783599704480     0.015392957441    12.000000000000
         C           -1.099685561719     2.493886704480     0.044168957441    12.000000000000
         C            1.413144438281    -0.321831295520     0.013621957441    12.000000000000
         C           -2.333921561719    -2.478730295520     0.077006957441    12.000000000000
         C            3.664855438281    -0.094233195520    -0.006540442559    12.000000000000
         H           -3.258292561719    -0.127904295520    -0.065628042559     1.007825032230
         H            1.042567438281     2.321908704480     0.067439957441     1.007825032230
         H           -0.238181561719    -2.161973295520     0.041552957441     1.007825032230
         H           -3.252379561719     2.316252704480     0.022526957441     1.007825032230
         H           -1.097616561719     3.579102704480     0.093310957441     1.007825032230
         H           -2.806095561719    -2.258614295520     1.044680957441     1.007825032230
         H           -2.069419561719    -3.537165295520     0.051960957441     1.007825032230
         H           -3.069407561719    -2.298527295520    -0.713896042559     1.007825032230
         H            3.860477438281    -0.824838295520    -0.845741042559     1.007825032230
         H            3.862291438281    -0.696757295520     0.928718957441     1.007825032230
         H            4.484375438281     0.664355704480    -0.061995042559     1.007825032230

  Basis Set: AUG-CC-PVTZ
    Blend: AUG-CC-PVTZ
  Basis Set: (AUG-CC-PVTZ AUX)
    Blend: AUG-CC-PVTZ-JKFIT
	 Reference Energy          =    -551.5933705037277832 [Eh]
	 Singles Energy            =      -0.0000000000000000 [Eh]
	 Same-Spin Energy          =      -0.5792590232856352 [Eh]
	 Opposite-Spin Energy      =      -1.7992975945433736 [Eh]
	 Correlation Energy        =      -2.3785566178290090 [Eh]
	 Total Energy              =    -553.9719271215567460 [Eh]

	 ================> DF-SCS-MP2 Energies <==================
	-----------------------------------------------------------
	 SCS Same-Spin Scale       =       0.3333333333333333 [-]
	 SCS Opposite-Spin Scale   =       1.2000000000000000 [-]
	 SCS Same-Spin Energy      =      -0.1930863410952117 [Eh]
	 SCS Opposite-Spin Energy  =      -2.1591571134520482 [Eh]
	 SCS Correlation Energy    =      -2.3522434545472599 [Eh]
	 SCS Total Energy          =    -553.9456139582750893 [Eh]
	-----------------------------------------------------------

  Dipole Moment: [D]
     X:    -0.6644      Y:    -0.0056      Z:     0.3214     Total:     0.7381

*** Psi4 exiting successfully. Buy a developer a beer!
