                               Psi4 1.3.2 release

  ==> Input File <==

--------------------------------------------------------------------------
#psi4
#
memory 32 gb

molecule  {
0 1
  O        2.4822540     0.5405090    -0.0540980
  O        1.5746620    -1.5220150     0.0896580
  N       -1.1191790    -1.6921850    -0.1509940
  C       -1.0501205    -0.3253623    -0.0386957
  C        0.1267050     0.4076130    -0.0279230
  C       -2.3003260     0.4165330    -0.0467730
  C        0.1050810     1.8109880     0.0359760
  C       -2.2954060     1.8037730     0.0119910
  C       -1.0915490     2.5140600     0.0407670
  C        1.4212810    -0.3016580     0.0102200
  C       -2.3257850    -2.4585570     0.0736050
  C        3.7618060    -0.1198990    -0.0066490
  H       -3.2501560    -0.1077310    -0.0690300
  H        1.0507040     2.3420820     0.0640380
  H       -0.2300450    -2.1418000     0.0381510
  H       -3.2442430     2.3364260     0.0191250
  H       -1.0894800     3.5992760     0.0899090
  H       -2.7979590    -2.2384410     1.0412790
  H       -2.0612830    -3.5169920     0.0485590
  H       -3.0612710    -2.2783540    -0.7172980
  H        3.8686140    -0.8046650    -0.8491430
  H        3.8704280    -0.6765840     0.9253170
  H        4.4925120     0.6845290    -0.0653970
units angstrom
no_reorient  #important for SAPT in psi4, default
symmetry c1  #important for SAPT in psi4, default
}

set PROPERTIES_ORIGIN ["COM"]
properties('MP2/aug-cc-pvtz', properties = ['dipole'])
--------------------------------------------------------------------------

    Molecular point group: c1
  Charge       = 0
  Multiplicity = 1
  Basis Set: AUG-CC-PVTZ
    Blend: AUG-CC-PVTZ
  Basis Set: (AUG-CC-PVTZ AUX)
    Blend: AUG-CC-PVTZ-JKFIT

    Orbital Energies [Eh]
    ---------------------

    Doubly Occupied:

       1A    -20.602968     2A    -20.542121     3A    -15.563659
       4A    -11.385389     5A    -11.298918     6A    -11.284381
       7A    -11.259986     8A    -11.249677     9A    -11.248976
      10A    -11.236389    11A    -11.231832    12A    -11.223345
      13A     -1.454360    14A     -1.350432    15A     -1.245790
      16A     -1.142464    17A     -1.048026    18A     -1.006752
      19A     -0.969172    20A     -0.924240    21A     -0.861436
      22A     -0.812704    23A     -0.784514    24A     -0.728674
      25A     -0.697736    26A     -0.672095    27A     -0.668864
      28A     -0.662498    29A     -0.630669    30A     -0.613560
      31A     -0.612330    32A     -0.584782    33A     -0.576558
      34A     -0.556782    35A     -0.542568    36A     -0.534439
      37A     -0.521785    38A     -0.506672    39A     -0.504462
      40A     -0.465535    41A     -0.443204    42A     -0.428029
      43A     -0.349683    44A     -0.291082

  @DF-RHF Final Energy:  -551.59881559685937

   => Energetics <=

    Nuclear Repulsion Energy =            688.2668825734118627
    One-Electron Energy =               -2117.0923233164112389
    Two-Electron Energy =                 877.2266251461401225
    Total Energy =                       -551.5988155968593674
  Basis Set: (AUG-CC-PVTZ AUX)
    Blend: AUG-CC-PVTZ-RI
    Molecular point group: c1

    Geometry (in Angstrom), charge = 0, multiplicity = 1:

       Center              X                  Y                   Z               Mass
    ------------   -----------------  -----------------  -----------------  -----------------
         O            2.464281091983     0.523845399082    -0.051761183629    15.994914619570
         O            1.556689091983    -1.538678600918     0.091994816371    15.994914619570
         N           -1.137151908017    -1.708848600918    -0.148657183629    14.003074004430
         C           -1.068093408017    -0.342025900918    -0.036358883629    12.000000000000
         C            0.108732091983     0.390949399082    -0.025586183629    12.000000000000
         C           -2.318298908017     0.399869399082    -0.044436183629    12.000000000000
         C            0.087108091983     1.794324399082     0.038312816371    12.000000000000
         C           -2.313378908017     1.787109399082     0.014327816371    12.000000000000
         C           -1.109521908017     2.497396399082     0.043103816371    12.000000000000
         C            1.403308091983    -0.318321600918     0.012556816371    12.000000000000
         C           -2.343757908017    -2.475220600918     0.075941816371    12.000000000000
         C            3.743833091983    -0.136562600918    -0.004312183629    12.000000000000
         H           -3.268128908017    -0.124394600918    -0.066693183629     1.007825032230
         H            1.032731091983     2.325418399082     0.066374816371     1.007825032230
         H           -0.248017908017    -2.158463600918     0.040487816371     1.007825032230
         H           -3.262215908017     2.319762399082     0.021461816371     1.007825032230
         H           -1.107452908017     3.582612399082     0.092245816371     1.007825032230
         H           -2.815931908017    -2.255104600918     1.043615816371     1.007825032230
         H           -2.079255908017    -3.533655600918     0.050895816371     1.007825032230
         H           -3.079243908017    -2.295017600918    -0.714961183629     1.007825032230
         H            3.850641091983    -0.821328600918    -0.846806183629     1.007825032230
         H            3.852455091983    -0.693247600918     0.927653816371     1.007825032230
         H            4.474539091983     0.667865399082    -0.063060183629     1.007825032230

  Basis Set: AUG-CC-PVTZ
    Blend: AUG-CC-PVTZ
  Basis Set: (AUG-CC-PVTZ AUX)
    Blend: AUG-CC-PVTZ-JKFIT
	 Reference Energy          =    -551.5988155968593674 [Eh]
	 Singles Energy            =      -0.0000000000000000 [Eh]
	 Same-Spin Energy          =      -0.5788302570860476 [Eh]
	 Opposite-Spin Energy      =      -1.8001265795820471 [Eh]
	 Correlation Energy        =      -2.3789568366680949 [Eh]
	 Total Energy              =    -553.9777724335274343 [Eh]

	 ================> DF-SCS-MP2 Energies <==================
	-----------------------------------------------------------
	 SCS Same-Spin Scale       =       0.3333333333333333 [-]
	 SCS Opposite-Spin Scale   =       1.2000000000000000 [-]
	 SCS Same-Spin Energy      =      -0.1929434190286825 [Eh]
	 SCS Opposite-Spin Energy  =      -2.1601518954984567 [Eh]
	 SCS Correlation Energy    =      -2.3530953145271392 [Eh]
	 SCS Total Energy          =    -553.9519109113865625 [Eh]
	-----------------------------------------------------------

  Dipole Moment: [D]
     X:    -0.1943      Y:    -0.1360      Z:     0.3321     Total:     0.4081

*** Psi4 exiting successfully. Buy a developer a beer!
