                               Psi4 1.3.2 release

  ==> Input File <==

--------------------------------------------------------------------------
#psi4
#
memory 32 gb

molecule  {
0 1
  O        2.4822540     0.5405090    -0.0540980
  O        1.5746620    -1.5220150     0.0896580
  N       -1.1191790    -1.6921850    -0.1509940
  C       -1.0966210    -0.3229200    -0.0500550
  C        0.1267050     0.4076130    -0.0279230
  C       -2.3003260     0.4165330    -0.0467730
  C        0.1050810     1.8109880     0.0359760
  C       -2.2954060     1.8037730     0.0119910
  C       -1.0915490     2.5140600     0.0407670
  C        1.2459395    -0.2055921     0.0050538
  C       -2.3257850    -2.4585570     0.0736050
  C        3.7618060    -0.1198990    -0.0066490
  H       -3.2501560    -0.1077310    -0.0690300
  H        1.0507040     2.3420820     0.0640380
  H       -0.2300450    -2.1418000     0.0381510
  H       -3.2442430     2.3364260     0.0191250
  H       -1.0894800     3.5992760     0.0899090
  H       -2.7979590    -2.2384410     1.0412790
  H       -2.0612830    -3.5169920     0.0485590
  H       -3.0612710    -2.2783540    -0.7172980
  H        3.8686140    -0.8046650    -0.8491430
  H        3.8704280    -0.6765840     0.9253170
  H        4.4925120     0.6845290    -0.0653970
units angstrom
no_reorient  #important for SAPT in psi4, default
symmetry c1  #important for SAPT in psi4, default
}

set PROPERTIES_ORIGIN ["COM"]
properties('MP2/aug-cc-pvtz', properties = ['dipole'])
--------------------------------------------------------------------------

    Molecular point group: c1
  Charge       = 0
  Multiplicity = 1
  Basis Set: AUG-CC-PVTZ
    Blend: AUG-CC-PVTZ
  Basis Set: (AUG-CC-PVTZ AUX)
    Blend: AUG-CC-PVTZ-JKFIT

    Orbital Energies [Eh]
    ---------------------

    Doubly Occupied:

       1A    -20.570503     2A    -20.510700     3A    -15.579154
       4A    -11.374960     5A    -11.322246     6A    -11.275635
       7A    -11.270641     8A    -11.267322     9A    -11.265556
      10A    -11.242275    11A    -11.237885    12A    -11.233111
      13A     -1.386864    14A     -1.276607    15A     -1.247948
      16A     -1.166985    17A     -1.087165    18A     -1.026446
      19A     -0.959282    20A     -0.927108    21A     -0.897310
      22A     -0.825664    23A     -0.784585    24A     -0.716450
      25A     -0.711151    26A     -0.671325    27A     -0.646391
      28A     -0.635859    29A     -0.630175    30A     -0.622412
      31A     -0.615886    32A     -0.583210    33A     -0.577034
      34A     -0.555691    35A     -0.552199    36A     -0.537980
      37A     -0.520594    38A     -0.491531    39A     -0.481953
      40A     -0.443731    41A     -0.424260    42A     -0.416048
      43A     -0.365098    44A     -0.308721

  @DF-RHF Final Energy:  -551.52854265353335

   => Energetics <=

    Nuclear Repulsion Energy =            688.6362162079831251
    One-Electron Energy =               -2117.8422153526939837
    Two-Electron Energy =                 877.6774564911775087
    Total Energy =                       -551.5285426535333499
  Basis Set: (AUG-CC-PVTZ AUX)
    Blend: AUG-CC-PVTZ-RI
    Molecular point group: c1

    Geometry (in Angstrom), charge = 0, multiplicity = 1:

       Center              X                  Y                   Z               Mass
    ------------   -----------------  -----------------  -----------------  -----------------
         O            2.480407336661     0.516684593932    -0.050559904086    15.994914619570
         O            1.572815336661    -1.545839406068     0.093196095914    15.994914619570
         N           -1.121025663339    -1.716009406068    -0.147455904086    14.003074004430
         C           -1.098467663339    -0.346744406068    -0.046516904086    12.000000000000
         C            0.124858336661     0.383788593932    -0.024384904086    12.000000000000
         C           -2.302172663339     0.392708593932    -0.043234904086    12.000000000000
         C            0.103234336661     1.787163593932     0.039514095914    12.000000000000
         C           -2.297252663339     1.779948593932     0.015529095914    12.000000000000
         C           -1.093395663339     2.490235593932     0.044305095914    12.000000000000
         C            1.244092836661    -0.229416506068     0.008591895914    12.000000000000
         C           -2.327631663339    -2.482381406068     0.077143095914    12.000000000000
         C            3.759959336661    -0.143723406068    -0.003110904086    12.000000000000
         H           -3.252002663339    -0.131555406068    -0.065491904086     1.007825032230
         H            1.048857336661     2.318257593932     0.067576095914     1.007825032230
         H           -0.231891663339    -2.165624406068     0.041689095914     1.007825032230
         H           -3.246089663339     2.312601593932     0.022663095914     1.007825032230
         H           -1.091326663339     3.575451593932     0.093447095914     1.007825032230
         H           -2.799805663339    -2.262265406068     1.044817095914     1.007825032230
         H           -2.063129663339    -3.540816406068     0.052097095914     1.007825032230
         H           -3.063117663339    -2.302178406068    -0.713759904086     1.007825032230
         H            3.866767336661    -0.828489406068    -0.845604904086     1.007825032230
         H            3.868581336661    -0.700408406068     0.928855095914     1.007825032230
         H            4.490665336661     0.660704593932    -0.061858904086     1.007825032230

  Basis Set: AUG-CC-PVTZ
    Blend: AUG-CC-PVTZ
  Basis Set: (AUG-CC-PVTZ AUX)
    Blend: AUG-CC-PVTZ-JKFIT
	 Reference Energy          =    -551.5285426535333499 [Eh]
	 Singles Energy            =      -0.0000000000000000 [Eh]
	 Same-Spin Energy          =      -0.5833441265358823 [Eh]
	 Opposite-Spin Energy      =      -1.8097096801851307 [Eh]
	 Correlation Energy        =      -2.3930538067210128 [Eh]
	 Total Energy              =    -553.9215964602543636 [Eh]

	 ================> DF-SCS-MP2 Energies <==================
	-----------------------------------------------------------
	 SCS Same-Spin Scale       =       0.3333333333333333 [-]
	 SCS Opposite-Spin Scale   =       1.2000000000000000 [-]
	 SCS Same-Spin Energy      =      -0.1944480421786274 [Eh]
	 SCS Opposite-Spin Energy  =      -2.1716516162221566 [Eh]
	 SCS Correlation Energy    =      -2.3660996584007838 [Eh]
	 SCS Total Energy          =    -553.8946423119341489 [Eh]
	-----------------------------------------------------------

  Dipole Moment: [D]
     X:    -2.4269      Y:     0.5082      Z:     0.2940     Total:     2.4969

*** Psi4 exiting successfully. Buy a developer a beer!
