                               Psi4 1.4a3.dev225

  ==> Input File <==

--------------------------------------------------------------------------
#psi4
#
memory 32 gb

molecule  {
0 1
  O        2.4822540     0.5405090    -0.0540980
  O        1.5746620    -1.5220150     0.0896580
  N       -1.1191790    -1.6921850    -0.1509940
  C       -1.0966210    -0.3229200    -0.0500550
  C        0.1267050     0.4076130    -0.0279230
  C       -2.3003260     0.4165330    -0.0467730
  C        0.1050810     1.8109880     0.0359760
  C       -2.2954060     1.8037730     0.0119910
  C       -1.0915490     2.5140600     0.0407670
  C        1.4037468    -0.2920514     0.0097034
  C       -2.3257850    -2.4585570     0.0736050
  C        3.7618060    -0.1198990    -0.0066490
  H       -3.2501560    -0.1077310    -0.0690300
  H        1.0507040     2.3420820     0.0640380
  H       -0.2300450    -2.1418000     0.0381510
  H       -3.2442430     2.3364260     0.0191250
  H       -1.0894800     3.5992760     0.0899090
  H       -2.7979590    -2.2384410     1.0412790
  H       -2.0612830    -3.5169920     0.0485590
  H       -3.0612710    -2.2783540    -0.7172980
  H        3.8686140    -0.8046650    -0.8491430
  H        3.8704280    -0.6765840     0.9253170
  H        4.4925120     0.6845290    -0.0653970
units angstrom
no_reorient  #important for SAPT in psi4, default
symmetry c1  #important for SAPT in psi4, default
}

set PROPERTIES_ORIGIN ["COM"]
properties('MP2/aug-cc-pvtz', properties = ['dipole'])
--------------------------------------------------------------------------

    Molecular point group: c1
  Charge       = 0
  Multiplicity = 1
  Basis Set: AUG-CC-PVTZ
    Blend: AUG-CC-PVTZ
  Basis Set: (AUG-CC-PVTZ AUX)
    Blend: AUG-CC-PVTZ-JKFIT

    Orbital Energies [Eh]
    ---------------------

    Doubly Occupied:

       1A    -20.600002     2A    -20.539347     3A    -15.564388
       4A    -11.385439     5A    -11.300408     6A    -11.282693
       7A    -11.259107     8A    -11.253799     9A    -11.251861
      10A    -11.239620    11A    -11.228834    12A    -11.224652
      13A     -1.447633    14A     -1.341616    15A     -1.246735
      16A     -1.144130    17A     -1.049522    18A     -1.011093
      19A     -0.966969    20A     -0.924047    21A     -0.867996
      22A     -0.810509    23A     -0.783141    24A     -0.727852
      25A     -0.701147    26A     -0.670632    27A     -0.665089
      28A     -0.660107    29A     -0.629941    30A     -0.617151
      31A     -0.612718    32A     -0.584203    33A     -0.577156
      34A     -0.554219    35A     -0.543182    36A     -0.534672
      37A     -0.522486    38A     -0.506444    39A     -0.501764
      40A     -0.461771    41A     -0.444111    42A     -0.428406
      43A     -0.351112    44A     -0.293003

  @DF-RHF Final Energy:  -551.59977399901402

   => Energetics <=

    Nuclear Repulsion Energy =            688.0184957465872913
    One-Electron Energy =               -2116.6151258458085067
    Two-Electron Energy =                 876.9968561002073102
    Total Energy =                       -551.5997739990140190
  Basis Set: (AUG-CC-PVTZ AUX)
    Blend: AUG-CC-PVTZ-RI
    Molecular point group: c1

    Geometry (in Angstrom), charge = 0, multiplicity = 1:

       Center              X                  Y                   Z               Mass
    ------------   -----------------  -----------------  -----------------  -----------------
         O            2.468935932996     0.522969534685    -0.050897895031    15.994914619570
         O            1.561343932996    -1.539554465315     0.092858104969    15.994914619570
         N           -1.132497067004    -1.709724465315    -0.147793895031    14.003074004430
         C           -1.109939067004    -0.340459465315    -0.046854895031    12.000000000000
         C            0.113386932996     0.390073534685    -0.024722895031    12.000000000000
         C           -2.313644067004     0.398993534685    -0.043572895031    12.000000000000
         C            0.091762932996     1.793448534685     0.039176104969    12.000000000000
         C           -2.308724067004     1.786233534685     0.015191104969    12.000000000000
         C           -1.104867067004     2.496520534685     0.043967104969    12.000000000000
         C            1.390428732996    -0.309590865315     0.012903504969    12.000000000000
         C           -2.339103067004    -2.476096465315     0.076805104969    12.000000000000
         C            3.748487932996    -0.137438465315    -0.003448895031    12.000000000000
         H           -3.263474067004    -0.125270465315    -0.065829895031     1.007825032230
         H            1.037385932996     2.324542534685     0.067238104969     1.007825032230
         H           -0.243363067004    -2.159339465315     0.041351104969     1.007825032230
         H           -3.257561067004     2.318886534685     0.022325104969     1.007825032230
         H           -1.102798067004     3.581736534685     0.093109104969     1.007825032230
         H           -2.811277067004    -2.255980465315     1.044479104969     1.007825032230
         H           -2.074601067004    -3.534531465315     0.051759104969     1.007825032230
         H           -3.074589067004    -2.295893465315    -0.714097895031     1.007825032230
         H            3.855295932996    -0.822204465315    -0.845942895031     1.007825032230
         H            3.857109932996    -0.694123465315     0.928517104969     1.007825032230
         H            4.479193932996     0.666989534685    -0.062196895031     1.007825032230

  Basis Set: AUG-CC-PVTZ
    Blend: AUG-CC-PVTZ
  Basis Set: (AUG-CC-PVTZ AUX)
    Blend: AUG-CC-PVTZ-JKFIT
	 Reference Energy          =    -551.5997739990140190 [Eh]
	 Singles Energy            =      -0.0000000000000000 [Eh]
	 Same-Spin Energy          =      -0.5792822586827767 [Eh]
	 Opposite-Spin Energy      =      -1.8005999975207936 [Eh]
	 Correlation Energy        =      -2.3798822562035702 [Eh]
	 Total Energy              =    -553.9796562552176056 [Eh]

	 ================> DF-SCS-MP2 Energies <==================
	-----------------------------------------------------------
	 SCS Same-Spin Scale       =       0.3333333333333333 [-]
	 SCS Opposite-Spin Scale   =       1.2000000000000000 [-]
	 SCS Same-Spin Energy      =      -0.1930940862275922 [Eh]
	 SCS Opposite-Spin Energy  =      -2.1607199970249522 [Eh]
	 SCS Correlation Energy    =      -2.3538140832525443 [Eh]
	 SCS Total Energy          =    -553.9535880822666059 [Eh]
	-----------------------------------------------------------

  Dipole Moment: [D]
     X:    -0.3743      Y:    -0.0309      Z:     0.3239     Total:     0.4959

*** Psi4 exiting successfully. Buy a developer a beer!
