                               Psi4 1.4a3.dev225

  ==> Input File <==

--------------------------------------------------------------------------
#psi4
#
memory 32 gb

molecule  {
0 1
  O        2.4822540     0.5405090    -0.0540980
  O        1.5746620    -1.5220150     0.0896580
  N       -1.1191790    -1.6921850    -0.1509940
  C       -1.0969496    -0.3428632    -0.0515252
  C        0.1267050     0.4076130    -0.0279230
  C       -2.3003260     0.4165330    -0.0467730
  C        0.1050810     1.8109880     0.0359760
  C       -2.2954060     1.8037730     0.0119910
  C       -1.0915490     2.5140600     0.0407670
  C        1.4212810    -0.3016580     0.0102200
  C       -2.3257850    -2.4585570     0.0736050
  C        3.7618060    -0.1198990    -0.0066490
  H       -3.2501560    -0.1077310    -0.0690300
  H        1.0507040     2.3420820     0.0640380
  H       -0.2300450    -2.1418000     0.0381510
  H       -3.2442430     2.3364260     0.0191250
  H       -1.0894800     3.5992760     0.0899090
  H       -2.7979590    -2.2384410     1.0412790
  H       -2.0612830    -3.5169920     0.0485590
  H       -3.0612710    -2.2783540    -0.7172980
  H        3.8686140    -0.8046650    -0.8491430
  H        3.8704280    -0.6765840     0.9253170
  H        4.4925120     0.6845290    -0.0653970
units angstrom
no_reorient  #important for SAPT in psi4, default
symmetry c1  #important for SAPT in psi4, default
}

set PROPERTIES_ORIGIN ["COM"]
properties('MP2/aug-cc-pvtz', properties = ['dipole'])
--------------------------------------------------------------------------

    Molecular point group: c1
  Charge       = 0
  Multiplicity = 1
  Basis Set: AUG-CC-PVTZ
    Blend: AUG-CC-PVTZ
  Basis Set: (AUG-CC-PVTZ AUX)
    Blend: AUG-CC-PVTZ-JKFIT

    Orbital Energies [Eh]
    ---------------------

    Doubly Occupied:

       1A    -20.601898     2A    -20.541141     3A    -15.566408
       4A    -11.384510     5A    -11.299848     6A    -11.283789
       7A    -11.260493     8A    -11.251199     9A    -11.249402
      10A    -11.239232    11A    -11.227411    12A    -11.221893
      13A     -1.453340    14A     -1.349513    15A     -1.253125
      16A     -1.140484    17A     -1.044576    18A     -1.008513
      19A     -0.968039    20A     -0.926115    21A     -0.863580
      22A     -0.808318    23A     -0.783810    24A     -0.728106
      25A     -0.702519    26A     -0.672701    27A     -0.668018
      28A     -0.662050    29A     -0.630591    30A     -0.615716
      31A     -0.614719    32A     -0.583014    33A     -0.575122
      34A     -0.555405    35A     -0.544091    36A     -0.535305
      37A     -0.523921    38A     -0.506082    39A     -0.499916
      40A     -0.464919    41A     -0.443714    42A     -0.430939
      43A     -0.348623    44A     -0.289227

  @DF-RHF Final Energy:  -551.60125401144592

   => Energetics <=

    Nuclear Repulsion Energy =            687.9544535501289602
    One-Electron Energy =               -2116.4687478415330588
    Two-Electron Energy =                 876.9130402799580679
    Total Energy =                       -551.6012540114459171
  Basis Set: (AUG-CC-PVTZ AUX)
    Blend: AUG-CC-PVTZ-RI
    Molecular point group: c1

    Geometry (in Angstrom), charge = 0, multiplicity = 1:

       Center              X                  Y                   Z               Mass
    ------------   -----------------  -----------------  -----------------  -----------------
         O            2.467685215299     0.525117582868    -0.050828575484    15.994914619570
         O            1.560093215299    -1.537406417132     0.092927424516    15.994914619570
         N           -1.133747784701    -1.707576417132    -0.147724575484    14.003074004430
         C           -1.111518384701    -0.358254617132    -0.048255775484    12.000000000000
         C            0.112136215299     0.392221582868    -0.024653575484    12.000000000000
         C           -2.314894784701     0.401141582868    -0.043503575484    12.000000000000
         C            0.090512215299     1.795596582868     0.039245424516    12.000000000000
         C           -2.309974784701     1.788381582868     0.015260424516    12.000000000000
         C           -1.106117784701     2.498668582868     0.044036424516    12.000000000000
         C            1.406712215299    -0.317049417132     0.013489424516    12.000000000000
         C           -2.340353784701    -2.473948417132     0.076874424516    12.000000000000
         C            3.747237215299    -0.135290417132    -0.003379575484    12.000000000000
         H           -3.264724784701    -0.123122417132    -0.065760575484     1.007825032230
         H            1.036135215299     2.326690582868     0.067307424516     1.007825032230
         H           -0.244613784701    -2.157191417132     0.041420424516     1.007825032230
         H           -3.258811784701     2.321034582868     0.022394424516     1.007825032230
         H           -1.104048784701     3.583884582868     0.093178424516     1.007825032230
         H           -2.812527784701    -2.253832417132     1.044548424516     1.007825032230
         H           -2.075851784701    -3.532383417132     0.051828424516     1.007825032230
         H           -3.075839784701    -2.293745417132    -0.714028575484     1.007825032230
         H            3.854045215299    -0.820056417132    -0.845873575484     1.007825032230
         H            3.855859215299    -0.691975417132     0.928586424516     1.007825032230
         H            4.477943215299     0.669137582868    -0.062127575484     1.007825032230

  Basis Set: AUG-CC-PVTZ
    Blend: AUG-CC-PVTZ
  Basis Set: (AUG-CC-PVTZ AUX)
    Blend: AUG-CC-PVTZ-JKFIT
	 Reference Energy          =    -551.6012540114459171 [Eh]
	 Singles Energy            =      -0.0000000000000000 [Eh]
	 Same-Spin Energy          =      -0.5789460192187551 [Eh]
	 Opposite-Spin Energy      =      -1.7998163621939449 [Eh]
	 Correlation Energy        =      -2.3787623814127001 [Eh]
	 Total Energy              =    -553.9800163928586016 [Eh]

	 ================> DF-SCS-MP2 Energies <==================
	-----------------------------------------------------------
	 SCS Same-Spin Scale       =       0.3333333333333333 [-]
	 SCS Opposite-Spin Scale   =       1.2000000000000000 [-]
	 SCS Same-Spin Energy      =      -0.1929820064062517 [Eh]
	 SCS Opposite-Spin Energy  =      -2.1597796346327338 [Eh]
	 SCS Correlation Energy    =      -2.3527616410389856 [Eh]
	 SCS Total Energy          =    -553.9540156524849408 [Eh]
	-----------------------------------------------------------

  Dipole Moment: [D]
     X:    -0.2198      Y:    -0.2440      Z:     0.3170     Total:     0.4564

*** Psi4 exiting successfully. Buy a developer a beer!
