                               Psi4 1.3.2 release

  ==> Input File <==

--------------------------------------------------------------------------
#psi4
#
memory 32 gb

molecule  {
0 1
  O        2.4822540     0.5405090    -0.0540980
  O        1.6172476    -1.5159488     0.0889745
  N       -1.1191790    -1.6921850    -0.1509940
  C       -1.0966210    -0.3229200    -0.0500550
  C        0.1267050     0.4076130    -0.0279230
  C       -2.3003260     0.4165330    -0.0467730
  C        0.1050810     1.8109880     0.0359760
  C       -2.2954060     1.8037730     0.0119910
  C       -1.0915490     2.5140600     0.0407670
  C        1.4212810    -0.3016580     0.0102200
  C       -2.3257850    -2.4585570     0.0736050
  C        3.7618060    -0.1198990    -0.0066490
  H       -3.2501560    -0.1077310    -0.0690300
  H        1.0507040     2.3420820     0.0640380
  H       -0.2300450    -2.1418000     0.0381510
  H       -3.2442430     2.3364260     0.0191250
  H       -1.0894800     3.5992760     0.0899090
  H       -2.7979590    -2.2384410     1.0412790
  H       -2.0612830    -3.5169920     0.0485590
  H       -3.0612710    -2.2783540    -0.7172980
  H        3.8686140    -0.8046650    -0.8491430
  H        3.8704280    -0.6765840     0.9253170
  H        4.4925120     0.6845290    -0.0653970
units angstrom
no_reorient  #important for SAPT in psi4, default
symmetry c1  #important for SAPT in psi4, default
}

set PROPERTIES_ORIGIN ["COM"]
properties('MP2/aug-cc-pvtz', properties = ['dipole'])
--------------------------------------------------------------------------

    Molecular point group: c1
  Charge       = 0
  Multiplicity = 1
  Basis Set: AUG-CC-PVTZ
    Blend: AUG-CC-PVTZ
  Basis Set: (AUG-CC-PVTZ AUX)
    Blend: AUG-CC-PVTZ-JKFIT

    Orbital Energies [Eh]
    ---------------------

    Doubly Occupied:

       1A    -20.599500     2A    -20.540646     3A    -15.565074
       4A    -11.384853     5A    -11.299615     6A    -11.282209
       7A    -11.259511     8A    -11.252766     9A    -11.251140
      10A    -11.241444    11A    -11.228499    12A    -11.224331
      13A     -1.453749    14A     -1.346144    15A     -1.247212
      16A     -1.143164    17A     -1.047072    18A     -1.010688
      19A     -0.967214    20A     -0.923982    21A     -0.865293
      22A     -0.809915    23A     -0.782680    24A     -0.728720
      25A     -0.701273    26A     -0.672136    27A     -0.667113
      28A     -0.660891    29A     -0.629939    30A     -0.617054
      31A     -0.612982    32A     -0.584805    33A     -0.575861
      34A     -0.554356    35A     -0.543385    36A     -0.534533
      37A     -0.522998    38A     -0.507301    39A     -0.501910
      40A     -0.463223    41A     -0.444985    42A     -0.428787
      43A     -0.350456    44A     -0.292711

  @DF-RHF Final Energy:  -551.60139981883367

   => Energetics <=

    Nuclear Repulsion Energy =            687.7124491980426910
    One-Electron Energy =               -2115.9834567361303925
    Two-Electron Energy =                 876.6696077192541452
    Total Energy =                       -551.6013998188336700
  Basis Set: (AUG-CC-PVTZ AUX)
    Blend: AUG-CC-PVTZ-RI
    Molecular point group: c1

    Geometry (in Angstrom), charge = 0, multiplicity = 1:

       Center              X                  Y                   Z               Mass
    ------------   -----------------  -----------------  -----------------  -----------------
         O            2.463535103384     0.523080092971    -0.050869221943    15.994914619570
         O            1.598528703384    -1.533377707029     0.092203278057    15.994914619570
         N           -1.137897896616    -1.709613907029    -0.147765221943    14.003074004430
         C           -1.115339896616    -0.340348907029    -0.046826221943    12.000000000000
         C            0.107986103384     0.390184092971    -0.024694221943    12.000000000000
         C           -2.319044896616     0.399104092971    -0.043544221943    12.000000000000
         C            0.086362103384     1.793559092971     0.039204778057    12.000000000000
         C           -2.314124896616     1.786344092971     0.015219778057    12.000000000000
         C           -1.110267896616     2.496631092971     0.043995778057    12.000000000000
         C            1.402562103384    -0.319086907029     0.013448778057    12.000000000000
         C           -2.344503896616    -2.475985907029     0.076833778057    12.000000000000
         C            3.743087103384    -0.137327907029    -0.003420221943    12.000000000000
         H           -3.268874896616    -0.125159907029    -0.065801221943     1.007825032230
         H            1.031985103384     2.324653092971     0.067266778057     1.007825032230
         H           -0.248763896616    -2.159228907029     0.041379778057     1.007825032230
         H           -3.262961896616     2.318997092971     0.022353778057     1.007825032230
         H           -1.108198896616     3.581847092971     0.093137778057     1.007825032230
         H           -2.816677896616    -2.255869907029     1.044507778057     1.007825032230
         H           -2.080001896616    -3.534420907029     0.051787778057     1.007825032230
         H           -3.079989896616    -2.295782907029    -0.714069221943     1.007825032230
         H            3.849895103384    -0.822093907029    -0.845914221943     1.007825032230
         H            3.851709103384    -0.694012907029     0.928545778057     1.007825032230
         H            4.473793103384     0.667100092971    -0.062168221943     1.007825032230

  Basis Set: AUG-CC-PVTZ
    Blend: AUG-CC-PVTZ
  Basis Set: (AUG-CC-PVTZ AUX)
    Blend: AUG-CC-PVTZ-JKFIT
	 Reference Energy          =    -551.6013998188336700 [Eh]
	 Singles Energy            =      -0.0000000000000000 [Eh]
	 Same-Spin Energy          =      -0.5787926020617976 [Eh]
	 Opposite-Spin Energy      =      -1.7996950151882567 [Eh]
	 Correlation Energy        =      -2.3784876172500544 [Eh]
	 Total Energy              =    -553.9798874360836862 [Eh]

	 ================> DF-SCS-MP2 Energies <==================
	-----------------------------------------------------------
	 SCS Same-Spin Scale       =       0.3333333333333333 [-]
	 SCS Opposite-Spin Scale   =       1.2000000000000000 [-]
	 SCS Same-Spin Energy      =      -0.1929308673539325 [Eh]
	 SCS Opposite-Spin Energy  =      -2.1596340182259079 [Eh]
	 SCS Correlation Energy    =      -2.3525648855798407 [Eh]
	 SCS Total Energy          =    -553.9539647044134654 [Eh]
	-----------------------------------------------------------

  Dipole Moment: [D]
     X:    -0.3449      Y:    -0.0866      Z:     0.3282     Total:     0.4839

*** Psi4 exiting successfully. Buy a developer a beer!
