                               Psi4 1.3.2 release

  ==> Input File <==

--------------------------------------------------------------------------
#psi4
#
memory 32 gb

molecule  {
0 1
  O        2.4822540     0.5405090    -0.0540980
  O        1.5746620    -1.5220150     0.0896580
  N       -1.1191790    -1.6921850    -0.1509940
  C       -1.1091761    -0.3014567    -0.0505698
  C        0.1267050     0.4076130    -0.0279230
  C       -2.3003260     0.4165330    -0.0467730
  C        0.1050810     1.8109880     0.0359760
  C       -2.2954060     1.8037730     0.0119910
  C       -1.0915490     2.5140600     0.0407670
  C        1.4212810    -0.3016580     0.0102200
  C       -2.3257850    -2.4585570     0.0736050
  C        3.7618060    -0.1198990    -0.0066490
  H       -3.2501560    -0.1077310    -0.0690300
  H        1.0507040     2.3420820     0.0640380
  H       -0.2300450    -2.1418000     0.0381510
  H       -3.2442430     2.3364260     0.0191250
  H       -1.0894800     3.5992760     0.0899090
  H       -2.7979590    -2.2384410     1.0412790
  H       -2.0612830    -3.5169920     0.0485590
  H       -3.0612710    -2.2783540    -0.7172980
  H        3.8686140    -0.8046650    -0.8491430
  H        3.8704280    -0.6765840     0.9253170
  H        4.4925120     0.6845290    -0.0653970
units angstrom
no_reorient  #important for SAPT in psi4, default
symmetry c1  #important for SAPT in psi4, default
}

set PROPERTIES_ORIGIN ["COM"]
properties('MP2/aug-cc-pvtz', properties = ['dipole'])
--------------------------------------------------------------------------

    Molecular point group: c1
  Charge       = 0
  Multiplicity = 1
  Basis Set: AUG-CC-PVTZ
    Blend: AUG-CC-PVTZ
  Basis Set: (AUG-CC-PVTZ AUX)
    Blend: AUG-CC-PVTZ-JKFIT

    Orbital Energies [Eh]
    ---------------------

    Doubly Occupied:

       1A    -20.603570     2A    -20.542378     3A    -15.559575
       4A    -11.386822     5A    -11.296522     6A    -11.284814
       7A    -11.255757     8A    -11.252928     9A    -11.250910
      10A    -11.241189    11A    -11.226447    12A    -11.225027
      13A     -1.454726    14A     -1.350395    15A     -1.238227
      16A     -1.143568    17A     -1.047386    18A     -1.011717
      19A     -0.968637    20A     -0.919650    21A     -0.866360
      22A     -0.808980    23A     -0.784649    24A     -0.729420
      25A     -0.698108    26A     -0.674420    27A     -0.669201
      28A     -0.659499    29A     -0.627966    30A     -0.617887
      31A     -0.608916    32A     -0.582944    33A     -0.577653
      34A     -0.556095    35A     -0.540710    36A     -0.534600
      37A     -0.526060    38A     -0.507824    39A     -0.500890
      40A     -0.465643    41A     -0.445933    42A     -0.423783
      43A     -0.350288    44A     -0.293998

  @DF-RHF Final Energy:  -551.60085344096285

   => Energetics <=

    Nuclear Repulsion Energy =            687.9544198513420952
    One-Electron Energy =               -2116.4864051686749917
    Two-Electron Energy =                 876.9311318763699319
    Total Energy =                       -551.6008534409628510
  Basis Set: (AUG-CC-PVTZ AUX)
    Blend: AUG-CC-PVTZ-RI
    Molecular point group: c1

    Geometry (in Angstrom), charge = 0, multiplicity = 1:

       Center              X                  Y                   Z               Mass
    ------------   -----------------  -----------------  -----------------  -----------------
         O            2.468573989880     0.522107641783    -0.050898025878    15.994914619570
         O            1.560981989880    -1.540416358217     0.092857974122    15.994914619570
         N           -1.132859010120    -1.710586358217    -0.147794025878    14.003074004430
         C           -1.122856110120    -0.319858058217    -0.047369825878    12.000000000000
         C            0.113024989880     0.389211641783    -0.024723025878    12.000000000000
         C           -2.314006010120     0.398131641783    -0.043573025878    12.000000000000
         C            0.091400989880     1.792586641783     0.039175974122    12.000000000000
         C           -2.309086010120     1.785371641783     0.015190974122    12.000000000000
         C           -1.105229010120     2.495658641783     0.043966974122    12.000000000000
         C            1.407600989880    -0.320059358217     0.013419974122    12.000000000000
         C           -2.339465010120    -2.476958358217     0.076804974122    12.000000000000
         C            3.748125989880    -0.138300358217    -0.003449025878    12.000000000000
         H           -3.263836010120    -0.126132358217    -0.065830025878     1.007825032230
         H            1.037023989880     2.323680641783     0.067237974122     1.007825032230
         H           -0.243725010120    -2.160201358217     0.041350974122     1.007825032230
         H           -3.257923010120     2.318024641783     0.022324974122     1.007825032230
         H           -1.103160010120     3.580874641783     0.093108974122     1.007825032230
         H           -2.811639010120    -2.256842358217     1.044478974122     1.007825032230
         H           -2.074963010120    -3.535393358217     0.051758974122     1.007825032230
         H           -3.074951010120    -2.296755358217    -0.714098025878     1.007825032230
         H            3.854933989880    -0.823066358217    -0.845943025878     1.007825032230
         H            3.856747989880    -0.694985358217     0.928516974122     1.007825032230
         H            4.478831989880     0.666127641783    -0.062197025878     1.007825032230

  Basis Set: AUG-CC-PVTZ
    Blend: AUG-CC-PVTZ
  Basis Set: (AUG-CC-PVTZ AUX)
    Blend: AUG-CC-PVTZ-JKFIT
	 Reference Energy          =    -551.6008534409628510 [Eh]
	 Singles Energy            =      -0.0000000000000000 [Eh]
	 Same-Spin Energy          =      -0.5788916517231693 [Eh]
	 Opposite-Spin Energy      =      -1.7998689034047848 [Eh]
	 Correlation Energy        =      -2.3787605551279540 [Eh]
	 Total Energy              =    -553.9796139960908476 [Eh]

	 ================> DF-SCS-MP2 Energies <==================
	-----------------------------------------------------------
	 SCS Same-Spin Scale       =       0.3333333333333333 [-]
	 SCS Opposite-Spin Scale   =       1.2000000000000000 [-]
	 SCS Same-Spin Energy      =      -0.1929638839077231 [Eh]
	 SCS Opposite-Spin Energy  =      -2.1598426840857416 [Eh]
	 SCS Correlation Energy    =      -2.3528065679934649 [Eh]
	 SCS Total Energy          =    -553.9536600089562626 [Eh]
	-----------------------------------------------------------

  Dipole Moment: [D]
     X:    -0.1146      Y:     0.0747      Z:     0.3362     Total:     0.3630

*** Psi4 exiting successfully. Buy a developer a beer!
