                               Psi4 1.3.2 release

  ==> Input File <==

--------------------------------------------------------------------------
#psi4
#
memory 32 gb

molecule  {
0 1
  O        2.4822540     0.5405090    -0.0540980
  O        1.5746620    -1.5220150     0.0896580
  N       -1.1191790    -1.6921850    -0.1509940
  C       -1.0966210    -0.3229200    -0.0500550
  C        0.1267050     0.4076130    -0.0279230
  C       -2.3003260     0.4165330    -0.0467730
  C        0.1050810     1.8109880     0.0359760
  C       -2.2954060     1.8037730     0.0119910
  C       -1.0915490     2.5140600     0.0407670
  C        1.4212810    -0.3016580     0.0102200
  C       -2.2358556    -2.5725520     0.1166924
  C        3.7618060    -0.1198990    -0.0066490
  H       -3.2501560    -0.1077310    -0.0690300
  H        1.0507040     2.3420820     0.0640380
  H       -0.2300450    -2.1418000     0.0381510
  H       -3.2442430     2.3364260     0.0191250
  H       -1.0894800     3.5992760     0.0899090
  H       -2.7979590    -2.2384410     1.0412790
  H       -2.0612830    -3.5169920     0.0485590
  H       -3.0612710    -2.2783540    -0.7172980
  H        3.8686140    -0.8046650    -0.8491430
  H        3.8704280    -0.6765840     0.9253170
  H        4.4925120     0.6845290    -0.0653970
units angstrom
no_reorient  #important for SAPT in psi4, default
symmetry c1  #important for SAPT in psi4, default
}

set PROPERTIES_ORIGIN ["COM"]
properties('MP2/aug-cc-pvtz', properties = ['dipole'])
--------------------------------------------------------------------------

    Molecular point group: c1
  Charge       = 0
  Multiplicity = 1
  Basis Set: AUG-CC-PVTZ
    Blend: AUG-CC-PVTZ
  Basis Set: (AUG-CC-PVTZ AUX)
    Blend: AUG-CC-PVTZ-JKFIT

    Orbital Energies [Eh]
    ---------------------

    Doubly Occupied:

       1A    -20.603059     2A    -20.541745     3A    -15.563906
       4A    -11.385965     5A    -11.301732     6A    -11.284556
       7A    -11.262542     8A    -11.252203     9A    -11.250788
      10A    -11.241379    11A    -11.228501    12A    -11.224347
      13A     -1.454303    14A     -1.350102    15A     -1.245499
      16A     -1.143460    17A     -1.046690    18A     -1.013720
      19A     -0.969107    20A     -0.925788    21A     -0.865150
      22A     -0.810346    23A     -0.785561    24A     -0.728726
      25A     -0.702423    26A     -0.673649    27A     -0.669780
      28A     -0.668352    29A     -0.631978    30A     -0.621262
      31A     -0.600051    32A     -0.592833    33A     -0.576840
      34A     -0.557686    35A     -0.541352    36A     -0.536019
      37A     -0.524683    38A     -0.504624    39A     -0.498100
      40A     -0.465279    41A     -0.443489    42A     -0.418692
      43A     -0.349938    44A     -0.290925

  @DF-RHF Final Energy:  -551.57356332302550

   => Energetics <=

    Nuclear Repulsion Energy =            687.4084658042107776
    One-Electron Energy =               -2115.2697966297218954
    Two-Electron Energy =                 876.2877675024857353
    Total Energy =                       -551.5735633230254962
  Basis Set: (AUG-CC-PVTZ AUX)
    Blend: AUG-CC-PVTZ-RI
    Molecular point group: c1

    Geometry (in Angstrom), charge = 0, multiplicity = 1:

       Center              X                  Y                   Z               Mass
    ------------   -----------------  -----------------  -----------------  -----------------
         O            2.461124137631     0.531954441259    -0.054067577837    15.994914619570
         O            1.553532137631    -1.530569558741     0.089688422163    15.994914619570
         N           -1.140308862369    -1.700739558741    -0.150963577837    14.003074004430
         C           -1.117750862369    -0.331474558741    -0.050024577837    12.000000000000
         C            0.105575137631     0.399058441259    -0.027892577837    12.000000000000
         C           -2.321455862369     0.407978441259    -0.046742577837    12.000000000000
         C            0.083951137631     1.802433441259     0.036006422163    12.000000000000
         C           -2.316535862369     1.795218441259     0.012021422163    12.000000000000
         C           -1.112678862369     2.505505441259     0.040797422163    12.000000000000
         C            1.400151137631    -0.310212558741     0.010250422163    12.000000000000
         C           -2.256985462369    -2.581106558741     0.116722822163    12.000000000000
         C            3.740676137631    -0.128453558741    -0.006618577837    12.000000000000
         H           -3.271285862369    -0.116285558741    -0.068999577837     1.007825032230
         H            1.029574137631     2.333527441259     0.064068422163     1.007825032230
         H           -0.251174862369    -2.150354558741     0.038181422163     1.007825032230
         H           -3.265372862369     2.327871441259     0.019155422163     1.007825032230
         H           -1.110609862369     3.590721441259     0.089939422163     1.007825032230
         H           -2.819088862369    -2.246995558741     1.041309422163     1.007825032230
         H           -2.082412862369    -3.525546558741     0.048589422163     1.007825032230
         H           -3.082400862369    -2.286908558741    -0.717267577837     1.007825032230
         H            3.847484137631    -0.813219558741    -0.849112577837     1.007825032230
         H            3.849298137631    -0.685138558741     0.925347422163     1.007825032230
         H            4.471382137631     0.675974441259    -0.065366577837     1.007825032230

  Basis Set: AUG-CC-PVTZ
    Blend: AUG-CC-PVTZ
  Basis Set: (AUG-CC-PVTZ AUX)
    Blend: AUG-CC-PVTZ-JKFIT
	 Reference Energy          =    -551.5735633230254962 [Eh]
	 Singles Energy            =      -0.0000000000000000 [Eh]
	 Same-Spin Energy          =      -0.5792173365336284 [Eh]
	 Opposite-Spin Energy      =      -1.8009448417978651 [Eh]
	 Correlation Energy        =      -2.3801621783314935 [Eh]
	 Total Energy              =    -553.9537255013569848 [Eh]

	 ================> DF-SCS-MP2 Energies <==================
	-----------------------------------------------------------
	 SCS Same-Spin Scale       =       0.3333333333333333 [-]
	 SCS Opposite-Spin Scale   =       1.2000000000000000 [-]
	 SCS Same-Spin Energy      =      -0.1930724455112094 [Eh]
	 SCS Opposite-Spin Energy  =      -2.1611338101574380 [Eh]
	 SCS Correlation Energy    =      -2.3542062556686476 [Eh]
	 SCS Total Energy          =    -553.9277695786940967 [Eh]
	-----------------------------------------------------------

  Dipole Moment: [D]
     X:    -0.0326      Y:    -0.0763      Z:     0.3757     Total:     0.3848

*** Psi4 exiting successfully. Buy a developer a beer!
