                               Psi4 1.3.2 release

  ==> Input File <==

--------------------------------------------------------------------------
#psi4
#
memory 32 gb

molecule  {
0 1
  O        2.4822540     0.5405090    -0.0540980
  O        1.5746620    -1.5220150     0.0896580
  N       -1.0819886    -1.7325471    -0.0662124
  C       -1.0966210    -0.3229200    -0.0500550
  C        0.1267050     0.4076130    -0.0279230
  C       -2.3003260     0.4165330    -0.0467730
  C        0.1050810     1.8109880     0.0359760
  C       -2.2954060     1.8037730     0.0119910
  C       -1.0915490     2.5140600     0.0407670
  C        1.4212810    -0.3016580     0.0102200
  C       -2.3257850    -2.4585570     0.0736050
  C        3.7618060    -0.1198990    -0.0066490
  H       -3.2501560    -0.1077310    -0.0690300
  H        1.0507040     2.3420820     0.0640380
  H       -0.2300450    -2.1418000     0.0381510
  H       -3.2442430     2.3364260     0.0191250
  H       -1.0894800     3.5992760     0.0899090
  H       -2.7979590    -2.2384410     1.0412790
  H       -2.0612830    -3.5169920     0.0485590
  H       -3.0612710    -2.2783540    -0.7172980
  H        3.8686140    -0.8046650    -0.8491430
  H        3.8704280    -0.6765840     0.9253170
  H        4.4925120     0.6845290    -0.0653970
units angstrom
no_reorient  #important for SAPT in psi4, default
symmetry c1  #important for SAPT in psi4, default
}

set PROPERTIES_ORIGIN ["COM"]
properties('MP2/aug-cc-pvtz', properties = ['dipole'])
--------------------------------------------------------------------------

    Molecular point group: c1
  Charge       = 0
  Multiplicity = 1
  Basis Set: AUG-CC-PVTZ
    Blend: AUG-CC-PVTZ
  Basis Set: (AUG-CC-PVTZ AUX)
    Blend: AUG-CC-PVTZ-JKFIT

    Orbital Energies [Eh]
    ---------------------

    Doubly Occupied:

       1A    -20.602889     2A    -20.541509     3A    -15.557116
       4A    -11.385627     5A    -11.300943     6A    -11.284361
       7A    -11.257241     8A    -11.253075     9A    -11.250637
      10A    -11.241132    11A    -11.230403    12A    -11.225487
      13A     -1.454088    14A     -1.349849    15A     -1.238751
      16A     -1.144037    17A     -1.046894    18A     -1.010260
      19A     -0.968245    20A     -0.924388    21A     -0.865140
      22A     -0.814210    23A     -0.783661    24A     -0.729893
      25A     -0.703155    26A     -0.673621    27A     -0.668629
      28A     -0.660238    29A     -0.628166    30A     -0.617159
      31A     -0.608096    32A     -0.591406    33A     -0.576972
      34A     -0.555800    35A     -0.541012    36A     -0.533457
      37A     -0.525194    38A     -0.505842    39A     -0.501294
      40A     -0.465102    41A     -0.447200    42A     -0.422441
      43A     -0.350017    44A     -0.293875

  @DF-RHF Final Energy:  -551.59657970704995

   => Energetics <=

    Nuclear Repulsion Energy =            687.6282109698360046
    One-Electron Energy =               -2115.7925561732754431
    Two-Electron Energy =                 876.5677654963895975
    Total Energy =                       -551.5965797070499548
  Basis Set: (AUG-CC-PVTZ AUX)
    Blend: AUG-CC-PVTZ-RI
    Molecular point group: c1

    Geometry (in Angstrom), charge = 0, multiplicity = 1:

       Center              X                  Y                   Z               Mass
    ------------   -----------------  -----------------  -----------------  -----------------
         O            2.464506596629     0.527091638414    -0.058127175398    15.994914619570
         O            1.556914596629    -1.535432361586     0.085628824602    15.994914619570
         N           -1.099736003371    -1.745964461586    -0.070241575398    14.003074004430
         C           -1.114368403371    -0.336337361586    -0.054084175398    12.000000000000
         C            0.108957596629     0.394195638414    -0.031952175398    12.000000000000
         C           -2.318073403371     0.403115638414    -0.050802175398    12.000000000000
         C            0.087333596629     1.797570638414     0.031946824602    12.000000000000
         C           -2.313153403371     1.790355638414     0.007961824602    12.000000000000
         C           -1.109296403371     2.500642638414     0.036737824602    12.000000000000
         C            1.403533596629    -0.315075361586     0.006190824602    12.000000000000
         C           -2.343532403371    -2.471974361586     0.069575824602    12.000000000000
         C            3.744058596629    -0.133316361586    -0.010678175398    12.000000000000
         H           -3.267903403371    -0.121148361586    -0.073059175398     1.007825032230
         H            1.032956596629     2.328664638414     0.060008824602     1.007825032230
         H           -0.247792403371    -2.155217361586     0.034121824602     1.007825032230
         H           -3.261990403371     2.323008638414     0.015095824602     1.007825032230
         H           -1.107227403371     3.585858638414     0.085879824602     1.007825032230
         H           -2.815706403371    -2.251858361586     1.037249824602     1.007825032230
         H           -2.079030403371    -3.530409361586     0.044529824602     1.007825032230
         H           -3.079018403371    -2.291771361586    -0.721327175398     1.007825032230
         H            3.850866596629    -0.818082361586    -0.853172175398     1.007825032230
         H            3.852680596629    -0.690001361586     0.921287824602     1.007825032230
         H            4.474764596629     0.671111638414    -0.069426175398     1.007825032230

  Basis Set: AUG-CC-PVTZ
    Blend: AUG-CC-PVTZ
  Basis Set: (AUG-CC-PVTZ AUX)
    Blend: AUG-CC-PVTZ-JKFIT
	 Reference Energy          =    -551.5965797070499548 [Eh]
	 Singles Energy            =      -0.0000000000000000 [Eh]
	 Same-Spin Energy          =      -0.5785549734513282 [Eh]
	 Opposite-Spin Energy      =      -1.7995616639461742 [Eh]
	 Correlation Energy        =      -2.3781166373975022 [Eh]
	 Total Energy              =    -553.9746963444474659 [Eh]

	 ================> DF-SCS-MP2 Energies <==================
	-----------------------------------------------------------
	 SCS Same-Spin Scale       =       0.3333333333333333 [-]
	 SCS Opposite-Spin Scale   =       1.2000000000000000 [-]
	 SCS Same-Spin Energy      =      -0.1928516578171094 [Eh]
	 SCS Opposite-Spin Energy  =      -2.1594739967354091 [Eh]
	 SCS Correlation Energy    =      -2.3523256545525184 [Eh]
	 SCS Total Energy          =    -553.9489053616024421 [Eh]
	-----------------------------------------------------------

  Dipole Moment: [D]
     X:    -0.1901      Y:     0.0807      Z:     0.1932     Total:     0.2828

*** Psi4 exiting successfully. Buy a developer a beer!
