                               Psi4 1.4a3.dev225

  ==> Input File <==

--------------------------------------------------------------------------
#psi4
#
memory 32 gb

molecule  {
0 1
  O        2.4822540     0.5405090    -0.0540980
  O        1.5746620    -1.5220150     0.0896580
  N       -1.1191790    -1.6921850    -0.1509940
  C       -1.0966210    -0.3229200    -0.0500550
  C        0.1267050     0.4076130    -0.0279230
  C       -2.3003260     0.4165330    -0.0467730
  C        0.1050810     1.8109880     0.0359760
  C       -2.2954060     1.8037730     0.0119910
  C       -1.0915490     2.5140600     0.0407670
  C        1.4369283    -0.2892377     0.0092714
  C       -2.3257850    -2.4585570     0.0736050
  C        3.7618060    -0.1198990    -0.0066490
  H       -3.2501560    -0.1077310    -0.0690300
  H        1.0507040     2.3420820     0.0640380
  H       -0.2300450    -2.1418000     0.0381510
  H       -3.2442430     2.3364260     0.0191250
  H       -1.0894800     3.5992760     0.0899090
  H       -2.7979590    -2.2384410     1.0412790
  H       -2.0612830    -3.5169920     0.0485590
  H       -3.0612710    -2.2783540    -0.7172980
  H        3.8686140    -0.8046650    -0.8491430
  H        3.8704280    -0.6765840     0.9253170
  H        4.4925120     0.6845290    -0.0653970
units angstrom
no_reorient  #important for SAPT in psi4, default
symmetry c1  #important for SAPT in psi4, default
}

set PROPERTIES_ORIGIN ["COM"]
properties('MP2/aug-cc-pvtz', properties = ['dipole'])
--------------------------------------------------------------------------

    Molecular point group: c1
  Charge       = 0
  Multiplicity = 1
  Basis Set: AUG-CC-PVTZ
    Blend: AUG-CC-PVTZ
  Basis Set: (AUG-CC-PVTZ AUX)
    Blend: AUG-CC-PVTZ-JKFIT

    Orbital Energies [Eh]
    ---------------------

    Doubly Occupied:

       1A    -20.608223     2A    -20.538886     3A    -15.561836
       4A    -11.386126     5A    -11.297603     6A    -11.287204
       7A    -11.257514     8A    -11.250848     9A    -11.249057
      10A    -11.239619    11A    -11.226954    12A    -11.222744
      13A     -1.460881    14A     -1.346490    15A     -1.244240
      16A     -1.141207    17A     -1.045362    18A     -1.008776
      19A     -0.972717    20A     -0.922682    21A     -0.862674
      22A     -0.808467    23A     -0.786448    24A     -0.730511
      25A     -0.698348    26A     -0.673955    27A     -0.673360
      28A     -0.661015    29A     -0.629585    30A     -0.615312
      31A     -0.611058    32A     -0.582170    33A     -0.576455
      34A     -0.554979    35A     -0.540994    36A     -0.535307
      37A     -0.525525    38A     -0.506639    39A     -0.500537
      40A     -0.465277    41A     -0.443493    42A     -0.426613
      43A     -0.348589    44A     -0.290486

  @DF-RHF Final Energy:  -551.60122433547770

   => Energetics <=

    Nuclear Repulsion Energy =            687.9440248836382352
    One-Electron Energy =               -2116.4569669353022618
    Two-Electron Energy =                 876.9117177161864447
    Total Energy =                       -551.6012243354776956
  Basis Set: (AUG-CC-PVTZ AUX)
    Blend: AUG-CC-PVTZ-RI
    Molecular point group: c1

    Geometry (in Angstrom), charge = 0, multiplicity = 1:

       Center              X                  Y                   Z               Mass
    ------------   -----------------  -----------------  -----------------  -----------------
         O            2.466523887542     0.522764999860    -0.050866491881    15.994914619570
         O            1.558931887542    -1.539759000140     0.092889508119    15.994914619570
         N           -1.134909112458    -1.709929000140    -0.147762491881    14.003074004430
         C           -1.112351112458    -0.340664000140    -0.046823491881    12.000000000000
         C            0.110974887542     0.389868999860    -0.024691491881    12.000000000000
         C           -2.316056112458     0.398788999860    -0.043541491881    12.000000000000
         C            0.089350887542     1.793243999860     0.039207508119    12.000000000000
         C           -2.311136112458     1.786028999860     0.015222508119    12.000000000000
         C           -1.107279112458     2.496315999860     0.043998508119    12.000000000000
         C            1.421198187542    -0.306981700140     0.012502908119    12.000000000000
         C           -2.341515112458    -2.476301000140     0.076836508119    12.000000000000
         C            3.746075887542    -0.137643000140    -0.003417491881    12.000000000000
         H           -3.265886112458    -0.125475000140    -0.065798491881     1.007825032230
         H            1.034973887542     2.324337999860     0.067269508119     1.007825032230
         H           -0.245775112458    -2.159544000140     0.041382508119     1.007825032230
         H           -3.259973112458     2.318681999860     0.022356508119     1.007825032230
         H           -1.105210112458     3.581531999860     0.093140508119     1.007825032230
         H           -2.813689112458    -2.256185000140     1.044510508119     1.007825032230
         H           -2.077013112458    -3.534736000140     0.051790508119     1.007825032230
         H           -3.077001112458    -2.296098000140    -0.714066491881     1.007825032230
         H            3.852883887542    -0.822409000140    -0.845911491881     1.007825032230
         H            3.854697887542    -0.694328000140     0.928548508119     1.007825032230
         H            4.476781887542     0.666784999860    -0.062165491881     1.007825032230

  Basis Set: AUG-CC-PVTZ
    Blend: AUG-CC-PVTZ
  Basis Set: (AUG-CC-PVTZ AUX)
    Blend: AUG-CC-PVTZ-JKFIT
	 Reference Energy          =    -551.6012243354776956 [Eh]
	 Singles Energy            =      -0.0000000000000000 [Eh]
	 Same-Spin Energy          =      -0.5789404602600219 [Eh]
	 Opposite-Spin Energy      =      -1.7997983235700521 [Eh]
	 Correlation Energy        =      -2.3787387838300740 [Eh]
	 Total Energy              =    -553.9799631193077403 [Eh]

	 ================> DF-SCS-MP2 Energies <==================
	-----------------------------------------------------------
	 SCS Same-Spin Scale       =       0.3333333333333333 [-]
	 SCS Opposite-Spin Scale   =       1.2000000000000000 [-]
	 SCS Same-Spin Energy      =      -0.1929801534200073 [Eh]
	 SCS Opposite-Spin Energy  =      -2.1597579882840625 [Eh]
	 SCS Correlation Energy    =      -2.3527381417040698 [Eh]
	 SCS Total Energy          =    -553.9539624771817898 [Eh]
	-----------------------------------------------------------

  Dipole Moment: [D]
     X:     0.0218      Y:    -0.0281      Z:     0.3186     Total:     0.3206

*** Psi4 exiting successfully. Buy a developer a beer!
