                               Psi4 1.3.2 release

  ==> Input File <==

--------------------------------------------------------------------------
#psi4
#
memory 32 gb

molecule  {
0 1
  O        2.4822540     0.5405090    -0.0540980
  O        1.5746620    -1.5220150     0.0896580
  N       -1.1093227    -1.7019329    -0.1298851
  C       -1.0966210    -0.3229200    -0.0500550
  C        0.1267050     0.4076130    -0.0279230
  C       -2.3003260     0.4165330    -0.0467730
  C        0.1050810     1.8109880     0.0359760
  C       -2.2954060     1.8037730     0.0119910
  C       -1.0915490     2.5140600     0.0407670
  C        1.4212810    -0.3016580     0.0102200
  C       -2.3257850    -2.4585570     0.0736050
  C        3.7618060    -0.1198990    -0.0066490
  H       -3.2501560    -0.1077310    -0.0690300
  H        1.0507040     2.3420820     0.0640380
  H       -0.2300450    -2.1418000     0.0381510
  H       -3.2442430     2.3364260     0.0191250
  H       -1.0894800     3.5992760     0.0899090
  H       -2.7979590    -2.2384410     1.0412790
  H       -2.0612830    -3.5169920     0.0485590
  H       -3.0612710    -2.2783540    -0.7172980
  H        3.8686140    -0.8046650    -0.8491430
  H        3.8704280    -0.6765840     0.9253170
  H        4.4925120     0.6845290    -0.0653970
units angstrom
no_reorient  #important for SAPT in psi4, default
symmetry c1  #important for SAPT in psi4, default
}

set PROPERTIES_ORIGIN ["COM"]
properties('MP2/aug-cc-pvtz', properties = ['dipole'])
--------------------------------------------------------------------------

    Molecular point group: c1
  Charge       = 0
  Multiplicity = 1
  Basis Set: AUG-CC-PVTZ
    Blend: AUG-CC-PVTZ
  Basis Set: (AUG-CC-PVTZ AUX)
    Blend: AUG-CC-PVTZ-JKFIT

    Orbital Energies [Eh]
    ---------------------

    Doubly Occupied:

       1A    -20.602754     2A    -20.541691     3A    -15.561672
       4A    -11.385584     5A    -11.299013     6A    -11.284301
       7A    -11.258136     8A    -11.252074     9A    -11.250126
      10A    -11.239991    11A    -11.228208    12A    -11.223829
      13A     -1.454041    14A     -1.349941    15A     -1.243996
      16A     -1.142528    17A     -1.046258    18A     -1.009746
      19A     -0.968362    20A     -0.923395    21A     -0.864693
      22A     -0.810339    23A     -0.784193    24A     -0.729012
      25A     -0.701002    26A     -0.673404    27A     -0.668607
      28A     -0.660707    29A     -0.629072    30A     -0.616579
      31A     -0.611064    32A     -0.585149    33A     -0.576606
      34A     -0.555867    35A     -0.542059    36A     -0.534940
      37A     -0.524917    38A     -0.506523    39A     -0.501304
      40A     -0.465239    41A     -0.445396    42A     -0.426341
      43A     -0.349543    44A     -0.291940

  @DF-RHF Final Energy:  -551.60177521364722

   => Energetics <=

    Nuclear Repulsion Energy =            687.9198073450284028
    One-Electron Energy =               -2116.4028770483873814
    Two-Electron Energy =                 876.8812944897117632
    Total Energy =                       -551.6017752136472154
  Basis Set: (AUG-CC-PVTZ AUX)
    Blend: AUG-CC-PVTZ-RI
    Molecular point group: c1

    Geometry (in Angstrom), charge = 0, multiplicity = 1:

       Center              X                  Y                   Z               Mass
    ------------   -----------------  -----------------  -----------------  -----------------
         O            2.466825252998     0.524494742602    -0.052726042330    15.994914619570
         O            1.559233252998    -1.538029257398     0.091029957670    15.994914619570
         N           -1.124751447002    -1.717947157398    -0.128513142330    14.003074004430
         C           -1.112049747002    -0.338934257398    -0.048683042330    12.000000000000
         C            0.111276252998     0.391598742602    -0.026551042330    12.000000000000
         C           -2.315754747002     0.400518742602    -0.045401042330    12.000000000000
         C            0.089652252998     1.794973742602     0.037347957670    12.000000000000
         C           -2.310834747002     1.787758742602     0.013362957670    12.000000000000
         C           -1.106977747002     2.498045742602     0.042138957670    12.000000000000
         C            1.405852252998    -0.317672257398     0.011591957670    12.000000000000
         C           -2.341213747002    -2.474571257398     0.074976957670    12.000000000000
         C            3.746377252998    -0.135913257398    -0.005277042330    12.000000000000
         H           -3.265584747002    -0.123745257398    -0.067658042330     1.007825032230
         H            1.035275252998     2.326067742602     0.065409957670     1.007825032230
         H           -0.245473747002    -2.157814257398     0.039522957670     1.007825032230
         H           -3.259671747002     2.320411742602     0.020496957670     1.007825032230
         H           -1.104908747002     3.583261742602     0.091280957670     1.007825032230
         H           -2.813387747002    -2.254455257398     1.042650957670     1.007825032230
         H           -2.076711747002    -3.533006257398     0.049930957670     1.007825032230
         H           -3.076699747002    -2.294368257398    -0.715926042330     1.007825032230
         H            3.853185252998    -0.820679257398    -0.847771042330     1.007825032230
         H            3.854999252998    -0.692598257398     0.926688957670     1.007825032230
         H            4.477083252998     0.668514742602    -0.064025042330     1.007825032230

  Basis Set: AUG-CC-PVTZ
    Blend: AUG-CC-PVTZ
  Basis Set: (AUG-CC-PVTZ AUX)
    Blend: AUG-CC-PVTZ-JKFIT
	 Reference Energy          =    -551.6017752136472154 [Eh]
	 Singles Energy            =      -0.0000000000000000 [Eh]
	 Same-Spin Energy          =      -0.5787869562614401 [Eh]
	 Opposite-Spin Energy      =      -1.7996751874497958 [Eh]
	 Correlation Energy        =      -2.3784621437112357 [Eh]
	 Total Energy              =    -553.9802373573584191 [Eh]

	 ================> DF-SCS-MP2 Energies <==================
	-----------------------------------------------------------
	 SCS Same-Spin Scale       =       0.3333333333333333 [-]
	 SCS Opposite-Spin Scale   =       1.2000000000000000 [-]
	 SCS Same-Spin Energy      =      -0.1929289854204800 [Eh]
	 SCS Opposite-Spin Energy  =      -2.1596102249397551 [Eh]
	 SCS Correlation Energy    =      -2.3525392103602352 [Eh]
	 SCS Total Energy          =    -553.9543144240074071 [Eh]
	-----------------------------------------------------------

  Dipole Moment: [D]
     X:    -0.1783      Y:    -0.0599      Z:     0.2951     Total:     0.3500

*** Psi4 exiting successfully. Buy a developer a beer!
