                               Psi4 1.3.2 release

  ==> Input File <==

--------------------------------------------------------------------------
#psi4
#
memory 32 gb

molecule  {
0 1
  O        2.4207559     0.6123318    -0.0584702
  O        1.5746620    -1.5220150     0.0896580
  N       -1.1191790    -1.6921850    -0.1509940
  C       -1.0966210    -0.3229200    -0.0500550
  C        0.1267050     0.4076130    -0.0279230
  C       -2.3003260     0.4165330    -0.0467730
  C        0.1050810     1.8109880     0.0359760
  C       -2.2954060     1.8037730     0.0119910
  C       -1.0915490     2.5140600     0.0407670
  C        1.4212810    -0.3016580     0.0102200
  C       -2.3257850    -2.4585570     0.0736050
  C        3.7618060    -0.1198990    -0.0066490
  H       -3.2501560    -0.1077310    -0.0690300
  H        1.0507040     2.3420820     0.0640380
  H       -0.2300450    -2.1418000     0.0381510
  H       -3.2442430     2.3364260     0.0191250
  H       -1.0894800     3.5992760     0.0899090
  H       -2.7979590    -2.2384410     1.0412790
  H       -2.0612830    -3.5169920     0.0485590
  H       -3.0612710    -2.2783540    -0.7172980
  H        3.8686140    -0.8046650    -0.8491430
  H        3.8704280    -0.6765840     0.9253170
  H        4.4925120     0.6845290    -0.0653970
units angstrom
no_reorient  #important for SAPT in psi4, default
symmetry c1  #important for SAPT in psi4, default
}

set PROPERTIES_ORIGIN ["COM"]
properties('MP2/aug-cc-pvtz', properties = ['dipole'])
--------------------------------------------------------------------------

    Molecular point group: c1
  Charge       = 0
  Multiplicity = 1
  Basis Set: AUG-CC-PVTZ
    Blend: AUG-CC-PVTZ
  Basis Set: (AUG-CC-PVTZ AUX)
    Blend: AUG-CC-PVTZ-JKFIT

    Orbital Energies [Eh]
    ---------------------

    Doubly Occupied:

       1A    -20.607160     2A    -20.544029     3A    -15.561169
       4A    -11.384115     5A    -11.295025     6A    -11.294684
       7A    -11.257009     8A    -11.248929     9A    -11.246100
      10A    -11.234396    11A    -11.224852    12A    -11.220682
      13A     -1.443073    14A     -1.347239    15A     -1.243454
      16A     -1.138722    17A     -1.041347    18A     -1.006939
      19A     -0.963583    20A     -0.921764    21A     -0.863876
      22A     -0.806591    23A     -0.781920    24A     -0.723071
      25A     -0.697720    26A     -0.670486    27A     -0.659896
      28A     -0.657157    29A     -0.624239    30A     -0.613565
      31A     -0.609887    32A     -0.581029    33A     -0.567102
      34A     -0.559875    35A     -0.540008    36A     -0.538530
      37A     -0.528307    38A     -0.506035    39A     -0.498843
      40A     -0.472193    41A     -0.442862    42A     -0.425423
      43A     -0.346135    44A     -0.288974

  @DF-RHF Final Energy:  -551.59076735220333

   => Energetics <=

    Nuclear Repulsion Energy =            687.5654131620112821
    One-Electron Energy =               -2115.8563665224878605
    Two-Electron Energy =                 876.7001860082732492
    Total Energy =                       -551.5907673522033292
  Basis Set: (AUG-CC-PVTZ AUX)
    Blend: AUG-CC-PVTZ-RI
    Molecular point group: c1

    Geometry (in Angstrom), charge = 0, multiplicity = 1:

       Center              X                  Y                   Z               Mass
    ------------   -----------------  -----------------  -----------------  -----------------
         O            2.412121933088     0.588531571731    -0.054884014585    15.994914619570
         O            1.566028033088    -1.545815228269     0.093244185415    15.994914619570
         N           -1.127812966912    -1.715985228269    -0.147407814585    14.003074004430
         C           -1.105254966912    -0.346720228269    -0.046468814585    12.000000000000
         C            0.118071033088     0.383812771731    -0.024336814585    12.000000000000
         C           -2.308959966912     0.392732771731    -0.043186814585    12.000000000000
         C            0.096447033088     1.787187771731     0.039562185415    12.000000000000
         C           -2.304039966912     1.779972771731     0.015577185415    12.000000000000
         C           -1.100182966912     2.490259771731     0.044353185415    12.000000000000
         C            1.412647033088    -0.325458228269     0.013806185415    12.000000000000
         C           -2.334418966912    -2.482357228269     0.077191185415    12.000000000000
         C            3.753172033088    -0.143699228269    -0.003062814585    12.000000000000
         H           -3.258789966912    -0.131531228269    -0.065443814585     1.007825032230
         H            1.042070033088     2.318281771731     0.067624185415     1.007825032230
         H           -0.238678966912    -2.165600228269     0.041737185415     1.007825032230
         H           -3.252876966912     2.312625771731     0.022711185415     1.007825032230
         H           -1.098113966912     3.575475771731     0.093495185415     1.007825032230
         H           -2.806592966912    -2.262241228269     1.044865185415     1.007825032230
         H           -2.069916966912    -3.540792228269     0.052145185415     1.007825032230
         H           -3.069904966912    -2.302154228269    -0.713711814585     1.007825032230
         H            3.859980033088    -0.828465228269    -0.845556814585     1.007825032230
         H            3.861794033088    -0.700384228269     0.928903185415     1.007825032230
         H            4.483878033088     0.660728771731    -0.061810814585     1.007825032230

  Basis Set: AUG-CC-PVTZ
    Blend: AUG-CC-PVTZ
  Basis Set: (AUG-CC-PVTZ AUX)
    Blend: AUG-CC-PVTZ-JKFIT
	 Reference Energy          =    -551.5907673522033292 [Eh]
	 Singles Energy            =      -0.0000000000000000 [Eh]
	 Same-Spin Energy          =      -0.5800383219463987 [Eh]
	 Opposite-Spin Energy      =      -1.8031669501935890 [Eh]
	 Correlation Energy        =      -2.3832052721399877 [Eh]
	 Total Energy              =    -553.9739726243433324 [Eh]

	 ================> DF-SCS-MP2 Energies <==================
	-----------------------------------------------------------
	 SCS Same-Spin Scale       =       0.3333333333333333 [-]
	 SCS Opposite-Spin Scale   =       1.2000000000000000 [-]
	 SCS Same-Spin Energy      =      -0.1933461073154662 [Eh]
	 SCS Opposite-Spin Energy  =      -2.1638003402323065 [Eh]
	 SCS Correlation Energy    =      -2.3571464475477728 [Eh]
	 SCS Total Energy          =    -553.9479137997510634 [Eh]
	-----------------------------------------------------------

  Dipole Moment: [D]
     X:     0.2162      Y:    -0.2541      Z:     0.3348     Total:     0.4727

*** Psi4 exiting successfully. Buy a developer a beer!
