                               Psi4 1.3.2 release

  ==> Input File <==

--------------------------------------------------------------------------
#psi4
#
memory 32 gb

molecule  {
0 1
  O        2.4822540     0.5405090    -0.0540980
  O        1.5746620    -1.5220150     0.0896580
  N       -1.1191790    -1.6921850    -0.1509940
  C       -1.1432829    -0.3237950    -0.0391375
  C        0.1267050     0.4076130    -0.0279230
  C       -2.3003260     0.4165330    -0.0467730
  C        0.1050810     1.8109880     0.0359760
  C       -2.2954060     1.8037730     0.0119910
  C       -1.0915490     2.5140600     0.0407670
  C        1.4212810    -0.3016580     0.0102200
  C       -2.3257850    -2.4585570     0.0736050
  C        3.7618060    -0.1198990    -0.0066490
  H       -3.2501560    -0.1077310    -0.0690300
  H        1.0507040     2.3420820     0.0640380
  H       -0.2300450    -2.1418000     0.0381510
  H       -3.2442430     2.3364260     0.0191250
  H       -1.0894800     3.5992760     0.0899090
  H       -2.7979590    -2.2384410     1.0412790
  H       -2.0612830    -3.5169920     0.0485590
  H       -3.0612710    -2.2783540    -0.7172980
  H        3.8686140    -0.8046650    -0.8491430
  H        3.8704280    -0.6765840     0.9253170
  H        4.4925120     0.6845290    -0.0653970
units angstrom
no_reorient  #important for SAPT in psi4, default
symmetry c1  #important for SAPT in psi4, default
}

set PROPERTIES_ORIGIN ["COM"]
properties('MP2/aug-cc-pvtz', properties = ['dipole'])
--------------------------------------------------------------------------

    Molecular point group: c1
  Charge       = 0
  Multiplicity = 1
  Basis Set: AUG-CC-PVTZ
    Blend: AUG-CC-PVTZ
  Basis Set: (AUG-CC-PVTZ AUX)
    Blend: AUG-CC-PVTZ-JKFIT

    Orbital Energies [Eh]
    ---------------------

    Doubly Occupied:

       1A    -20.602534     2A    -20.541493     3A    -15.562491
       4A    -11.385799     5A    -11.297198     6A    -11.284222
       7A    -11.256594     8A    -11.253788     9A    -11.251022
      10A    -11.242973    11A    -11.223921    12A    -11.223158
      13A     -1.453780    14A     -1.349606    15A     -1.245513
      16A     -1.142113    17A     -1.045163    18A     -1.012340
      19A     -0.967378    20A     -0.922249    21A     -0.867498
      22A     -0.806005    23A     -0.782988    24A     -0.728602
      25A     -0.702958    26A     -0.674471    27A     -0.668365
      28A     -0.658914    29A     -0.629067    30A     -0.619155
      31A     -0.611423    32A     -0.581527    33A     -0.575962
      34A     -0.555032    35A     -0.541609    36A     -0.536237
      37A     -0.526324    38A     -0.507174    39A     -0.496126
      40A     -0.465089    41A     -0.445629    42A     -0.427377
      43A     -0.349644    44A     -0.292140

  @DF-RHF Final Energy:  -551.59881879340253

   => Energetics <=

    Nuclear Repulsion Energy =            687.7215707188221359
    One-Electron Energy =               -2116.0154688793863897
    Two-Electron Energy =                 876.6950793671618385
    Total Energy =                       -551.5988187934025291
  Basis Set: (AUG-CC-PVTZ AUX)
    Blend: AUG-CC-PVTZ-RI
    Molecular point group: c1

    Geometry (in Angstrom), charge = 0, multiplicity = 1:

       Center              X                  Y                   Z               Mass
    ------------   -----------------  -----------------  -----------------  -----------------
         O            2.471053297684     0.523731468161    -0.051729068092    15.994914619570
         O            1.563461297684    -1.538792531839     0.092026931908    15.994914619570
         N           -1.130379702316    -1.708962531839    -0.148625068092    14.003074004430
         C           -1.154483602316    -0.340572531839    -0.036768568092    12.000000000000
         C            0.115504297684     0.390835468161    -0.025554068092    12.000000000000
         C           -2.311526702316     0.399755468161    -0.044404068092    12.000000000000
         C            0.093880297684     1.794210468161     0.038344931908    12.000000000000
         C           -2.306606702316     1.786995468161     0.014359931908    12.000000000000
         C           -1.102749702316     2.497282468161     0.043135931908    12.000000000000
         C            1.410080297684    -0.318435531839     0.012588931908    12.000000000000
         C           -2.336985702316    -2.475334531839     0.075973931908    12.000000000000
         C            3.750605297684    -0.136676531839    -0.004280068092    12.000000000000
         H           -3.261356702316    -0.124508531839    -0.066661068092     1.007825032230
         H            1.039503297684     2.325304468161     0.066406931908     1.007825032230
         H           -0.241245702316    -2.158577531839     0.040519931908     1.007825032230
         H           -3.255443702316     2.319648468161     0.021493931908     1.007825032230
         H           -1.100680702316     3.582498468161     0.092277931908     1.007825032230
         H           -2.809159702316    -2.255218531839     1.043647931908     1.007825032230
         H           -2.072483702316    -3.533769531839     0.050927931908     1.007825032230
         H           -3.072471702316    -2.295131531839    -0.714929068092     1.007825032230
         H            3.857413297684    -0.821442531839    -0.846774068092     1.007825032230
         H            3.859227297684    -0.693361531839     0.927685931908     1.007825032230
         H            4.481311297684     0.667751468161    -0.063028068092     1.007825032230

  Basis Set: AUG-CC-PVTZ
    Blend: AUG-CC-PVTZ
  Basis Set: (AUG-CC-PVTZ AUX)
    Blend: AUG-CC-PVTZ-JKFIT
	 Reference Energy          =    -551.5988187934025291 [Eh]
	 Singles Energy            =      -0.0000000000000000 [Eh]
	 Same-Spin Energy          =      -0.5789724038945854 [Eh]
	 Opposite-Spin Energy      =      -1.7998328324934556 [Eh]
	 Correlation Energy        =      -2.3788052363880410 [Eh]
	 Total Energy              =    -553.9776240297906043 [Eh]

	 ================> DF-SCS-MP2 Energies <==================
	-----------------------------------------------------------
	 SCS Same-Spin Scale       =       0.3333333333333333 [-]
	 SCS Opposite-Spin Scale   =       1.2000000000000000 [-]
	 SCS Same-Spin Energy      =      -0.1929908012981951 [Eh]
	 SCS Opposite-Spin Energy  =      -2.1597993989921465 [Eh]
	 SCS Correlation Energy    =      -2.3527902002903414 [Eh]
	 SCS Total Energy          =    -553.9516089936928438 [Eh]
	-----------------------------------------------------------

  Dipole Moment: [D]
     X:    -0.1434      Y:    -0.0412      Z:     0.3287     Total:     0.3609

*** Psi4 exiting successfully. Buy a developer a beer!
