                               Psi4 1.3.2 release

  ==> Input File <==

--------------------------------------------------------------------------
#psi4
#
memory 32 gb

molecule  {
0 1
  O        2.4822540     0.5405090    -0.0540980
  O        1.5746620    -1.5220150     0.0896580
  N       -1.1191790    -1.6921850    -0.1509940
  C       -1.0037042    -0.3294699    -0.0274732
  C        0.1267050     0.4076130    -0.0279230
  C       -2.3003260     0.4165330    -0.0467730
  C        0.1050810     1.8109880     0.0359760
  C       -2.2954060     1.8037730     0.0119910
  C       -1.0915490     2.5140600     0.0407670
  C        1.4212810    -0.3016580     0.0102200
  C       -2.3257850    -2.4585570     0.0736050
  C        3.7618060    -0.1198990    -0.0066490
  H       -3.2501560    -0.1077310    -0.0690300
  H        1.0507040     2.3420820     0.0640380
  H       -0.2300450    -2.1418000     0.0381510
  H       -3.2442430     2.3364260     0.0191250
  H       -1.0894800     3.5992760     0.0899090
  H       -2.7979590    -2.2384410     1.0412790
  H       -2.0612830    -3.5169920     0.0485590
  H       -3.0612710    -2.2783540    -0.7172980
  H        3.8686140    -0.8046650    -0.8491430
  H        3.8704280    -0.6765840     0.9253170
  H        4.4925120     0.6845290    -0.0653970
units angstrom
no_reorient  #important for SAPT in psi4, default
symmetry c1  #important for SAPT in psi4, default
}

set PROPERTIES_ORIGIN ["COM"]
properties('MP2/aug-cc-pvtz', properties = ['dipole'])
--------------------------------------------------------------------------

    Molecular point group: c1
  Charge       = 0
  Multiplicity = 1
  Basis Set: AUG-CC-PVTZ
    Blend: AUG-CC-PVTZ
  Basis Set: (AUG-CC-PVTZ AUX)
    Blend: AUG-CC-PVTZ-JKFIT

    Orbital Energies [Eh]
    ---------------------

    Doubly Occupied:

       1A    -20.603193     2A    -20.542489     3A    -15.563971
       4A    -11.385163     5A    -11.298935     6A    -11.284457
       7A    -11.261475     8A    -11.247974     9A    -11.247584
      10A    -11.235685    11A    -11.232964    12A    -11.223617
      13A     -1.454687    14A     -1.350923    15A     -1.245906
      16A     -1.143286    17A     -1.050717    18A     -1.004021
      19A     -0.969656    20A     -0.925509    21A     -0.858492
      22A     -0.816511    23A     -0.783993    24A     -0.728699
      25A     -0.696122    26A     -0.670950    27A     -0.669071
      28A     -0.663504    29A     -0.632674    30A     -0.613107
      31A     -0.610912    32A     -0.585625    33A     -0.576264
      34A     -0.557823    35A     -0.542781    36A     -0.534143
      37A     -0.517924    38A     -0.507898    39A     -0.505236
      40A     -0.465778    41A     -0.441008    42A     -0.428616
      43A     -0.350444    44A     -0.290725

  @DF-RHF Final Energy:  -551.59053854869717

   => Energetics <=

    Nuclear Repulsion Energy =            688.5638626242707687
    One-Electron Energy =               -2117.6677750099383957
    Two-Electron Energy =                 877.5133738369704588
    Total Energy =                       -551.5905385486971682
  Basis Set: (AUG-CC-PVTZ AUX)
    Blend: AUG-CC-PVTZ-RI
    Molecular point group: c1

    Geometry (in Angstrom), charge = 0, multiplicity = 1:

       Center              X                  Y                   Z               Mass
    ------------   -----------------  -----------------  -----------------  -----------------
         O            2.460906976122     0.524143990704    -0.052576974962    15.994914619570
         O            1.553314976122    -1.538380009296     0.091179025038    15.994914619570
         N           -1.140526023878    -1.708550009296    -0.149472974962    14.003074004430
         C           -1.025051223878    -0.345834909296    -0.025952174962    12.000000000000
         C            0.105357976122     0.391247990704    -0.026401974962    12.000000000000
         C           -2.321673023878     0.400167990704    -0.045251974962    12.000000000000
         C            0.083733976122     1.794622990704     0.037497025038    12.000000000000
         C           -2.316753023878     1.787407990704     0.013512025038    12.000000000000
         C           -1.112896023878     2.497694990704     0.042288025038    12.000000000000
         C            1.399933976122    -0.318023009296     0.011741025038    12.000000000000
         C           -2.347132023878    -2.474922009296     0.075126025038    12.000000000000
         C            3.740458976122    -0.136264009296    -0.005127974962    12.000000000000
         H           -3.271503023878    -0.124096009296    -0.067508974962     1.007825032230
         H            1.029356976122     2.325716990704     0.065559025038     1.007825032230
         H           -0.251392023878    -2.158165009296     0.039672025038     1.007825032230
         H           -3.265590023878     2.320060990704     0.020646025038     1.007825032230
         H           -1.110827023878     3.582910990704     0.091430025038     1.007825032230
         H           -2.819306023878    -2.254806009296     1.042800025038     1.007825032230
         H           -2.082630023878    -3.533357009296     0.050080025038     1.007825032230
         H           -3.082618023878    -2.294719009296    -0.715776974962     1.007825032230
         H            3.847266976122    -0.821030009296    -0.847621974962     1.007825032230
         H            3.849080976122    -0.692949009296     0.926838025038     1.007825032230
         H            4.471164976122     0.668163990704    -0.063875974962     1.007825032230

  Basis Set: AUG-CC-PVTZ
    Blend: AUG-CC-PVTZ
  Basis Set: (AUG-CC-PVTZ AUX)
    Blend: AUG-CC-PVTZ-JKFIT
	 Reference Energy          =    -551.5905385486971682 [Eh]
	 Singles Energy            =      -0.0000000000000000 [Eh]
	 Same-Spin Energy          =      -0.5787336458141772 [Eh]
	 Opposite-Spin Energy      =      -1.8007029216733317 [Eh]
	 Correlation Energy        =      -2.3794365674875086 [Eh]
	 Total Energy              =    -553.9699751161846280 [Eh]

	 ================> DF-SCS-MP2 Energies <==================
	-----------------------------------------------------------
	 SCS Same-Spin Scale       =       0.3333333333333333 [-]
	 SCS Opposite-Spin Scale   =       1.2000000000000000 [-]
	 SCS Same-Spin Energy      =      -0.1929112152713924 [Eh]
	 SCS Opposite-Spin Energy  =      -2.1608435060079980 [Eh]
	 SCS Correlation Energy    =      -2.3537547212793903 [Eh]
	 SCS Total Energy          =    -553.9442932699765834 [Eh]
	-----------------------------------------------------------

  Dipole Moment: [D]
     X:    -0.2102      Y:    -0.1719      Z:     0.3385     Total:     0.4339

*** Psi4 exiting successfully. Buy a developer a beer!
