                               Psi4 1.3.2 release

  ==> Input File <==

--------------------------------------------------------------------------
#psi4
#
memory 32 gb

molecule  {
0 1
  O        2.4767527     0.5278610    -0.0751224
  O        1.5746620    -1.5220150     0.0896580
  N       -1.1191790    -1.6921850    -0.1509940
  C       -1.0966210    -0.3229200    -0.0500550
  C        0.1267050     0.4076130    -0.0279230
  C       -2.3003260     0.4165330    -0.0467730
  C        0.1050810     1.8109880     0.0359760
  C       -2.2954060     1.8037730     0.0119910
  C       -1.0915490     2.5140600     0.0407670
  C        1.4212810    -0.3016580     0.0102200
  C       -2.3257850    -2.4585570     0.0736050
  C        3.7618060    -0.1198990    -0.0066490
  H       -3.2501560    -0.1077310    -0.0690300
  H        1.0507040     2.3420820     0.0640380
  H       -0.2300450    -2.1418000     0.0381510
  H       -3.2442430     2.3364260     0.0191250
  H       -1.0894800     3.5992760     0.0899090
  H       -2.7979590    -2.2384410     1.0412790
  H       -2.0612830    -3.5169920     0.0485590
  H       -3.0612710    -2.2783540    -0.7172980
  H        3.8686140    -0.8046650    -0.8491430
  H        3.8704280    -0.6765840     0.9253170
  H        4.4925120     0.6845290    -0.0653970
units angstrom
no_reorient  #important for SAPT in psi4, default
symmetry c1  #important for SAPT in psi4, default
}

set PROPERTIES_ORIGIN ["COM"]
properties('MP2/aug-cc-pvtz', properties = ['dipole'])
--------------------------------------------------------------------------

    Molecular point group: c1
  Charge       = 0
  Multiplicity = 1
  Basis Set: AUG-CC-PVTZ
    Blend: AUG-CC-PVTZ
  Basis Set: (AUG-CC-PVTZ AUX)
    Blend: AUG-CC-PVTZ-JKFIT

    Orbital Energies [Eh]
    ---------------------

    Doubly Occupied:

       1A    -20.603091     2A    -20.539808     3A    -15.562677
       4A    -11.384266     5A    -11.298009     6A    -11.285340
       7A    -11.258090     8A    -11.251484     9A    -11.249846
      10A    -11.239389    11A    -11.227340    12A    -11.223254
      13A     -1.457673    14A     -1.349384    15A     -1.245194
      16A     -1.141855    17A     -1.046216    18A     -1.009382
      19A     -0.970460    20A     -0.923030    21A     -0.864198
      22A     -0.808885    23A     -0.784538    24A     -0.729589
      25A     -0.699659    26A     -0.673909    27A     -0.670446
      28A     -0.660828    29A     -0.629626    30A     -0.616033
      31A     -0.611677    32A     -0.582926    33A     -0.577737
      34A     -0.555837    35A     -0.541819    36A     -0.534944
      37A     -0.524010    38A     -0.506804    39A     -0.501100
      40A     -0.464702    41A     -0.444222    42A     -0.427224
      43A     -0.349203    44A     -0.291200

  @DF-RHF Final Energy:  -551.60240126477584

   => Energetics <=

    Nuclear Repulsion Energy =            688.2909065381377332
    One-Electron Energy =               -2117.1528024007907334
    Two-Electron Energy =                 877.2594945978771648
    Total Energy =                       -551.6024012647758354
  Basis Set: (AUG-CC-PVTZ AUX)
    Blend: AUG-CC-PVTZ-RI
    Molecular point group: c1

    Geometry (in Angstrom), charge = 0, multiplicity = 1:

       Center              X                  Y                   Z               Mass
    ------------   -----------------  -----------------  -----------------  -----------------
         O            2.462693063251     0.512245358559    -0.069922741328    15.994914619570
         O            1.560602363251    -1.537630641441     0.094857658672    15.994914619570
         N           -1.133238636749    -1.707800641441    -0.145794341328    14.003074004430
         C           -1.110680636749    -0.338535641441    -0.044855341328    12.000000000000
         C            0.112645363251     0.391997358559    -0.022723341328    12.000000000000
         C           -2.314385636749     0.400917358559    -0.041573341328    12.000000000000
         C            0.091021363251     1.795372358559     0.041175658672    12.000000000000
         C           -2.309465636749     1.788157358559     0.017190658672    12.000000000000
         C           -1.105608636749     2.498444358559     0.045966658672    12.000000000000
         C            1.407221363251    -0.317273641441     0.015419658672    12.000000000000
         C           -2.339844636749    -2.474172641441     0.078804658672    12.000000000000
         C            3.747746363251    -0.135514641441    -0.001449341328    12.000000000000
         H           -3.264215636749    -0.123346641441    -0.063830341328     1.007825032230
         H            1.036644363251     2.326466358559     0.069237658672     1.007825032230
         H           -0.244104636749    -2.157415641441     0.043350658672     1.007825032230
         H           -3.258302636749     2.320810358559     0.024324658672     1.007825032230
         H           -1.103539636749     3.583660358559     0.095108658672     1.007825032230
         H           -2.812018636749    -2.254056641441     1.046478658672     1.007825032230
         H           -2.075342636749    -3.532607641441     0.053758658672     1.007825032230
         H           -3.075330636749    -2.293969641441    -0.712098341328     1.007825032230
         H            3.854554363251    -0.820280641441    -0.843943341328     1.007825032230
         H            3.856368363251    -0.692199641441     0.930516658672     1.007825032230
         H            4.478452363251     0.668913358559    -0.060197341328     1.007825032230

  Basis Set: AUG-CC-PVTZ
    Blend: AUG-CC-PVTZ
  Basis Set: (AUG-CC-PVTZ AUX)
    Blend: AUG-CC-PVTZ-JKFIT
	 Reference Energy          =    -551.6024012647758354 [Eh]
	 Singles Energy            =      -0.0000000000000000 [Eh]
	 Same-Spin Energy          =      -0.5787427869317028 [Eh]
	 Opposite-Spin Energy      =      -1.7993492948594840 [Eh]
	 Correlation Energy        =      -2.3780920817911868 [Eh]
	 Total Energy              =    -553.9804933465670729 [Eh]

	 ================> DF-SCS-MP2 Energies <==================
	-----------------------------------------------------------
	 SCS Same-Spin Scale       =       0.3333333333333333 [-]
	 SCS Opposite-Spin Scale   =       1.2000000000000000 [-]
	 SCS Same-Spin Energy      =      -0.1929142623105676 [Eh]
	 SCS Opposite-Spin Energy  =      -2.1592191538313807 [Eh]
	 SCS Correlation Energy    =      -2.3521334161419483 [Eh]
	 SCS Total Energy          =    -553.9545346809177317 [Eh]
	-----------------------------------------------------------

  Dipole Moment: [D]
     X:    -0.1014      Y:    -0.0565      Z:     0.3496     Total:     0.3684

*** Psi4 exiting successfully. Buy a developer a beer!
