                               Psi4 1.3.2 release

  ==> Input File <==

--------------------------------------------------------------------------
#psi4
#
memory 32 gb

molecule  {
0 1
  O        2.4822540     0.5405090    -0.0540980
  O        1.5746620    -1.5220150     0.0896580
  N       -1.1191790    -1.6921850    -0.1509940
  C       -1.0966210    -0.3229200    -0.0500550
  C        0.1267050     0.4076130    -0.0279230
  C       -2.3003260     0.4165330    -0.0467730
  C        0.1050810     1.8109880     0.0359760
  C       -2.2954060     1.8037730     0.0119910
  C       -1.0915490     2.5140600     0.0407670
  C        1.4212810    -0.3016580     0.0102200
  C       -2.3116899    -2.4781742     0.0809702
  C        3.7618060    -0.1198990    -0.0066490
  H       -3.2501560    -0.1077310    -0.0690300
  H        1.0507040     2.3420820     0.0640380
  H       -0.2300450    -2.1418000     0.0381510
  H       -3.2442430     2.3364260     0.0191250
  H       -1.0894800     3.5992760     0.0899090
  H       -2.7979590    -2.2384410     1.0412790
  H       -2.0612830    -3.5169920     0.0485590
  H       -3.0612710    -2.2783540    -0.7172980
  H        3.8686140    -0.8046650    -0.8491430
  H        3.8704280    -0.6765840     0.9253170
  H        4.4925120     0.6845290    -0.0653970
units angstrom
no_reorient  #important for SAPT in psi4, default
symmetry c1  #important for SAPT in psi4, default
}

set PROPERTIES_ORIGIN ["COM"]
properties('MP2/aug-cc-pvtz', properties = ['dipole'])
--------------------------------------------------------------------------

    Molecular point group: c1
  Charge       = 0
  Multiplicity = 1
  Basis Set: AUG-CC-PVTZ
    Blend: AUG-CC-PVTZ
  Basis Set: (AUG-CC-PVTZ AUX)
    Blend: AUG-CC-PVTZ-JKFIT

    Orbital Energies [Eh]
    ---------------------

    Doubly Occupied:

       1A    -20.602760     2A    -20.541728     3A    -15.563032
       4A    -11.385620     5A    -11.298833     6A    -11.284315
       7A    -11.258520     8A    -11.251779     9A    -11.250073
      10A    -11.239945    11A    -11.227659    12A    -11.223505
      13A     -1.454056    14A     -1.349963    15A     -1.245397
      16A     -1.142236    17A     -1.046129    18A     -1.010173
      19A     -0.968448    20A     -0.923073    21A     -0.864564
      22A     -0.809047    23A     -0.784426    24A     -0.728644
      25A     -0.700331    26A     -0.673349    27A     -0.668624
      28A     -0.661244    29A     -0.629505    30A     -0.616938
      31A     -0.608718    32A     -0.583692    33A     -0.576523
      34A     -0.555395    35A     -0.545971    36A     -0.535331
      37A     -0.524847    38A     -0.506426    39A     -0.501089
      40A     -0.465261    41A     -0.444482    42A     -0.426416
      43A     -0.349452    44A     -0.291383

  @DF-RHF Final Energy:  -551.60100659934369

   => Energetics <=

    Nuclear Repulsion Energy =            687.8768580899583185
    One-Electron Energy =               -2116.3179231048588917
    Two-Electron Energy =                 876.8400584155569959
    Total Energy =                       -551.6010065993436911
  Basis Set: (AUG-CC-PVTZ AUX)
    Blend: AUG-CC-PVTZ-RI
    Molecular point group: c1

    Geometry (in Angstrom), charge = 0, multiplicity = 1:

       Center              X                  Y                   Z               Mass
    ------------   -----------------  -----------------  -----------------  -----------------
         O            2.466636720806     0.525093885120    -0.051470842603    15.994914619570
         O            1.559044720806    -1.537430114880     0.092285157397    15.994914619570
         N           -1.134796279194    -1.707600114880    -0.148366842603    14.003074004430
         C           -1.112238279194    -0.338335114880    -0.047427842603    12.000000000000
         C            0.111087720806     0.392197885120    -0.025295842603    12.000000000000
         C           -2.315943279194     0.401117885120    -0.044145842603    12.000000000000
         C            0.089463720806     1.795572885120     0.038603157397    12.000000000000
         C           -2.311023279194     1.788357885120     0.014618157397    12.000000000000
         C           -1.107166279194     2.498644885120     0.043394157397    12.000000000000
         C            1.405663720806    -0.317073114880     0.012847157397    12.000000000000
         C           -2.327307179194    -2.493589314880     0.083597357397    12.000000000000
         C            3.746188720806    -0.135314114880    -0.004021842603    12.000000000000
         H           -3.265773279194    -0.123146114880    -0.066402842603     1.007825032230
         H            1.035086720806     2.326666885120     0.066665157397     1.007825032230
         H           -0.245662279194    -2.157215114880     0.040778157397     1.007825032230
         H           -3.259860279194     2.321010885120     0.021752157397     1.007825032230
         H           -1.105097279194     3.583860885120     0.092536157397     1.007825032230
         H           -2.813576279194    -2.253856114880     1.043906157397     1.007825032230
         H           -2.076900279194    -3.532407114880     0.051186157397     1.007825032230
         H           -3.076888279194    -2.293769114880    -0.714670842603     1.007825032230
         H            3.852996720806    -0.820080114880    -0.846515842603     1.007825032230
         H            3.854810720806    -0.691999114880     0.927944157397     1.007825032230
         H            4.476894720806     0.669113885120    -0.062769842603     1.007825032230

  Basis Set: AUG-CC-PVTZ
    Blend: AUG-CC-PVTZ
  Basis Set: (AUG-CC-PVTZ AUX)
    Blend: AUG-CC-PVTZ-JKFIT
	 Reference Energy          =    -551.6010065993436911 [Eh]
	 Singles Energy            =      -0.0000000000000000 [Eh]
	 Same-Spin Energy          =      -0.5788869462079106 [Eh]
	 Opposite-Spin Energy      =      -1.7998236223872572 [Eh]
	 Correlation Energy        =      -2.3787105685951677 [Eh]
	 Total Energy              =    -553.9797171679388157 [Eh]

	 ================> DF-SCS-MP2 Energies <==================
	-----------------------------------------------------------
	 SCS Same-Spin Scale       =       0.3333333333333333 [-]
	 SCS Opposite-Spin Scale   =       1.2000000000000000 [-]
	 SCS Same-Spin Energy      =      -0.1929623154026369 [Eh]
	 SCS Opposite-Spin Energy  =      -2.1597883468647088 [Eh]
	 SCS Correlation Energy    =      -2.3527506622673457 [Eh]
	 SCS Total Energy          =    -553.9537572616110310 [Eh]
	-----------------------------------------------------------

  Dipole Moment: [D]
     X:    -0.1547      Y:    -0.0998      Z:     0.3343     Total:     0.3816

*** Psi4 exiting successfully. Buy a developer a beer!
