                               Psi4 1.3.2 release

  ==> Input File <==

--------------------------------------------------------------------------
#psi4
#
memory 32 gb

molecule  {
0 1
  O        2.4822540     0.5405090    -0.0540980
  O        1.5532959    -1.5244909     0.0899635
  N       -1.1191790    -1.6921850    -0.1509940
  C       -1.0966210    -0.3229200    -0.0500550
  C        0.1267050     0.4076130    -0.0279230
  C       -2.3003260     0.4165330    -0.0467730
  C        0.1050810     1.8109880     0.0359760
  C       -2.2954060     1.8037730     0.0119910
  C       -1.0915490     2.5140600     0.0407670
  C        1.4212810    -0.3016580     0.0102200
  C       -2.3257850    -2.4585570     0.0736050
  C        3.7618060    -0.1198990    -0.0066490
  H       -3.2501560    -0.1077310    -0.0690300
  H        1.0507040     2.3420820     0.0640380
  H       -0.2300450    -2.1418000     0.0381510
  H       -3.2442430     2.3364260     0.0191250
  H       -1.0894800     3.5992760     0.0899090
  H       -2.7979590    -2.2384410     1.0412790
  H       -2.0612830    -3.5169920     0.0485590
  H       -3.0612710    -2.2783540    -0.7172980
  H        3.8686140    -0.8046650    -0.8491430
  H        3.8704280    -0.6765840     0.9253170
  H        4.4925120     0.6845290    -0.0653970
units angstrom
no_reorient  #important for SAPT in psi4, default
symmetry c1  #important for SAPT in psi4, default
}

set PROPERTIES_ORIGIN ["COM"]
properties('MP2/aug-cc-pvtz', properties = ['dipole'])
--------------------------------------------------------------------------

    Molecular point group: c1
  Charge       = 0
  Multiplicity = 1
  Basis Set: AUG-CC-PVTZ
    Blend: AUG-CC-PVTZ
  Basis Set: (AUG-CC-PVTZ AUX)
    Blend: AUG-CC-PVTZ-JKFIT

    Orbital Energies [Eh]
    ---------------------

    Doubly Occupied:

       1A    -20.604368     2A    -20.542342     3A    -15.562146
       4A    -11.386024     5A    -11.297730     6A    -11.285348
       7A    -11.257804     8A    -11.251255     9A    -11.249417
      10A    -11.238891    11A    -11.227096    12A    -11.222947
      13A     -1.454286    14A     -1.351906    15A     -1.244772
      16A     -1.141548    17A     -1.045612    18A     -1.009098
      19A     -0.969026    20A     -0.922755    21A     -0.864092
      22A     -0.808661    23A     -0.785087    24A     -0.728637
      25A     -0.699425    26A     -0.674114    27A     -0.669411
      28A     -0.660875    29A     -0.629112    30A     -0.616037
      31A     -0.611375    32A     -0.582527    33A     -0.576791
      34A     -0.556616    35A     -0.541487    36A     -0.535479
      37A     -0.525539    38A     -0.506472    39A     -0.500771
      40A     -0.466348    41A     -0.444428    42A     -0.426878
      43A     -0.348890    44A     -0.290903

  @DF-RHF Final Energy:  -551.60149545473041

   => Energetics <=

    Nuclear Repulsion Energy =            688.1391050447718953
    One-Electron Energy =               -2116.8525486324933809
    Two-Electron Energy =                 877.1119481329910741
    Total Energy =                       -551.6014954547304114
  Basis Set: (AUG-CC-PVTZ AUX)
    Blend: AUG-CC-PVTZ-RI
    Molecular point group: c1

    Geometry (in Angstrom), charge = 0, multiplicity = 1:

       Center              X                  Y                   Z               Mass
    ------------   -----------------  -----------------  -----------------  -----------------
         O            2.469731543354     0.523907758379    -0.050965048623    15.994914619570
         O            1.540773443354    -1.541092141621     0.093096451377    15.994914619570
         N           -1.131701456646    -1.708786241621    -0.147861048623    14.003074004430
         C           -1.109143456646    -0.339521241621    -0.046922048623    12.000000000000
         C            0.114182543354     0.391011758379    -0.024790048623    12.000000000000
         C           -2.312848456646     0.399931758379    -0.043640048623    12.000000000000
         C            0.092558543354     1.794386758379     0.039108951377    12.000000000000
         C           -2.307928456646     1.787171758379     0.015123951377    12.000000000000
         C           -1.104071456646     2.497458758379     0.043899951377    12.000000000000
         C            1.408758543354    -0.318259241621     0.013352951377    12.000000000000
         C           -2.338307456646    -2.475158241621     0.076737951377    12.000000000000
         C            3.749283543354    -0.136500241621    -0.003516048623    12.000000000000
         H           -3.262678456646    -0.124332241621    -0.065897048623     1.007825032230
         H            1.038181543354     2.325480758379     0.067170951377     1.007825032230
         H           -0.242567456646    -2.158401241621     0.041283951377     1.007825032230
         H           -3.256765456646     2.319824758379     0.022257951377     1.007825032230
         H           -1.102002456646     3.582674758379     0.093041951377     1.007825032230
         H           -2.810481456646    -2.255042241621     1.044411951377     1.007825032230
         H           -2.073805456646    -3.533593241621     0.051691951377     1.007825032230
         H           -3.073793456646    -2.294955241621    -0.714165048623     1.007825032230
         H            3.856091543354    -0.821266241621    -0.846010048623     1.007825032230
         H            3.857905543354    -0.693185241621     0.928449951377     1.007825032230
         H            4.479989543354     0.667927758379    -0.062264048623     1.007825032230

  Basis Set: AUG-CC-PVTZ
    Blend: AUG-CC-PVTZ
  Basis Set: (AUG-CC-PVTZ AUX)
    Blend: AUG-CC-PVTZ-JKFIT
	 Reference Energy          =    -551.6014954547304114 [Eh]
	 Singles Energy            =      -0.0000000000000000 [Eh]
	 Same-Spin Energy          =      -0.5789869661592373 [Eh]
	 Opposite-Spin Energy      =      -1.7999457408294801 [Eh]
	 Correlation Energy        =      -2.3789327069887172 [Eh]
	 Total Energy              =    -553.9804281617191464 [Eh]

	 ================> DF-SCS-MP2 Energies <==================
	-----------------------------------------------------------
	 SCS Same-Spin Scale       =       0.3333333333333333 [-]
	 SCS Opposite-Spin Scale   =       1.2000000000000000 [-]
	 SCS Same-Spin Energy      =      -0.1929956553864124 [Eh]
	 SCS Opposite-Spin Energy  =      -2.1599348889953762 [Eh]
	 SCS Correlation Energy    =      -2.3529305443817887 [Eh]
	 SCS Total Energy          =    -553.9544259991122317 [Eh]
	-----------------------------------------------------------

  Dipole Moment: [D]
     X:    -0.0841      Y:    -0.0993      Z:     0.3263     Total:     0.3513

*** Psi4 exiting successfully. Buy a developer a beer!
