                               Psi4 1.3.2 release

  ==> Input File <==

--------------------------------------------------------------------------
#psi4
#
memory 32 gb

molecule  {
0 1
  O        2.4822540     0.5405090    -0.0540980
  O        1.5746620    -1.5220150     0.0896580
  N       -1.1191790    -1.6921850    -0.1509940
  C       -1.0966210    -0.3229200    -0.0500550
  C        0.1267050     0.4076130    -0.0279230
  C       -2.3003260     0.4165330    -0.0467730
  C        0.1050810     1.8109880     0.0359760
  C       -2.2954060     1.8037730     0.0119910
  C       -1.0915490     2.5140600     0.0407670
  C        1.4212810    -0.3016580     0.0102200
  C       -2.1590060    -2.3526278     0.0425606
  C        3.7618060    -0.1198990    -0.0066490
  H       -3.2501560    -0.1077310    -0.0690300
  H        1.0507040     2.3420820     0.0640380
  H       -0.2300450    -2.1418000     0.0381510
  H       -3.2442430     2.3364260     0.0191250
  H       -1.0894800     3.5992760     0.0899090
  H       -2.7979590    -2.2384410     1.0412790
  H       -2.0612830    -3.5169920     0.0485590
  H       -3.0612710    -2.2783540    -0.7172980
  H        3.8686140    -0.8046650    -0.8491430
  H        3.8704280    -0.6765840     0.9253170
  H        4.4925120     0.6845290    -0.0653970
units angstrom
no_reorient  #important for SAPT in psi4, default
symmetry c1  #important for SAPT in psi4, default
}

set PROPERTIES_ORIGIN ["COM"]
properties('MP2/aug-cc-pvtz', properties = ['dipole'])
--------------------------------------------------------------------------

    Molecular point group: c1
  Charge       = 0
  Multiplicity = 1
  Basis Set: AUG-CC-PVTZ
    Blend: AUG-CC-PVTZ
  Basis Set: (AUG-CC-PVTZ AUX)
    Blend: AUG-CC-PVTZ-JKFIT

    Orbital Energies [Eh]
    ---------------------

    Doubly Occupied:

       1A    -20.607375     2A    -20.547720     3A    -15.564887
       4A    -11.391461     5A    -11.302881     6A    -11.287599
       7A    -11.263443     8A    -11.255446     9A    -11.254368
      10A    -11.247502    11A    -11.232865    12A    -11.230039
      13A     -1.459030    14A     -1.355851    15A     -1.302572
      16A     -1.155508    17A     -1.052057    18A     -1.023515
      19A     -0.972462    20A     -0.910585    21A     -0.871391
      22A     -0.810337    23A     -0.790792    24A     -0.738051
      25A     -0.714952    26A     -0.694476    27A     -0.678632
      28A     -0.672899    29A     -0.641126    30A     -0.620341
      31A     -0.618667    32A     -0.606784    33A     -0.580769
      34A     -0.557116    35A     -0.540392    36A     -0.530924
      37A     -0.508309    38A     -0.501316    39A     -0.489557
      40A     -0.469593    41A     -0.445860    42A     -0.405118
      43A     -0.352803    44A     -0.296843

  @DF-RHF Final Energy:  -551.55046500876881

   => Energetics <=

    Nuclear Repulsion Energy =            692.2852033862649250
    One-Electron Energy =               -2124.5629041246593260
    Two-Electron Energy =                 880.7272357296254768
    Total Energy =                       -551.5504650087688105
  Basis Set: (AUG-CC-PVTZ AUX)
    Blend: AUG-CC-PVTZ-RI
    Molecular point group: c1

    Geometry (in Angstrom), charge = 0, multiplicity = 1:

       Center              X                  Y                   Z               Mass
    ------------   -----------------  -----------------  -----------------  -----------------
         O            2.455537749783     0.515967606215    -0.048678753605    15.994914619570
         O            1.547945749783    -1.546556393785     0.095077246395    15.994914619570
         N           -1.145895250217    -1.716726393785    -0.145574753605    14.003074004430
         C           -1.123337250217    -0.347461393785    -0.044635753605    12.000000000000
         C            0.099988749783     0.383071606215    -0.022503753605    12.000000000000
         C           -2.327042250217     0.391991606215    -0.041353753605    12.000000000000
         C            0.078364749783     1.786446606215     0.041395246395    12.000000000000
         C           -2.322122250217     1.779231606215     0.017410246395    12.000000000000
         C           -1.118265250217     2.489518606215     0.046186246395    12.000000000000
         C            1.394564749783    -0.326199393785     0.015639246395    12.000000000000
         C           -2.185722250217    -2.377169193785     0.047979846395    12.000000000000
         C            3.735089749783    -0.144440393785    -0.001229753605    12.000000000000
         H           -3.276872250217    -0.132272393785    -0.063610753605     1.007825032230
         H            1.023987749783     2.317540606215     0.069457246395     1.007825032230
         H           -0.256761250217    -2.166341393785     0.043570246395     1.007825032230
         H           -3.270959250217     2.311884606215     0.024544246395     1.007825032230
         H           -1.116196250217     3.574734606215     0.095328246395     1.007825032230
         H           -2.824675250217    -2.262982393785     1.046698246395     1.007825032230
         H           -2.087999250217    -3.541533393785     0.053978246395     1.007825032230
         H           -3.087987250217    -2.302895393785    -0.711878753605     1.007825032230
         H            3.841897749783    -0.829206393785    -0.843723753605     1.007825032230
         H            3.843711749783    -0.701125393785     0.930736246395     1.007825032230
         H            4.465795749783     0.659987606215    -0.059977753605     1.007825032230

  Basis Set: AUG-CC-PVTZ
    Blend: AUG-CC-PVTZ
  Basis Set: (AUG-CC-PVTZ AUX)
    Blend: AUG-CC-PVTZ-JKFIT
	 Reference Energy          =    -551.5504650087688105 [Eh]
	 Singles Energy            =      -0.0000000000000000 [Eh]
	 Same-Spin Energy          =      -0.5817317408021029 [Eh]
	 Opposite-Spin Energy      =      -1.8022048589188557 [Eh]
	 Correlation Energy        =      -2.3839365997209585 [Eh]
	 Total Energy              =    -553.9344016084897930 [Eh]

	 ================> DF-SCS-MP2 Energies <==================
	-----------------------------------------------------------
	 SCS Same-Spin Scale       =       0.3333333333333333 [-]
	 SCS Opposite-Spin Scale   =       1.2000000000000000 [-]
	 SCS Same-Spin Energy      =      -0.1939105802673676 [Eh]
	 SCS Opposite-Spin Energy  =      -2.1626458307026266 [Eh]
	 SCS Correlation Energy    =      -2.3565564109699944 [Eh]
	 SCS Total Energy          =    -553.9070214197388395 [Eh]
	-----------------------------------------------------------

  Dipole Moment: [D]
     X:     0.5851      Y:     0.5903      Z:     0.1895     Total:     0.8525

*** Psi4 exiting successfully. Buy a developer a beer!
