                               Psi4 1.4a3.dev225

  ==> Input File <==

--------------------------------------------------------------------------
#psi4
#
memory 32 gb

molecule  {
0 1
  O        2.4822540     0.5405090    -0.0540980
  O        1.5746620    -1.5220150     0.0896580
  N       -1.1191790    -1.6921850    -0.1509940
  C       -1.0966210    -0.3229200    -0.0500550
  C        0.1267050     0.4076130    -0.0279230
  C       -2.3003260     0.4165330    -0.0467730
  C        0.1050810     1.8109880     0.0359760
  C       -2.2954060     1.8037730     0.0119910
  C       -1.0915490     2.5140600     0.0407670
  C        1.4187921    -0.2818554     0.0089310
  C       -2.3257850    -2.4585570     0.0736050
  C        3.7618060    -0.1198990    -0.0066490
  H       -3.2501560    -0.1077310    -0.0690300
  H        1.0507040     2.3420820     0.0640380
  H       -0.2300450    -2.1418000     0.0381510
  H       -3.2442430     2.3364260     0.0191250
  H       -1.0894800     3.5992760     0.0899090
  H       -2.7979590    -2.2384410     1.0412790
  H       -2.0612830    -3.5169920     0.0485590
  H       -3.0612710    -2.2783540    -0.7172980
  H        3.8686140    -0.8046650    -0.8491430
  H        3.8704280    -0.6765840     0.9253170
  H        4.4925120     0.6845290    -0.0653970
units angstrom
no_reorient  #important for SAPT in psi4, default
symmetry c1  #important for SAPT in psi4, default
}

set PROPERTIES_ORIGIN ["COM"]
properties('MP2/aug-cc-pvtz', properties = ['dipole'])
--------------------------------------------------------------------------

    Molecular point group: c1
  Charge       = 0
  Multiplicity = 1
  Basis Set: AUG-CC-PVTZ
    Blend: AUG-CC-PVTZ
  Basis Set: (AUG-CC-PVTZ AUX)
    Blend: AUG-CC-PVTZ-JKFIT

    Orbital Energies [Eh]
    ---------------------

    Doubly Occupied:

       1A    -20.605003     2A    -20.537011     3A    -15.563141
       4A    -11.385861     5A    -11.299565     6A    -11.285351
       7A    -11.258288     8A    -11.252818     9A    -11.250876
      10A    -11.239557    11A    -11.228188    12A    -11.223956
      13A     -1.454144    14A     -1.339199    15A     -1.245434
      16A     -1.143174    17A     -1.048473    18A     -1.010218
      19A     -0.970784    20A     -0.923625    21A     -0.866116
      22A     -0.809858    23A     -0.784869    24A     -0.729727
      25A     -0.699591    26A     -0.671331    27A     -0.669421
      28A     -0.660388    29A     -0.630116    30A     -0.616152
      31A     -0.611911    32A     -0.583080    33A     -0.577198
      34A     -0.553588    35A     -0.542103    36A     -0.534515
      37A     -0.523550    38A     -0.506424    39A     -0.501250
      40A     -0.461984    41A     -0.443261    42A     -0.427539
      43A     -0.350237    44A     -0.291975

  @DF-RHF Final Energy:  -551.59982662554944

   => Energetics <=

    Nuclear Repulsion Energy =            687.9775732920771816
    One-Electron Energy =               -2116.5331029011049395
    Two-Electron Energy =                 876.9557029834784316
    Total Energy =                       -551.5998266255494400
  Basis Set: (AUG-CC-PVTZ AUX)
    Blend: AUG-CC-PVTZ-RI
    Molecular point group: c1

    Geometry (in Angstrom), charge = 0, multiplicity = 1:

       Center              X                  Y                   Z               Mass
    ------------   -----------------  -----------------  -----------------  -----------------
         O            2.467842252859     0.522228362181    -0.050841747361    15.994914619570
         O            1.560250252859    -1.540295637819     0.092914252639    15.994914619570
         N           -1.133590747141    -1.710465637819    -0.147737747361    14.003074004430
         C           -1.111032747141    -0.341200637819    -0.046798747361    12.000000000000
         C            0.112293252859     0.389332362181    -0.024666747361    12.000000000000
         C           -2.314737747141     0.398252362181    -0.043516747361    12.000000000000
         C            0.090669252859     1.792707362181     0.039232252639    12.000000000000
         C           -2.309817747141     1.785492362181     0.015247252639    12.000000000000
         C           -1.105960747141     2.495779362181     0.044023252639    12.000000000000
         C            1.404380352859    -0.300136037819     0.012187252639    12.000000000000
         C           -2.340196747141    -2.476837637819     0.076861252639    12.000000000000
         C            3.747394252859    -0.138179637819    -0.003392747361    12.000000000000
         H           -3.264567747141    -0.126011637819    -0.065773747361     1.007825032230
         H            1.036292252859     2.323801362181     0.067294252639     1.007825032230
         H           -0.244456747141    -2.160080637819     0.041407252639     1.007825032230
         H           -3.258654747141     2.318145362181     0.022381252639     1.007825032230
         H           -1.103891747141     3.580995362181     0.093165252639     1.007825032230
         H           -2.812370747141    -2.256721637819     1.044535252639     1.007825032230
         H           -2.075694747141    -3.535272637819     0.051815252639     1.007825032230
         H           -3.075682747141    -2.296634637819    -0.714041747361     1.007825032230
         H            3.854202252859    -0.822945637819    -0.845886747361     1.007825032230
         H            3.856016252859    -0.694864637819     0.928573252639     1.007825032230
         H            4.478100252859     0.666248362181    -0.062140747361     1.007825032230

  Basis Set: AUG-CC-PVTZ
    Blend: AUG-CC-PVTZ
  Basis Set: (AUG-CC-PVTZ AUX)
    Blend: AUG-CC-PVTZ-JKFIT
	 Reference Energy          =    -551.5998266255494400 [Eh]
	 Singles Energy            =      -0.0000000000000000 [Eh]
	 Same-Spin Energy          =      -0.5792613894661984 [Eh]
	 Opposite-Spin Energy      =      -1.8004643150692081 [Eh]
	 Correlation Energy        =      -2.3797257045354065 [Eh]
	 Total Energy              =    -553.9795523300848572 [Eh]

	 ================> DF-SCS-MP2 Energies <==================
	-----------------------------------------------------------
	 SCS Same-Spin Scale       =       0.3333333333333333 [-]
	 SCS Opposite-Spin Scale   =       1.2000000000000000 [-]
	 SCS Same-Spin Energy      =      -0.1930871298220661 [Eh]
	 SCS Opposite-Spin Energy  =      -2.1605571780830495 [Eh]
	 SCS Correlation Energy    =      -2.3536443079051157 [Eh]
	 SCS Total Energy          =    -553.9534709334545823 [Eh]
	-----------------------------------------------------------

  Dipole Moment: [D]
     X:    -0.1880      Y:     0.0211      Z:     0.3170     Total:     0.3692

*** Psi4 exiting successfully. Buy a developer a beer!
