                               Psi4 1.3.2 release

  ==> Input File <==

--------------------------------------------------------------------------
#psi4
#
memory 32 gb

molecule  {
0 1
  O        2.4822540     0.5405090    -0.0540980
  O        1.5746620    -1.5220150     0.0896580
  N       -1.1622479    -1.6555566    -0.2346814
  C       -1.0966210    -0.3229200    -0.0500550
  C        0.1267050     0.4076130    -0.0279230
  C       -2.3003260     0.4165330    -0.0467730
  C        0.1050810     1.8109880     0.0359760
  C       -2.2954060     1.8037730     0.0119910
  C       -1.0915490     2.5140600     0.0407670
  C        1.4212810    -0.3016580     0.0102200
  C       -2.3257850    -2.4585570     0.0736050
  C        3.7618060    -0.1198990    -0.0066490
  H       -3.2501560    -0.1077310    -0.0690300
  H        1.0507040     2.3420820     0.0640380
  H       -0.2300450    -2.1418000     0.0381510
  H       -3.2442430     2.3364260     0.0191250
  H       -1.0894800     3.5992760     0.0899090
  H       -2.7979590    -2.2384410     1.0412790
  H       -2.0612830    -3.5169920     0.0485590
  H       -3.0612710    -2.2783540    -0.7172980
  H        3.8686140    -0.8046650    -0.8491430
  H        3.8704280    -0.6765840     0.9253170
  H        4.4925120     0.6845290    -0.0653970
units angstrom
no_reorient  #important for SAPT in psi4, default
symmetry c1  #important for SAPT in psi4, default
}

set PROPERTIES_ORIGIN ["COM"]
properties('MP2/aug-cc-pvtz', properties = ['dipole'])
--------------------------------------------------------------------------

    Molecular point group: c1
  Charge       = 0
  Multiplicity = 1
  Basis Set: AUG-CC-PVTZ
    Blend: AUG-CC-PVTZ
  Basis Set: (AUG-CC-PVTZ AUX)
    Blend: AUG-CC-PVTZ-JKFIT

    Orbital Energies [Eh]
    ---------------------

    Doubly Occupied:

       1A    -20.603011     2A    -20.542503     3A    -15.568495
       4A    -11.386045     5A    -11.296024     6A    -11.284479
       7A    -11.259029     8A    -11.250681     9A    -11.249729
      10A    -11.239464    11A    -11.225535    12A    -11.222493
      13A     -1.454392    14A     -1.350422    15A     -1.250852
      16A     -1.140721    17A     -1.045752    18A     -1.009446
      19A     -0.968693    20A     -0.922521    21A     -0.863668
      22A     -0.804863    23A     -0.783933    24A     -0.727282
      25A     -0.695324    26A     -0.673257    27A     -0.668898
      28A     -0.661938    29A     -0.630851    30A     -0.615473
      31A     -0.614205    32A     -0.578838    33A     -0.576099
      34A     -0.555570    35A     -0.539124    36A     -0.535464
      37A     -0.523555    38A     -0.507380    39A     -0.500356
      40A     -0.465725    41A     -0.441442    42A     -0.431287
      43A     -0.349108    44A     -0.290788

  @DF-RHF Final Energy:  -551.59267224668270

   => Energetics <=

    Nuclear Repulsion Energy =            688.0973332408063925
    One-Electron Energy =               -2116.7705784679587850
    Two-Electron Energy =                 877.0805729804696966
    Total Energy =                       -551.5926722466826959
  Basis Set: (AUG-CC-PVTZ AUX)
    Blend: AUG-CC-PVTZ-RI
    Molecular point group: c1

    Geometry (in Angstrom), charge = 0, multiplicity = 1:

       Center              X                  Y                   Z               Mass
    ------------   -----------------  -----------------  -----------------  -----------------
         O            2.471314713125     0.520560802821    -0.043836537702    15.994914619570
         O            1.563722713125    -1.541963197179     0.099919462298    15.994914619570
         N           -1.173187186875    -1.675504797179    -0.224419937702    14.003074004430
         C           -1.107560286875    -0.342868197179    -0.039793537702    12.000000000000
         C            0.115765713125     0.387664802821    -0.017661537702    12.000000000000
         C           -2.311265286875     0.396584802821    -0.036511537702    12.000000000000
         C            0.094141713125     1.791039802821     0.046237462298    12.000000000000
         C           -2.306345286875     1.783824802821     0.022252462298    12.000000000000
         C           -1.102488286875     2.494111802821     0.051028462298    12.000000000000
         C            1.410341713125    -0.321606197179     0.020481462298    12.000000000000
         C           -2.336724286875    -2.478505197179     0.083866462298    12.000000000000
         C            3.750866713125    -0.139847197179     0.003612462298    12.000000000000
         H           -3.261095286875    -0.127679197179    -0.058768537702     1.007825032230
         H            1.039764713125     2.322133802821     0.074299462298     1.007825032230
         H           -0.240984286875    -2.161748197179     0.048412462298     1.007825032230
         H           -3.255182286875     2.316477802821     0.029386462298     1.007825032230
         H           -1.100419286875     3.579327802821     0.100170462298     1.007825032230
         H           -2.808898286875    -2.258389197179     1.051540462298     1.007825032230
         H           -2.072222286875    -3.536940197179     0.058820462298     1.007825032230
         H           -3.072210286875    -2.298302197179    -0.707036537702     1.007825032230
         H            3.857674713125    -0.824613197179    -0.838881537702     1.007825032230
         H            3.859488713125    -0.696532197179     0.935578462298     1.007825032230
         H            4.481572713125     0.664580802821    -0.055135537702     1.007825032230

  Basis Set: AUG-CC-PVTZ
    Blend: AUG-CC-PVTZ
  Basis Set: (AUG-CC-PVTZ AUX)
    Blend: AUG-CC-PVTZ-JKFIT
	 Reference Energy          =    -551.5926722466826959 [Eh]
	 Singles Energy            =      -0.0000000000000000 [Eh]
	 Same-Spin Energy          =      -0.5796474041728951 [Eh]
	 Opposite-Spin Energy      =      -1.8012098918889090 [Eh]
	 Correlation Energy        =      -2.3808572960618042 [Eh]
	 Total Energy              =    -553.9735295427444726 [Eh]

	 ================> DF-SCS-MP2 Energies <==================
	-----------------------------------------------------------
	 SCS Same-Spin Scale       =       0.3333333333333333 [-]
	 SCS Opposite-Spin Scale   =       1.2000000000000000 [-]
	 SCS Same-Spin Energy      =      -0.1932158013909650 [Eh]
	 SCS Opposite-Spin Energy  =      -2.1614518702666907 [Eh]
	 SCS Correlation Energy    =      -2.3546676716576558 [Eh]
	 SCS Total Energy          =    -553.9473399183403899 [Eh]
	-----------------------------------------------------------

  Dipole Moment: [D]
     X:    -0.1261      Y:    -0.1644      Z:     0.4462     Total:     0.4920

*** Psi4 exiting successfully. Buy a developer a beer!
