                               Psi4 1.3.2 release

  ==> Input File <==

--------------------------------------------------------------------------
#psi4
#
memory 32 gb

molecule  {
0 1
  O        2.4822540     0.5405090    -0.0540980
  O        1.5746620    -1.5220150     0.0896580
  N       -1.1191790    -1.6921850    -0.1509940
  C       -1.0966210    -0.3229200    -0.0500550
  C        0.1267050     0.4076130    -0.0279230
  C       -2.3003260     0.4165330    -0.0467730
  C        0.1050810     1.8109880     0.0359760
  C       -2.2954060     1.8037730     0.0119910
  C       -1.0915490     2.5140600     0.0407670
  C        1.4827830    -0.3734175     0.0154855
  C       -2.3257850    -2.4585570     0.0736050
  C        3.7618060    -0.1198990    -0.0066490
  H       -3.2501560    -0.1077310    -0.0690300
  H        1.0507040     2.3420820     0.0640380
  H       -0.2300450    -2.1418000     0.0381510
  H       -3.2442430     2.3364260     0.0191250
  H       -1.0894800     3.5992760     0.0899090
  H       -2.7979590    -2.2384410     1.0412790
  H       -2.0612830    -3.5169920     0.0485590
  H       -3.0612710    -2.2783540    -0.7172980
  H        3.8686140    -0.8046650    -0.8491430
  H        3.8704280    -0.6765840     0.9253170
  H        4.4925120     0.6845290    -0.0653970
units angstrom
no_reorient  #important for SAPT in psi4, default
symmetry c1  #important for SAPT in psi4, default
}

set PROPERTIES_ORIGIN ["COM"]
properties('MP2/aug-cc-pvtz', properties = ['dipole'])
--------------------------------------------------------------------------

    Molecular point group: c1
  Charge       = 0
  Multiplicity = 1
  Basis Set: AUG-CC-PVTZ
    Blend: AUG-CC-PVTZ
  Basis Set: (AUG-CC-PVTZ AUX)
    Blend: AUG-CC-PVTZ-JKFIT

    Orbital Energies [Eh]
    ---------------------

    Doubly Occupied:

       1A    -20.605814     2A    -20.558780     3A    -15.559853
       4A    -11.384537     5A    -11.289888     6A    -11.286909
       7A    -11.256574     8A    -11.243681     9A    -11.242446
      10A    -11.238502    11A    -11.222466    12A    -11.218504
      13A     -1.483357    14A     -1.391804    15A     -1.242286
      16A     -1.134050    17A     -1.031597    18A     -1.004056
      19A     -0.967410    20A     -0.919600    21A     -0.850700
      22A     -0.803560    23A     -0.787927    24A     -0.729814
      25A     -0.701296    26A     -0.692062    27A     -0.679614
      28A     -0.659318    29A     -0.625682    30A     -0.613353
      31A     -0.609580    32A     -0.580374    33A     -0.575471
      34A     -0.572358    35A     -0.540228    36A     -0.538671
      37A     -0.531259    38A     -0.506986    39A     -0.497923
      40A     -0.480007    41A     -0.440348    42A     -0.424479
      43A     -0.342111    44A     -0.286053

  @DF-RHF Final Energy:  -551.59417462312445

   => Energetics <=

    Nuclear Repulsion Energy =            687.9987073978852550
    One-Electron Energy =               -2116.4831914090746068
    Two-Electron Energy =                 876.8903093880649067
    Total Energy =                       -551.5941746231244451
  Basis Set: (AUG-CC-PVTZ AUX)
    Blend: AUG-CC-PVTZ-RI
    Molecular point group: c1

    Geometry (in Angstrom), charge = 0, multiplicity = 1:

       Center              X                  Y                   Z               Mass
    ------------   -----------------  -----------------  -----------------  -----------------
         O            2.463190595776     0.528884238109    -0.051318210207    15.994914619570
         O            1.555598595776    -1.533639761891     0.092437789793    15.994914619570
         N           -1.138242404224    -1.703809761891    -0.148214210207    14.003074004430
         C           -1.115684404224    -0.334544761891    -0.047275210207    12.000000000000
         C            0.107641595776     0.395988238109    -0.025143210207    12.000000000000
         C           -2.319389404224     0.404908238109    -0.043993210207    12.000000000000
         C            0.086017595776     1.799363238109     0.038755789793    12.000000000000
         C           -2.314469404224     1.792148238109     0.014770789793    12.000000000000
         C           -1.110612404224     2.502435238109     0.043546789793    12.000000000000
         C            1.463719595776    -0.385042261891     0.018265289793    12.000000000000
         C           -2.344848404224    -2.470181761891     0.076384789793    12.000000000000
         C            3.742742595776    -0.131523761891    -0.003869210207    12.000000000000
         H           -3.269219404224    -0.119355761891    -0.066250210207     1.007825032230
         H            1.031640595776     2.330457238109     0.066817789793     1.007825032230
         H           -0.249108404224    -2.153424761891     0.040930789793     1.007825032230
         H           -3.263306404224     2.324801238109     0.021904789793     1.007825032230
         H           -1.108543404224     3.587651238109     0.092688789793     1.007825032230
         H           -2.817022404224    -2.250065761891     1.044058789793     1.007825032230
         H           -2.080346404224    -3.528616761891     0.051338789793     1.007825032230
         H           -3.080334404224    -2.289978761891    -0.714518210207     1.007825032230
         H            3.849550595776    -0.816289761891    -0.846363210207     1.007825032230
         H            3.851364595776    -0.688208761891     0.928096789793     1.007825032230
         H            4.473448595776     0.672904238109    -0.062617210207     1.007825032230

  Basis Set: AUG-CC-PVTZ
    Blend: AUG-CC-PVTZ
  Basis Set: (AUG-CC-PVTZ AUX)
    Blend: AUG-CC-PVTZ-JKFIT
	 Reference Energy          =    -551.5941746231244451 [Eh]
	 Singles Energy            =      -0.0000000000000000 [Eh]
	 Same-Spin Energy          =      -0.5773738437188145 [Eh]
	 Opposite-Spin Energy      =      -1.7969799337191592 [Eh]
	 Correlation Energy        =      -2.3743537774379737 [Eh]
	 Total Energy              =    -553.9685284005623771 [Eh]

	 ================> DF-SCS-MP2 Energies <==================
	-----------------------------------------------------------
	 SCS Same-Spin Scale       =       0.3333333333333333 [-]
	 SCS Opposite-Spin Scale   =       1.2000000000000000 [-]
	 SCS Same-Spin Energy      =      -0.1924579479062715 [Eh]
	 SCS Opposite-Spin Energy  =      -2.1563759204629909 [Eh]
	 SCS Correlation Energy    =      -2.3488338683692622 [Eh]
	 SCS Total Energy          =    -553.9430084914937424 [Eh]
	-----------------------------------------------------------

  Dipole Moment: [D]
     X:     0.4782      Y:    -0.5704      Z:     0.3591     Total:     0.8265

*** Psi4 exiting successfully. Buy a developer a beer!
