                               Psi4 1.3.2 release

  ==> Input File <==

--------------------------------------------------------------------------
#psi4
#
memory 32 gb

molecule  {
0 1
  O        2.4822540     0.5405090    -0.0540980
  O        1.5746620    -1.5220150     0.0896580
  N       -1.1191790    -1.6921850    -0.1509940
  C       -1.0966210    -0.3229200    -0.0500550
  C        0.1267050     0.4076130    -0.0279230
  C       -2.3003260     0.4165330    -0.0467730
  C        0.1050810     1.8109880     0.0359760
  C       -2.2954060     1.8037730     0.0119910
  C       -1.0915490     2.5140600     0.0407670
  C        1.4088365    -0.2026449     0.0037748
  C       -2.3257850    -2.4585570     0.0736050
  C        3.7618060    -0.1198990    -0.0066490
  H       -3.2501560    -0.1077310    -0.0690300
  H        1.0507040     2.3420820     0.0640380
  H       -0.2300450    -2.1418000     0.0381510
  H       -3.2442430     2.3364260     0.0191250
  H       -1.0894800     3.5992760     0.0899090
  H       -2.7979590    -2.2384410     1.0412790
  H       -2.0612830    -3.5169920     0.0485590
  H       -3.0612710    -2.2783540    -0.7172980
  H        3.8686140    -0.8046650    -0.8491430
  H        3.8704280    -0.6765840     0.9253170
  H        4.4925120     0.6845290    -0.0653970
units angstrom
no_reorient  #important for SAPT in psi4, default
symmetry c1  #important for SAPT in psi4, default
}

set PROPERTIES_ORIGIN ["COM"]
properties('MP2/aug-cc-pvtz', properties = ['dipole'])
--------------------------------------------------------------------------

    Molecular point group: c1
  Charge       = 0
  Multiplicity = 1
  Basis Set: AUG-CC-PVTZ
    Blend: AUG-CC-PVTZ
  Basis Set: (AUG-CC-PVTZ AUX)
    Blend: AUG-CC-PVTZ-JKFIT

    Orbital Energies [Eh]
    ---------------------

    Doubly Occupied:

       1A    -20.612900     2A    -20.517441     3A    -15.563498
       4A    -11.385387     5A    -11.304506     6A    -11.289270
       7A    -11.258089     8A    -11.257179     9A    -11.254425
      10A    -11.238620    11A    -11.230740    12A    -11.226133
      13A     -1.463430    14A     -1.292441    15A     -1.243653
      16A     -1.147739    17A     -1.057998    18A     -1.012625
      19A     -0.979967    20A     -0.925771    21A     -0.872568
      22A     -0.813328    23A     -0.787250    24A     -0.735462
      25A     -0.698760    26A     -0.673967    27A     -0.671854
      28A     -0.657609    29A     -0.632009    30A     -0.614275
      31A     -0.611789    32A     -0.585535    33A     -0.575548
      34A     -0.550060    35A     -0.542452    36A     -0.532644
      37A     -0.515253    38A     -0.507067    39A     -0.500592
      40A     -0.444647    41A     -0.431730    42A     -0.426575
      43A     -0.353061    44A     -0.293901

  @DF-RHF Final Energy:  -551.58170609234958

   => Energetics <=

    Nuclear Repulsion Energy =            688.0238516914142792
    One-Electron Energy =               -2116.6316181273941766
    Two-Electron Energy =                 877.0260603436304336
    Total Energy =                       -551.5817060923495774
  Basis Set: (AUG-CC-PVTZ AUX)
    Blend: AUG-CC-PVTZ-RI
    Molecular point group: c1

    Geometry (in Angstrom), charge = 0, multiplicity = 1:

       Center              X                  Y                   Z               Mass
    ------------   -----------------  -----------------  -----------------  -----------------
         O            2.468565950092     0.516470354662    -0.050466930407    15.994914619570
         O            1.560973950092    -1.546053645338     0.093289069593    15.994914619570
         N           -1.132867049908    -1.716223645338    -0.147362930407    14.003074004430
         C           -1.110309049908    -0.346958645338    -0.046423930407    12.000000000000
         C            0.113016950092     0.383574354662    -0.024291930407    12.000000000000
         C           -2.314014049908     0.392494354662    -0.043141930407    12.000000000000
         C            0.091392950092     1.786949354662     0.039607069593    12.000000000000
         C           -2.309094049908     1.779734354662     0.015622069593    12.000000000000
         C           -1.105237049908     2.490021354662     0.044398069593    12.000000000000
         C            1.395148450092    -0.226683545338     0.007405869593    12.000000000000
         C           -2.339473049908    -2.482595645338     0.077236069593    12.000000000000
         C            3.748117950092    -0.143937645338    -0.003017930407    12.000000000000
         H           -3.263844049908    -0.131769645338    -0.065398930407     1.007825032230
         H            1.037015950092     2.318043354662     0.067669069593     1.007825032230
         H           -0.243733049908    -2.165838645338     0.041782069593     1.007825032230
         H           -3.257931049908     2.312387354662     0.022756069593     1.007825032230
         H           -1.103168049908     3.575237354662     0.093540069593     1.007825032230
         H           -2.811647049908    -2.262479645338     1.044910069593     1.007825032230
         H           -2.074971049908    -3.541030645338     0.052190069593     1.007825032230
         H           -3.074959049908    -2.302392645338    -0.713666930407     1.007825032230
         H            3.854925950092    -0.828703645338    -0.845511930407     1.007825032230
         H            3.856739950092    -0.700622645338     0.928948069593     1.007825032230
         H            4.478823950092     0.660490354662    -0.061765930407     1.007825032230

  Basis Set: AUG-CC-PVTZ
    Blend: AUG-CC-PVTZ
  Basis Set: (AUG-CC-PVTZ AUX)
    Blend: AUG-CC-PVTZ-JKFIT
	 Reference Energy          =    -551.5817060923495774 [Eh]
	 Singles Energy            =      -0.0000000000000000 [Eh]
	 Same-Spin Energy          =      -0.5807208939290652 [Eh]
	 Opposite-Spin Energy      =      -1.8031295940308840 [Eh]
	 Correlation Energy        =      -2.3838504879599491 [Eh]
	 Total Energy              =    -553.9655565803095669 [Eh]

	 ================> DF-SCS-MP2 Energies <==================
	-----------------------------------------------------------
	 SCS Same-Spin Scale       =       0.3333333333333333 [-]
	 SCS Opposite-Spin Scale   =       1.2000000000000000 [-]
	 SCS Same-Spin Energy      =      -0.1935736313096884 [Eh]
	 SCS Opposite-Spin Energy  =      -2.1637555128370609 [Eh]
	 SCS Correlation Energy    =      -2.3573291441467492 [Eh]
	 SCS Total Energy          =    -553.9390352364963519 [Eh]
	-----------------------------------------------------------

  Dipole Moment: [D]
     X:    -0.2703      Y:     0.4582      Z:     0.2786     Total:     0.6004

*** Psi4 exiting successfully. Buy a developer a beer!
