                               Psi4 1.3.2 release

  ==> Input File <==

--------------------------------------------------------------------------
#psi4
#
memory 32 gb

molecule  {
0 1
  O        2.4822540     0.5405090    -0.0540980
  O        1.5746620    -1.5220150     0.0896580
  N       -1.1191790    -1.6921850    -0.1509940
  C       -1.0966210    -0.3229200    -0.0500550
  C        0.1267050     0.4076130    -0.0279230
  C       -2.3003260     0.4165330    -0.0467730
  C        0.1050810     1.8109880     0.0359760
  C       -2.2954060     1.8037730     0.0119910
  C       -1.0915490     2.5140600     0.0407670
  C        1.4067020    -0.2830629     0.0088536
  C       -2.3257850    -2.4585570     0.0736050
  C        3.7618060    -0.1198990    -0.0066490
  H       -3.2501560    -0.1077310    -0.0690300
  H        1.0507040     2.3420820     0.0640380
  H       -0.2300450    -2.1418000     0.0381510
  H       -3.2442430     2.3364260     0.0191250
  H       -1.0894800     3.5992760     0.0899090
  H       -2.7979590    -2.2384410     1.0412790
  H       -2.0612830    -3.5169920     0.0485590
  H       -3.0612710    -2.2783540    -0.7172980
  H        3.8686140    -0.8046650    -0.8491430
  H        3.8704280    -0.6765840     0.9253170
  H        4.4925120     0.6845290    -0.0653970
units angstrom
no_reorient  #important for SAPT in psi4, default
symmetry c1  #important for SAPT in psi4, default
}

set PROPERTIES_ORIGIN ["COM"]
properties('MP2/aug-cc-pvtz', properties = ['dipole'])
--------------------------------------------------------------------------

    Molecular point group: c1
  Charge       = 0
  Multiplicity = 1
  Basis Set: AUG-CC-PVTZ
    Blend: AUG-CC-PVTZ
  Basis Set: (AUG-CC-PVTZ AUX)
    Blend: AUG-CC-PVTZ-JKFIT

    Orbital Energies [Eh]
    ---------------------

    Doubly Occupied:

       1A    -20.601972     2A    -20.537193     3A    -15.564088
       4A    -11.385595     5A    -11.300594     6A    -11.283687
       7A    -11.258877     8A    -11.253905     9A    -11.251904
      10A    -11.239517    11A    -11.228878    12A    -11.224657
      13A     -1.449156    14A     -1.337600    15A     -1.246352
      16A     -1.144253    17A     -1.050026    18A     -1.011070
      19A     -0.968658    20A     -0.924111    21A     -0.868059
      22A     -0.810606    23A     -0.783729    24A     -0.728674
      25A     -0.700629    26A     -0.670314    27A     -0.666383
      28A     -0.659854    29A     -0.630236    30A     -0.616817
      31A     -0.612520    32A     -0.583792    33A     -0.577471
      34A     -0.553365    35A     -0.542904    36A     -0.534385
      37A     -0.522428    38A     -0.506272    39A     -0.501632
      40A     -0.460799    41A     -0.443387    42A     -0.428190
      43A     -0.351154    44A     -0.292900

  @DF-RHF Final Energy:  -551.59909293516534

   => Energetics <=

    Nuclear Repulsion Energy =            688.0056394910625386
    One-Electron Energy =               -2116.5922766976382263
    Two-Electron Energy =                 876.9875442714103428
    Total Energy =                       -551.5990929351653449
  Basis Set: (AUG-CC-PVTZ AUX)
    Blend: AUG-CC-PVTZ-RI
    Molecular point group: c1

    Geometry (in Angstrom), charge = 0, multiplicity = 1:

       Center              X                  Y                   Z               Mass
    ------------   -----------------  -----------------  -----------------  -----------------
         O            2.468721112186     0.522316138348    -0.050836120963    15.994914619570
         O            1.561129112186    -1.540207861652     0.092919879037    15.994914619570
         N           -1.132711887814    -1.710377861652    -0.147732120963    14.003074004430
         C           -1.110153887814    -0.341112861652    -0.046793120963    12.000000000000
         C            0.113172112186     0.389420138348    -0.024661120963    12.000000000000
         C           -2.313858887814     0.398340138348    -0.043511120963    12.000000000000
         C            0.091548112186     1.792795138348     0.039237879037    12.000000000000
         C           -2.308938887814     1.785580138348     0.015252879037    12.000000000000
         C           -1.105081887814     2.495867138348     0.044028879037    12.000000000000
         C            1.393169112186    -0.301255761652     0.012115479037    12.000000000000
         C           -2.339317887814    -2.476749861652     0.076866879037    12.000000000000
         C            3.748273112186    -0.138091861652    -0.003387120963    12.000000000000
         H           -3.263688887814    -0.125923861652    -0.065768120963     1.007825032230
         H            1.037171112186     2.323889138348     0.067299879037     1.007825032230
         H           -0.243577887814    -2.159992861652     0.041412879037     1.007825032230
         H           -3.257775887814     2.318233138348     0.022386879037     1.007825032230
         H           -1.103012887814     3.581083138348     0.093170879037     1.007825032230
         H           -2.811491887814    -2.256633861652     1.044540879037     1.007825032230
         H           -2.074815887814    -3.535184861652     0.051820879037     1.007825032230
         H           -3.074803887814    -2.296546861652    -0.714036120963     1.007825032230
         H            3.855081112186    -0.822857861652    -0.845881120963     1.007825032230
         H            3.856895112186    -0.694776861652     0.928578879037     1.007825032230
         H            4.478979112186     0.666336138348    -0.062135120963     1.007825032230

  Basis Set: AUG-CC-PVTZ
    Blend: AUG-CC-PVTZ
  Basis Set: (AUG-CC-PVTZ AUX)
    Blend: AUG-CC-PVTZ-JKFIT
	 Reference Energy          =    -551.5990929351653449 [Eh]
	 Singles Energy            =      -0.0000000000000000 [Eh]
	 Same-Spin Energy          =      -0.5793919848142989 [Eh]
	 Opposite-Spin Energy      =      -1.8007711564384663 [Eh]
	 Correlation Energy        =      -2.3801631412527651 [Eh]
	 Total Energy              =    -553.9792560764180962 [Eh]

	 ================> DF-SCS-MP2 Energies <==================
	-----------------------------------------------------------
	 SCS Same-Spin Scale       =       0.3333333333333333 [-]
	 SCS Opposite-Spin Scale   =       1.2000000000000000 [-]
	 SCS Same-Spin Energy      =      -0.1931306616047663 [Eh]
	 SCS Opposite-Spin Energy  =      -2.1609253877261594 [Eh]
	 SCS Correlation Energy    =      -2.3540560493309255 [Eh]
	 SCS Total Energy          =    -553.9531489844962380 [Eh]
	-----------------------------------------------------------

  Dipole Moment: [D]
     X:    -0.3335      Y:     0.0191      Z:     0.3187     Total:     0.4617

*** Psi4 exiting successfully. Buy a developer a beer!
