                               Psi4 1.3.2 release

  ==> Input File <==

--------------------------------------------------------------------------
#psi4
#
memory 32 gb

molecule  {
0 1
  O        2.5233796     0.6120421     0.0721275
  O        1.5746620    -1.5220150     0.0896580
  N       -1.1191790    -1.6921850    -0.1509940
  C       -1.0966210    -0.3229200    -0.0500550
  C        0.1267050     0.4076130    -0.0279230
  C       -2.3003260     0.4165330    -0.0467730
  C        0.1050810     1.8109880     0.0359760
  C       -2.2954060     1.8037730     0.0119910
  C       -1.0915490     2.5140600     0.0407670
  C        1.4212810    -0.3016580     0.0102200
  C       -2.3257850    -2.4585570     0.0736050
  C        3.7618060    -0.1198990    -0.0066490
  H       -3.2501560    -0.1077310    -0.0690300
  H        1.0507040     2.3420820     0.0640380
  H       -0.2300450    -2.1418000     0.0381510
  H       -3.2442430     2.3364260     0.0191250
  H       -1.0894800     3.5992760     0.0899090
  H       -2.7979590    -2.2384410     1.0412790
  H       -2.0612830    -3.5169920     0.0485590
  H       -3.0612710    -2.2783540    -0.7172980
  H        3.8686140    -0.8046650    -0.8491430
  H        3.8704280    -0.6765840     0.9253170
  H        4.4925120     0.6845290    -0.0653970
units angstrom
no_reorient  #important for SAPT in psi4, default
symmetry c1  #important for SAPT in psi4, default
}

set PROPERTIES_ORIGIN ["COM"]
properties('MP2/aug-cc-pvtz', properties = ['dipole'])
--------------------------------------------------------------------------

    Molecular point group: c1
  Charge       = 0
  Multiplicity = 1
  Basis Set: AUG-CC-PVTZ
    Blend: AUG-CC-PVTZ
  Basis Set: (AUG-CC-PVTZ AUX)
    Blend: AUG-CC-PVTZ-JKFIT

    Orbital Energies [Eh]
    ---------------------

    Doubly Occupied:

       1A    -20.599170     2A    -20.554082     3A    -15.566364
       4A    -11.394177     5A    -11.301124     6A    -11.277456
       7A    -11.260419     8A    -11.253957     9A    -11.251492
      10A    -11.242708    11A    -11.229358    12A    -11.224757
      13A     -1.433949    14A     -1.350461    15A     -1.248437
      16A     -1.143983    17A     -1.045977    18A     -1.011584
      19A     -0.955399    20A     -0.923687    21A     -0.866972
      22A     -0.810679    23A     -0.783230    24A     -0.722356
      25A     -0.702862    26A     -0.671328    27A     -0.661138
      28A     -0.655992    29A     -0.628069    30A     -0.618653
      31A     -0.613459    32A     -0.585793    33A     -0.571655
      34A     -0.553902    35A     -0.544659    36A     -0.536630
      37A     -0.526990    38A     -0.507057    39A     -0.502239
      40A     -0.465435    41A     -0.446148    42A     -0.429706
      43A     -0.351305    44A     -0.293832

  @DF-RHF Final Energy:  -551.58915642550915

   => Energetics <=

    Nuclear Repulsion Energy =            685.8866582909736280
    One-Electron Energy =               -2112.3143673325121199
    Two-Electron Energy =                 874.8385526160293466
    Total Energy =                       -551.5891564255091453
  Basis Set: (AUG-CC-PVTZ AUX)
    Blend: AUG-CC-PVTZ-RI
    Molecular point group: c1

    Geometry (in Angstrom), charge = 0, multiplicity = 1:

       Center              X                  Y                   Z               Mass
    ------------   -----------------  -----------------  -----------------  -----------------
         O            2.504802166431     0.588269941487     0.063059748016    15.994914619570
         O            1.556084566431    -1.545787158513     0.080590248016    15.994914619570
         N           -1.137756433569    -1.715957158513    -0.160061751984    14.003074004430
         C           -1.115198433569    -0.346692158513    -0.059122751984    12.000000000000
         C            0.108127566431     0.383840841487    -0.036990751984    12.000000000000
         C           -2.318903433569     0.392760841487    -0.055840751984    12.000000000000
         C            0.086503566431     1.787215841487     0.026908248016    12.000000000000
         C           -2.313983433569     1.780000841487     0.002923248016    12.000000000000
         C           -1.110126433569     2.490287841487     0.031699248016    12.000000000000
         C            1.402703566431    -0.325430158513     0.001152248016    12.000000000000
         C           -2.344362433569    -2.482329158513     0.064537248016    12.000000000000
         C            3.743228566431    -0.143671158513    -0.015716751984    12.000000000000
         H           -3.268733433569    -0.131503158513    -0.078097751984     1.007825032230
         H            1.032126566431     2.318309841487     0.054970248016     1.007825032230
         H           -0.248622433569    -2.165572158513     0.029083248016     1.007825032230
         H           -3.262820433569     2.312653841487     0.010057248016     1.007825032230
         H           -1.108057433569     3.575503841487     0.080841248016     1.007825032230
         H           -2.816536433569    -2.262213158513     1.032211248016     1.007825032230
         H           -2.079860433569    -3.540764158513     0.039491248016     1.007825032230
         H           -3.079848433569    -2.302126158513    -0.726365751984     1.007825032230
         H            3.850036566431    -0.828437158513    -0.858210751984     1.007825032230
         H            3.851850566431    -0.700356158513     0.916249248016     1.007825032230
         H            4.473934566431     0.660756841487    -0.074464751984     1.007825032230

  Basis Set: AUG-CC-PVTZ
    Blend: AUG-CC-PVTZ
  Basis Set: (AUG-CC-PVTZ AUX)
    Blend: AUG-CC-PVTZ-JKFIT
	 Reference Energy          =    -551.5891564255091453 [Eh]
	 Singles Energy            =      -0.0000000000000000 [Eh]
	 Same-Spin Energy          =      -0.5802178820219945 [Eh]
	 Opposite-Spin Energy      =      -1.8035842475332671 [Eh]
	 Correlation Energy        =      -2.3838021295552618 [Eh]
	 Total Energy              =    -553.9729585550644515 [Eh]

	 ================> DF-SCS-MP2 Energies <==================
	-----------------------------------------------------------
	 SCS Same-Spin Scale       =       0.3333333333333333 [-]
	 SCS Opposite-Spin Scale   =       1.2000000000000000 [-]
	 SCS Same-Spin Energy      =      -0.1934059606739982 [Eh]
	 SCS Opposite-Spin Energy  =      -2.1643010970399206 [Eh]
	 SCS Correlation Energy    =      -2.3577070577139185 [Eh]
	 SCS Total Energy          =    -553.9468634832230691 [Eh]
	-----------------------------------------------------------

  Dipole Moment: [D]
     X:    -0.6916      Y:    -0.3271      Z:     0.1767     Total:     0.7852

*** Psi4 exiting successfully. Buy a developer a beer!
