                               Psi4 1.3.2 release

  ==> Input File <==

--------------------------------------------------------------------------
#psi4
#
memory 32 gb

molecule  {
0 1
  O        2.4822540     0.5405090    -0.0540980
  O        1.5746620    -1.5220150     0.0896580
  N       -1.1191790    -1.6921850    -0.1509940
  C       -1.0966210    -0.3229200    -0.0500550
  C        0.1267050     0.4076130    -0.0279230
  C       -2.3003260     0.4165330    -0.0467730
  C        0.1050810     1.8109880     0.0359760
  C       -2.2954060     1.8037730     0.0119910
  C       -1.0915490     2.5140600     0.0407670
  C        1.4337255    -0.4006711     0.0166652
  C       -2.3257850    -2.4585570     0.0736050
  C        3.7618060    -0.1198990    -0.0066490
  H       -3.2501560    -0.1077310    -0.0690300
  H        1.0507040     2.3420820     0.0640380
  H       -0.2300450    -2.1418000     0.0381510
  H       -3.2442430     2.3364260     0.0191250
  H       -1.0894800     3.5992760     0.0899090
  H       -2.7979590    -2.2384410     1.0412790
  H       -2.0612830    -3.5169920     0.0485590
  H       -3.0612710    -2.2783540    -0.7172980
  H        3.8686140    -0.8046650    -0.8491430
  H        3.8704280    -0.6765840     0.9253170
  H        4.4925120     0.6845290    -0.0653970
units angstrom
no_reorient  #important for SAPT in psi4, default
symmetry c1  #important for SAPT in psi4, default
}

set PROPERTIES_ORIGIN ["COM"]
properties('MP2/aug-cc-pvtz', properties = ['dipole'])
--------------------------------------------------------------------------

    Molecular point group: c1
  Charge       = 0
  Multiplicity = 1
  Basis Set: AUG-CC-PVTZ
    Blend: AUG-CC-PVTZ
  Basis Set: (AUG-CC-PVTZ AUX)
    Blend: AUG-CC-PVTZ-JKFIT

    Orbital Energies [Eh]
    ---------------------

    Doubly Occupied:

       1A    -20.589675     2A    -20.565111     3A    -15.563664
       4A    -11.382440     5A    -11.292678     6A    -11.278718
       7A    -11.259118     8A    -11.246750     9A    -11.245676
      10A    -11.240258    11A    -11.224606    12A    -11.220742
      13A     -1.488796    14A     -1.375490    15A     -1.246188
      16A     -1.137061    17A     -1.034709    18A     -1.006852
      19A     -0.956178    20A     -0.921212    21A     -0.856730
      22A     -0.805868    23A     -0.782146    24A     -0.727871
      25A     -0.706506    26A     -0.692942    27A     -0.669328
      28A     -0.658780    29A     -0.625921    30A     -0.615245
      31A     -0.611801    32A     -0.584861    33A     -0.578031
      34A     -0.574082    35A     -0.542655    36A     -0.538301
      37A     -0.525724    38A     -0.509999    39A     -0.501020
      40A     -0.470591    41A     -0.441620    42A     -0.427224
      43A     -0.344971    44A     -0.289321

  @DF-RHF Final Energy:  -551.58959360675431

   => Energetics <=

    Nuclear Repulsion Energy =            688.1913148239228804
    One-Electron Energy =               -2116.8468972488985855
    Two-Electron Energy =                 877.0659888182215127
    Total Energy =                       -551.5895936067543062
  Basis Set: (AUG-CC-PVTZ AUX)
    Blend: AUG-CC-PVTZ-RI
    Molecular point group: c1

    Geometry (in Angstrom), charge = 0, multiplicity = 1:

       Center              X                  Y                   Z               Mass
    ------------   -----------------  -----------------  -----------------  -----------------
         O            2.466756707010     0.530865369824    -0.051403965524    15.994914619570
         O            1.559164707010    -1.531658630176     0.092352034476    15.994914619570
         N           -1.134676292990    -1.701828630176    -0.148299965524    14.003074004430
         C           -1.112118292990    -0.332563630176    -0.047360965524    12.000000000000
         C            0.111207707010     0.397969369824    -0.025228965524    12.000000000000
         C           -2.315823292990     0.406889369824    -0.044078965524    12.000000000000
         C            0.089583707010     1.801344369824     0.038670034476    12.000000000000
         C           -2.310903292990     1.794129369824     0.014685034476    12.000000000000
         C           -1.107046292990     2.504416369824     0.043461034476    12.000000000000
         C            1.418228207010    -0.410314730176     0.019359234476    12.000000000000
         C           -2.341282292990    -2.468200630176     0.076299034476    12.000000000000
         C            3.746308707010    -0.129542630176    -0.003954965524    12.000000000000
         H           -3.265653292990    -0.117374630176    -0.066335965524     1.007825032230
         H            1.035206707010     2.332438369824     0.066732034476     1.007825032230
         H           -0.245542292990    -2.151443630176     0.040845034476     1.007825032230
         H           -3.259740292990     2.326782369824     0.021819034476     1.007825032230
         H           -1.104977292990     3.589632369824     0.092603034476     1.007825032230
         H           -2.813456292990    -2.248084630176     1.043973034476     1.007825032230
         H           -2.076780292990    -3.526635630176     0.051253034476     1.007825032230
         H           -3.076768292990    -2.287997630176    -0.714603965524     1.007825032230
         H            3.853116707010    -0.814308630176    -0.846448965524     1.007825032230
         H            3.854930707010    -0.686227630176     0.928011034476     1.007825032230
         H            4.477014707010     0.674885369824    -0.062702965524     1.007825032230

  Basis Set: AUG-CC-PVTZ
    Blend: AUG-CC-PVTZ
  Basis Set: (AUG-CC-PVTZ AUX)
    Blend: AUG-CC-PVTZ-JKFIT
	 Reference Energy          =    -551.5895936067543062 [Eh]
	 Singles Energy            =      -0.0000000000000000 [Eh]
	 Same-Spin Energy          =      -0.5773247976697717 [Eh]
	 Opposite-Spin Energy      =      -1.7971426158574699 [Eh]
	 Correlation Energy        =      -2.3744674135272419 [Eh]
	 Total Energy              =    -553.9640610202815196 [Eh]

	 ================> DF-SCS-MP2 Energies <==================
	-----------------------------------------------------------
	 SCS Same-Spin Scale       =       0.3333333333333333 [-]
	 SCS Opposite-Spin Scale   =       1.2000000000000000 [-]
	 SCS Same-Spin Energy      =      -0.1924415992232572 [Eh]
	 SCS Opposite-Spin Energy  =      -2.1565711390289639 [Eh]
	 SCS Correlation Energy    =      -2.3490127382522212 [Eh]
	 SCS Total Energy          =    -553.9386063450065194 [Eh]
	-----------------------------------------------------------

  Dipole Moment: [D]
     X:    -0.1104      Y:    -0.7184      Z:     0.3785     Total:     0.8195

*** Psi4 exiting successfully. Buy a developer a beer!
