                               Psi4 1.3.2 release

  ==> Input File <==

--------------------------------------------------------------------------
#psi4
#
memory 32 gb

molecule  {
0 1
  O        2.3881626     0.6466067    -0.0603470
  O        1.5746620    -1.5220150     0.0896580
  N       -1.1191790    -1.6921850    -0.1509940
  C       -1.0966210    -0.3229200    -0.0500550
  C        0.1267050     0.4076130    -0.0279230
  C       -2.3003260     0.4165330    -0.0467730
  C        0.1050810     1.8109880     0.0359760
  C       -2.2954060     1.8037730     0.0119910
  C       -1.0915490     2.5140600     0.0407670
  C        1.4212810    -0.3016580     0.0102200
  C       -2.3257850    -2.4585570     0.0736050
  C        3.7618060    -0.1198990    -0.0066490
  H       -3.2501560    -0.1077310    -0.0690300
  H        1.0507040     2.3420820     0.0640380
  H       -0.2300450    -2.1418000     0.0381510
  H       -3.2442430     2.3364260     0.0191250
  H       -1.0894800     3.5992760     0.0899090
  H       -2.7979590    -2.2384410     1.0412790
  H       -2.0612830    -3.5169920     0.0485590
  H       -3.0612710    -2.2783540    -0.7172980
  H        3.8686140    -0.8046650    -0.8491430
  H        3.8704280    -0.6765840     0.9253170
  H        4.4925120     0.6845290    -0.0653970
units angstrom
no_reorient  #important for SAPT in psi4, default
symmetry c1  #important for SAPT in psi4, default
}

set PROPERTIES_ORIGIN ["COM"]
properties('MP2/aug-cc-pvtz', properties = ['dipole'])
--------------------------------------------------------------------------

    Molecular point group: c1
  Charge       = 0
  Multiplicity = 1
  Basis Set: AUG-CC-PVTZ
    Blend: AUG-CC-PVTZ
  Basis Set: (AUG-CC-PVTZ AUX)
    Blend: AUG-CC-PVTZ-JKFIT

    Orbital Energies [Eh]
    ---------------------

    Doubly Occupied:

       1A    -20.608621     2A    -20.545153     3A    -15.560169
       4A    -11.383659     5A    -11.300535     6A    -11.292805
       7A    -11.256312     8A    -11.247482     9A    -11.244082
      10A    -11.231755    11A    -11.223479    12A    -11.219288
      13A     -1.438740    14A     -1.346309    15A     -1.242363
      16A     -1.136996    17A     -1.038977    18A     -1.005580
      19A     -0.962198    20A     -0.921144    21A     -0.863635
      22A     -0.805385    23A     -0.780443    24A     -0.720702
      25A     -0.696499    26A     -0.669494    27A     -0.656604
      28A     -0.655036    29A     -0.622125    30A     -0.612245
      31A     -0.608843    32A     -0.579972    33A     -0.567056
      34A     -0.562655    35A     -0.538865    36A     -0.535865
      37A     -0.528051    38A     -0.505428    39A     -0.497566
      40A     -0.474658    41A     -0.441515    42A     -0.424316
      43A     -0.344427    44A     -0.287683

  @DF-RHF Final Energy:  -551.58114582041844

   => Energetics <=

    Nuclear Repulsion Energy =            687.4403083161136010
    One-Electron Energy =               -2115.6734798440556915
    Two-Electron Energy =                 876.6520257075235349
    Total Energy =                       -551.5811458204184419
  Basis Set: (AUG-CC-PVTZ AUX)
    Blend: AUG-CC-PVTZ-RI
    Molecular point group: c1

    Geometry (in Angstrom), charge = 0, multiplicity = 1:

       Center              X                  Y                   Z               Mass
    ------------   -----------------  -----------------  -----------------  -----------------
         O            2.382686679346     0.619485491048    -0.056578966745    15.994914619570
         O            1.569186079346    -1.549136208952     0.093426033255    15.994914619570
         N           -1.124654920654    -1.719306208952    -0.147225966745    14.003074004430
         C           -1.102096920654    -0.350041208952    -0.046286966745    12.000000000000
         C            0.121229079346     0.380491791048    -0.024154966745    12.000000000000
         C           -2.305801920654     0.389411791048    -0.043004966745    12.000000000000
         C            0.099605079346     1.783866791048     0.039744033255    12.000000000000
         C           -2.300881920654     1.776651791048     0.015759033255    12.000000000000
         C           -1.097024920654     2.486938791048     0.044535033255    12.000000000000
         C            1.415805079346    -0.328779208952     0.013988033255    12.000000000000
         C           -2.331260920654    -2.485678208952     0.077373033255    12.000000000000
         C            3.756330079346    -0.147020208952    -0.002880966745    12.000000000000
         H           -3.255631920654    -0.134852208952    -0.065261966745     1.007825032230
         H            1.045228079346     2.314960791048     0.067806033255     1.007825032230
         H           -0.235520920654    -2.168921208952     0.041919033255     1.007825032230
         H           -3.249718920654     2.309304791048     0.022893033255     1.007825032230
         H           -1.094955920654     3.572154791048     0.093677033255     1.007825032230
         H           -2.803434920654    -2.265562208952     1.045047033255     1.007825032230
         H           -2.066758920654    -3.544113208952     0.052327033255     1.007825032230
         H           -3.066746920654    -2.305475208952    -0.713529966745     1.007825032230
         H            3.863138079346    -0.831786208952    -0.845374966745     1.007825032230
         H            3.864952079346    -0.703705208952     0.929085033255     1.007825032230
         H            4.487036079346     0.657407791048    -0.061628966745     1.007825032230

  Basis Set: AUG-CC-PVTZ
    Blend: AUG-CC-PVTZ
  Basis Set: (AUG-CC-PVTZ AUX)
    Blend: AUG-CC-PVTZ-JKFIT
	 Reference Energy          =    -551.5811458204184419 [Eh]
	 Singles Energy            =      -0.0000000000000000 [Eh]
	 Same-Spin Energy          =      -0.5807780883456211 [Eh]
	 Opposite-Spin Energy      =      -1.8051476236036705 [Eh]
	 Correlation Energy        =      -2.3859257119492918 [Eh]
	 Total Energy              =    -553.9670715323677541 [Eh]

	 ================> DF-SCS-MP2 Energies <==================
	-----------------------------------------------------------
	 SCS Same-Spin Scale       =       0.3333333333333333 [-]
	 SCS Opposite-Spin Scale   =       1.2000000000000000 [-]
	 SCS Same-Spin Energy      =      -0.1935926961152070 [Eh]
	 SCS Opposite-Spin Energy  =      -2.1661771483244046 [Eh]
	 SCS Correlation Energy    =      -2.3597698444396116 [Eh]
	 SCS Total Energy          =    -553.9409156648580392 [Eh]
	-----------------------------------------------------------

  Dipole Moment: [D]
     X:     0.3975      Y:    -0.3247      Z:     0.3380     Total:     0.6146

*** Psi4 exiting successfully. Buy a developer a beer!
