                               Psi4 1.3.2 release

  ==> Input File <==

--------------------------------------------------------------------------
#psi4
#
memory 32 gb

molecule  {
0 1
  O        2.4673530     0.5588654    -0.0551904
  O        1.5746620    -1.5220150     0.0896580
  N       -1.1191790    -1.6921850    -0.1509940
  C       -1.0966210    -0.3229200    -0.0500550
  C        0.1267050     0.4076130    -0.0279230
  C       -2.3003260     0.4165330    -0.0467730
  C        0.1050810     1.8109880     0.0359760
  C       -2.2954060     1.8037730     0.0119910
  C       -1.0915490     2.5140600     0.0407670
  C        1.4212810    -0.3016580     0.0102200
  C       -2.3257850    -2.4585570     0.0736050
  C        3.7618060    -0.1198990    -0.0066490
  H       -3.2501560    -0.1077310    -0.0690300
  H        1.0507040     2.3420820     0.0640380
  H       -0.2300450    -2.1418000     0.0381510
  H       -3.2442430     2.3364260     0.0191250
  H       -1.0894800     3.5992760     0.0899090
  H       -2.7979590    -2.2384410     1.0412790
  H       -2.0612830    -3.5169920     0.0485590
  H       -3.0612710    -2.2783540    -0.7172980
  H        3.8686140    -0.8046650    -0.8491430
  H        3.8704280    -0.6765840     0.9253170
  H        4.4925120     0.6845290    -0.0653970
units angstrom
no_reorient  #important for SAPT in psi4, default
symmetry c1  #important for SAPT in psi4, default
}

set PROPERTIES_ORIGIN ["COM"]
properties('MP2/aug-cc-pvtz', properties = ['dipole'])
--------------------------------------------------------------------------

    Molecular point group: c1
  Charge       = 0
  Multiplicity = 1
  Basis Set: AUG-CC-PVTZ
    Blend: AUG-CC-PVTZ
  Basis Set: (AUG-CC-PVTZ AUX)
    Blend: AUG-CC-PVTZ-JKFIT

    Orbital Energies [Eh]
    ---------------------

    Doubly Occupied:

       1A    -20.604040     2A    -20.542354     3A    -15.562646
       4A    -11.385160     5A    -11.297453     6A    -11.286935
       7A    -11.258039     8A    -11.251061     9A    -11.249039
      10A    -11.238398    11A    -11.226891    12A    -11.222736
      13A     -1.450999    14A     -1.349199    15A     -1.245062
      16A     -1.141257    17A     -1.044910    18A     -1.008962
      19A     -0.966957    20A     -0.922787    21A     -0.864310
      22A     -0.808446    23A     -0.783776    24A     -0.727170
      25A     -0.699477    26A     -0.672508    27A     -0.666198
      28A     -0.660022    29A     -0.627973    30A     -0.615658
      31A     -0.611414    32A     -0.582672    33A     -0.573588
      34A     -0.556667    35A     -0.541657    36A     -0.536005
      37A     -0.526613    38A     -0.506627    39A     -0.500635
      40A     -0.467303    41A     -0.444354    42A     -0.427015
      43A     -0.348612    44A     -0.290881

  @DF-RHF Final Energy:  -551.60012901792538

   => Energetics <=

    Nuclear Repulsion Energy =            687.8602923245032343
    One-Electron Energy =               -2116.3319180543680886
    Two-Electron Energy =                 876.8714967119394714
    Total Energy =                       -551.6001290179253829
  Basis Set: (AUG-CC-PVTZ AUX)
    Blend: AUG-CC-PVTZ-RI
    Molecular point group: c1

    Geometry (in Angstrom), charge = 0, multiplicity = 1:

       Center              X                  Y                   Z               Mass
    ------------   -----------------  -----------------  -----------------  -----------------
         O            2.454204123665     0.540245664791    -0.051922002600    15.994914619570
         O            1.561513123665    -1.540634735209     0.092926397400    15.994914619570
         N           -1.132327876335    -1.710804735209    -0.147725602600    14.003074004430
         C           -1.109769876335    -0.341539735209    -0.046786602600    12.000000000000
         C            0.113556123665     0.388993264791    -0.024654602600    12.000000000000
         C           -2.313474876335     0.397913264791    -0.043504602600    12.000000000000
         C            0.091932123665     1.792368264791     0.039244397400    12.000000000000
         C           -2.308554876335     1.785153264791     0.015259397400    12.000000000000
         C           -1.104697876335     2.495440264791     0.044035397400    12.000000000000
         C            1.408132123665    -0.320277735209     0.013488397400    12.000000000000
         C           -2.338933876335    -2.477176735209     0.076873397400    12.000000000000
         C            3.748657123665    -0.138518735209    -0.003380602600    12.000000000000
         H           -3.263304876335    -0.126350735209    -0.065761602600     1.007825032230
         H            1.037555123665     2.323462264791     0.067306397400     1.007825032230
         H           -0.243193876335    -2.160419735209     0.041419397400     1.007825032230
         H           -3.257391876335     2.317806264791     0.022393397400     1.007825032230
         H           -1.102628876335     3.580656264791     0.093177397400     1.007825032230
         H           -2.811107876335    -2.257060735209     1.044547397400     1.007825032230
         H           -2.074431876335    -3.535611735209     0.051827397400     1.007825032230
         H           -3.074419876335    -2.296973735209    -0.714029602600     1.007825032230
         H            3.855465123665    -0.823284735209    -0.845874602600     1.007825032230
         H            3.857279123665    -0.695203735209     0.928585397400     1.007825032230
         H            4.479363123665     0.665909264791    -0.062128602600     1.007825032230

  Basis Set: AUG-CC-PVTZ
    Blend: AUG-CC-PVTZ
  Basis Set: (AUG-CC-PVTZ AUX)
    Blend: AUG-CC-PVTZ-JKFIT
	 Reference Energy          =    -551.6001290179253829 [Eh]
	 Singles Energy            =      -0.0000000000000000 [Eh]
	 Same-Spin Energy          =      -0.5791453376837175 [Eh]
	 Opposite-Spin Energy      =      -1.8005893738559242 [Eh]
	 Correlation Energy        =      -2.3797347115396414 [Eh]
	 Total Energy              =    -553.9798637294650234 [Eh]

	 ================> DF-SCS-MP2 Energies <==================
	-----------------------------------------------------------
	 SCS Same-Spin Scale       =       0.3333333333333333 [-]
	 SCS Opposite-Spin Scale   =       1.2000000000000000 [-]
	 SCS Same-Spin Energy      =      -0.1930484458945725 [Eh]
	 SCS Opposite-Spin Energy  =      -2.1607072486271091 [Eh]
	 SCS Correlation Energy    =      -2.3537556945216815 [Eh]
	 SCS Total Energy          =    -553.9538847124471204 [Eh]
	-----------------------------------------------------------

  Dipole Moment: [D]
     X:    -0.0715      Y:    -0.1365      Z:     0.3290     Total:     0.3633

*** Psi4 exiting successfully. Buy a developer a beer!
