                               Psi4 1.3.2 release

  ==> Input File <==

--------------------------------------------------------------------------
#psi4
#
memory 32 gb

molecule  {
0 1
  O        2.4968318     0.5218960    -0.0529860
  O        1.5746620    -1.5220150     0.0896580
  N       -1.1191790    -1.6921850    -0.1509940
  C       -1.0966210    -0.3229200    -0.0500550
  C        0.1267050     0.4076130    -0.0279230
  C       -2.3003260     0.4165330    -0.0467730
  C        0.1050810     1.8109880     0.0359760
  C       -2.2954060     1.8037730     0.0119910
  C       -1.0915490     2.5140600     0.0407670
  C        1.4212810    -0.3016580     0.0102200
  C       -2.3257850    -2.4585570     0.0736050
  C        3.7618060    -0.1198990    -0.0066490
  H       -3.2501560    -0.1077310    -0.0690300
  H        1.0507040     2.3420820     0.0640380
  H       -0.2300450    -2.1418000     0.0381510
  H       -3.2442430     2.3364260     0.0191250
  H       -1.0894800     3.5992760     0.0899090
  H       -2.7979590    -2.2384410     1.0412790
  H       -2.0612830    -3.5169920     0.0485590
  H       -3.0612710    -2.2783540    -0.7172980
  H        3.8686140    -0.8046650    -0.8491430
  H        3.8704280    -0.6765840     0.9253170
  H        4.4925120     0.6845290    -0.0653970
units angstrom
no_reorient  #important for SAPT in psi4, default
symmetry c1  #important for SAPT in psi4, default
}

set PROPERTIES_ORIGIN ["COM"]
properties('MP2/aug-cc-pvtz', properties = ['dipole'])
--------------------------------------------------------------------------

    Molecular point group: c1
  Charge       = 0
  Multiplicity = 1
  Basis Set: AUG-CC-PVTZ
    Blend: AUG-CC-PVTZ
  Basis Set: (AUG-CC-PVTZ AUX)
    Blend: AUG-CC-PVTZ-JKFIT

    Orbital Energies [Eh]
    ---------------------

    Doubly Occupied:

       1A    -20.601355     2A    -20.541251     3A    -15.563623
       4A    -11.386148     5A    -11.299275     6A    -11.281727
       7A    -11.258719     8A    -11.252464     9A    -11.250952
      10A    -11.241096    11A    -11.228243    12A    -11.224089
      13A     -1.457367    14A     -1.350882    15A     -1.246124
      16A     -1.142919    17A     -1.047290    18A     -1.010305
      19A     -0.970036    20A     -0.923565    21A     -0.864737
      22A     -0.809709    23A     -0.784691    24A     -0.730221
      25A     -0.700623    26A     -0.674312    27A     -0.671233
      28A     -0.661813    29A     -0.630891    30A     -0.617098
      31A     -0.612412    32A     -0.583926    33A     -0.579429
      34A     -0.555184    35A     -0.542613    36A     -0.534680
      37A     -0.522129    38A     -0.506891    39A     -0.501659
      40A     -0.463122    41A     -0.444963    42A     -0.428021
      43A     -0.350217    44A     -0.292139

  @DF-RHF Final Energy:  -551.60241019606201

   => Energetics <=

    Nuclear Repulsion Energy =            688.1265045185294866
    One-Electron Energy =               -2116.7775439447746066
    Two-Electron Energy =                 877.0486292301829963
    Total Energy =                       -551.6024101960620101
  Basis Set: (AUG-CC-PVTZ AUX)
    Blend: AUG-CC-PVTZ-RI
    Molecular point group: c1

    Geometry (in Angstrom), charge = 0, multiplicity = 1:

       Center              X                  Y                   Z               Mass
    ------------   -----------------  -----------------  -----------------  -----------------
         O            2.480826649092     0.506858322310    -0.049931192423    15.994914619570
         O            1.558656849092    -1.537052677690     0.092712807577    15.994914619570
         N           -1.135184150908    -1.707222677690    -0.147939192423    14.003074004430
         C           -1.112626150908    -0.337957677690    -0.047000192423    12.000000000000
         C            0.110699849092     0.392575322310    -0.024868192423    12.000000000000
         C           -2.316331150908     0.401495322310    -0.043718192423    12.000000000000
         C            0.089075849092     1.795950322310     0.039030807577    12.000000000000
         C           -2.311411150908     1.788735322310     0.015045807577    12.000000000000
         C           -1.107554150908     2.499022322310     0.043821807577    12.000000000000
         C            1.405275849092    -0.316695677690     0.013274807577    12.000000000000
         C           -2.341790150908    -2.473594677690     0.076659807577    12.000000000000
         C            3.745800849092    -0.134936677690    -0.003594192423    12.000000000000
         H           -3.266161150908    -0.122768677690    -0.065975192423     1.007825032230
         H            1.034698849092     2.327044322310     0.067092807577     1.007825032230
         H           -0.246050150908    -2.156837677690     0.041205807577     1.007825032230
         H           -3.260248150908     2.321388322310     0.022179807577     1.007825032230
         H           -1.105485150908     3.584238322310     0.092963807577     1.007825032230
         H           -2.813964150908    -2.253478677690     1.044333807577     1.007825032230
         H           -2.077288150908    -3.532029677690     0.051613807577     1.007825032230
         H           -3.077276150908    -2.293391677690    -0.714243192423     1.007825032230
         H            3.852608849092    -0.819702677690    -0.846088192423     1.007825032230
         H            3.854422849092    -0.691621677690     0.928371807577     1.007825032230
         H            4.476506849092     0.669491322310    -0.062342192423     1.007825032230

  Basis Set: AUG-CC-PVTZ
    Blend: AUG-CC-PVTZ
  Basis Set: (AUG-CC-PVTZ AUX)
    Blend: AUG-CC-PVTZ-JKFIT
	 Reference Energy          =    -551.6024101960620101 [Eh]
	 Singles Energy            =      -0.0000000000000000 [Eh]
	 Same-Spin Energy          =      -0.5787050826923155 [Eh]
	 Opposite-Spin Energy      =      -1.7991587740913908 [Eh]
	 Correlation Energy        =      -2.3778638567837063 [Eh]
	 Total Energy              =    -553.9802740528457434 [Eh]

	 ================> DF-SCS-MP2 Energies <==================
	-----------------------------------------------------------
	 SCS Same-Spin Scale       =       0.3333333333333333 [-]
	 SCS Opposite-Spin Scale   =       1.2000000000000000 [-]
	 SCS Same-Spin Energy      =      -0.1929016942307718 [Eh]
	 SCS Opposite-Spin Energy  =      -2.1589905289096687 [Eh]
	 SCS Correlation Energy    =      -2.3518922231404407 [Eh]
	 SCS Total Energy          =    -553.9543024192024632 [Eh]
	-----------------------------------------------------------

  Dipole Moment: [D]
     X:    -0.2731      Y:    -0.0503      Z:     0.3246     Total:     0.4272

*** Psi4 exiting successfully. Buy a developer a beer!
