                               Psi4 1.4a3.dev225

  ==> Input File <==

--------------------------------------------------------------------------
#psi4
#
memory 32 gb

molecule  {
0 1
  O        2.4822540     0.5405090    -0.0540980
  O        1.5746620    -1.5220150     0.0896580
  N       -1.1191790    -1.6921850    -0.1509940
  C       -1.0966210    -0.3229200    -0.0500550
  C        0.1267050     0.4076130    -0.0279230
  C       -2.3003260     0.4165330    -0.0467730
  C        0.1050810     1.8109880     0.0359760
  C       -2.2954060     1.8037730     0.0119910
  C       -1.0915490     2.5140600     0.0407670
  C        1.4651164    -0.3256745     0.0115116
  C       -2.3257850    -2.4585570     0.0736050
  C        3.7618060    -0.1198990    -0.0066490
  H       -3.2501560    -0.1077310    -0.0690300
  H        1.0507040     2.3420820     0.0640380
  H       -0.2300450    -2.1418000     0.0381510
  H       -3.2442430     2.3364260     0.0191250
  H       -1.0894800     3.5992760     0.0899090
  H       -2.7979590    -2.2384410     1.0412790
  H       -2.0612830    -3.5169920     0.0485590
  H       -3.0612710    -2.2783540    -0.7172980
  H        3.8686140    -0.8046650    -0.8491430
  H        3.8704280    -0.6765840     0.9253170
  H        4.4925120     0.6845290    -0.0653970
units angstrom
no_reorient  #important for SAPT in psi4, default
symmetry c1  #important for SAPT in psi4, default
}

set PROPERTIES_ORIGIN ["COM"]
properties('MP2/aug-cc-pvtz', properties = ['dipole'])
--------------------------------------------------------------------------

    Molecular point group: c1
  Charge       = 0
  Multiplicity = 1
  Basis Set: AUG-CC-PVTZ
    Blend: AUG-CC-PVTZ
  Basis Set: (AUG-CC-PVTZ AUX)
    Blend: AUG-CC-PVTZ-JKFIT

    Orbital Energies [Eh]
    ---------------------

    Doubly Occupied:

       1A    -20.609351     2A    -20.547583     3A    -15.560263
       4A    -11.385847     5A    -11.293498     6A    -11.288207
       7A    -11.256678     8A    -11.246948     9A    -11.245484
      10A    -11.239352    11A    -11.224520    12A    -11.220433
      13A     -1.469863    14A     -1.370933    15A     -1.242808
      16A     -1.137305    17A     -1.038315    18A     -1.006129
      19A     -0.971909    20A     -0.920881    21A     -0.856035
      22A     -0.805687    23A     -0.788042    24A     -0.730076
      25A     -0.697769    26A     -0.682548    27A     -0.677622
      28A     -0.660805    29A     -0.627829    30A     -0.614190
      31A     -0.609970    32A     -0.580839    33A     -0.575068
      34A     -0.561272    35A     -0.539693    36A     -0.537674
      37A     -0.529357    38A     -0.506707    39A     -0.499074
      40A     -0.474121    41A     -0.443495    42A     -0.425269
      43A     -0.345198    44A     -0.287927

  @DF-RHF Final Energy:  -551.60169553292201

   => Energetics <=

    Nuclear Repulsion Energy =            687.9288357080886271
    One-Electron Energy =               -2116.3959121406660415
    Two-Electron Energy =                 876.8653808996554062
    Total Energy =                       -551.6016955329220082
  Basis Set: (AUG-CC-PVTZ AUX)
    Blend: AUG-CC-PVTZ-RI
    Molecular point group: c1

    Geometry (in Angstrom), charge = 0, multiplicity = 1:

       Center              X                  Y                   Z               Mass
    ------------   -----------------  -----------------  -----------------  -----------------
         O            2.464474824706     0.525413681138    -0.051029337570    15.994914619570
         O            1.556882824706    -1.537110318862     0.092726662430    15.994914619570
         N           -1.136958175294    -1.707280318862    -0.147925337570    14.003074004430
         C           -1.114400175294    -0.338015318862    -0.046986337570    12.000000000000
         C            0.108925824706     0.392517681138    -0.024854337570    12.000000000000
         C           -2.318105175294     0.401437681138    -0.043704337570    12.000000000000
         C            0.087301824706     1.795892681138     0.039044662430    12.000000000000
         C           -2.313185175294     1.788677681138     0.015059662430    12.000000000000
         C           -1.109328175294     2.498964681138     0.043835662430    12.000000000000
         C            1.447337224706    -0.340769818862     0.014580262430    12.000000000000
         C           -2.343564175294    -2.473652318862     0.076673662430    12.000000000000
         C            3.744026824706    -0.134994318862    -0.003580337570    12.000000000000
         H           -3.267935175294    -0.122826318862    -0.065961337570     1.007825032230
         H            1.032924824706     2.326986681138     0.067106662430     1.007825032230
         H           -0.247824175294    -2.156895318862     0.041219662430     1.007825032230
         H           -3.262022175294     2.321330681138     0.022193662430     1.007825032230
         H           -1.107259175294     3.584180681138     0.092977662430     1.007825032230
         H           -2.815738175294    -2.253536318862     1.044347662430     1.007825032230
         H           -2.079062175294    -3.532087318862     0.051627662430     1.007825032230
         H           -3.079050175294    -2.293449318862    -0.714229337570     1.007825032230
         H            3.850834824706    -0.819760318862    -0.846074337570     1.007825032230
         H            3.852648824706    -0.691679318862     0.928385662430     1.007825032230
         H            4.474732824706     0.669433681138    -0.062328337570     1.007825032230

  Basis Set: AUG-CC-PVTZ
    Blend: AUG-CC-PVTZ
  Basis Set: (AUG-CC-PVTZ AUX)
    Blend: AUG-CC-PVTZ-JKFIT
	 Reference Energy          =    -551.6016955329220082 [Eh]
	 Singles Energy            =      -0.0000000000000000 [Eh]
	 Same-Spin Energy          =      -0.5781345413937760 [Eh]
	 Opposite-Spin Energy      =      -1.7982903599060762 [Eh]
	 Correlation Energy        =      -2.3764249012998522 [Eh]
	 Total Energy              =    -553.9781204342218643 [Eh]

	 ================> DF-SCS-MP2 Energies <==================
	-----------------------------------------------------------
	 SCS Same-Spin Scale       =       0.3333333333333333 [-]
	 SCS Opposite-Spin Scale   =       1.2000000000000000 [-]
	 SCS Same-Spin Energy      =      -0.1927115137979253 [Eh]
	 SCS Opposite-Spin Energy  =      -2.1579484318872915 [Eh]
	 SCS Correlation Energy    =      -2.3506599456852166 [Eh]
	 SCS Total Energy          =    -553.9523554786072737 [Eh]
	-----------------------------------------------------------

  Dipole Moment: [D]
     X:     0.3202      Y:    -0.2572      Z:     0.3342     Total:     0.5295

*** Psi4 exiting successfully. Buy a developer a beer!
