                               Psi4 1.3.2 release

  ==> Input File <==

--------------------------------------------------------------------------
#psi4
#
memory 32 gb

molecule  {
0 1
  O        2.4822540     0.5405090    -0.0540980
  O        1.5746620    -1.5220150     0.0896580
  N       -1.0952219    -1.6923229    -0.1516316
  C       -1.0966210    -0.3229200    -0.0500550
  C        0.1267050     0.4076130    -0.0279230
  C       -2.3003260     0.4165330    -0.0467730
  C        0.1050810     1.8109880     0.0359760
  C       -2.2954060     1.8037730     0.0119910
  C       -1.0915490     2.5140600     0.0407670
  C        1.4212810    -0.3016580     0.0102200
  C       -2.3257850    -2.4585570     0.0736050
  C        3.7618060    -0.1198990    -0.0066490
  H       -3.2501560    -0.1077310    -0.0690300
  H        1.0507040     2.3420820     0.0640380
  H       -0.2300450    -2.1418000     0.0381510
  H       -3.2442430     2.3364260     0.0191250
  H       -1.0894800     3.5992760     0.0899090
  H       -2.7979590    -2.2384410     1.0412790
  H       -2.0612830    -3.5169920     0.0485590
  H       -3.0612710    -2.2783540    -0.7172980
  H        3.8686140    -0.8046650    -0.8491430
  H        3.8704280    -0.6765840     0.9253170
  H        4.4925120     0.6845290    -0.0653970
units angstrom
no_reorient  #important for SAPT in psi4, default
symmetry c1  #important for SAPT in psi4, default
}

set PROPERTIES_ORIGIN ["COM"]
properties('MP2/aug-cc-pvtz', properties = ['dipole'])
--------------------------------------------------------------------------

    Molecular point group: c1
  Charge       = 0
  Multiplicity = 1
  Basis Set: AUG-CC-PVTZ
    Blend: AUG-CC-PVTZ
  Basis Set: (AUG-CC-PVTZ AUX)
    Blend: AUG-CC-PVTZ-JKFIT

    Orbital Energies [Eh]
    ---------------------

    Doubly Occupied:

       1A    -20.602396     2A    -20.541156     3A    -15.562476
       4A    -11.385139     5A    -11.298234     6A    -11.284052
       7A    -11.259895     8A    -11.251943     9A    -11.249732
      10A    -11.239105    11A    -11.228016    12A    -11.223361
      13A     -1.453669    14A     -1.349580    15A     -1.244064
      16A     -1.141479    17A     -1.045887    18A     -1.008399
      19A     -0.968050    20A     -0.924326    21A     -0.864556
      22A     -0.810662    23A     -0.784086    24A     -0.728798
      25A     -0.701922    26A     -0.673260    27A     -0.668297
      28A     -0.659162    29A     -0.628757    30A     -0.616228
      31A     -0.610050    32A     -0.581097    33A     -0.576304
      34A     -0.555572    35A     -0.543735    36A     -0.535168
      37A     -0.525074    38A     -0.507014    39A     -0.500288
      40A     -0.464925    41A     -0.444925    42A     -0.428756
      43A     -0.349273    44A     -0.291903

  @DF-RHF Final Energy:  -551.60135704298625

   => Energetics <=

    Nuclear Repulsion Energy =            688.0127276942620256
    One-Electron Energy =               -2116.6066296716730903
    Two-Electron Energy =                 876.9925449344246999
    Total Energy =                       -551.6013570429862511
  Basis Set: (AUG-CC-PVTZ AUX)
    Blend: AUG-CC-PVTZ-RI
    Molecular point group: c1

    Geometry (in Angstrom), charge = 0, multiplicity = 1:

       Center              X                  Y                   Z               Mass
    ------------   -----------------  -----------------  -----------------  -----------------
         O            2.465629131314     0.523679559819    -0.050881362581    15.994914619570
         O            1.558037131314    -1.538844440181     0.092874637419    15.994914619570
         N           -1.111846768686    -1.709152340181    -0.148414962581    14.003074004430
         C           -1.113245868686    -0.339749440181    -0.046838362581    12.000000000000
         C            0.110080131314     0.390783559819    -0.024706362581    12.000000000000
         C           -2.316950868686     0.399703559819    -0.043556362581    12.000000000000
         C            0.088456131314     1.794158559819     0.039192637419    12.000000000000
         C           -2.312030868686     1.786943559819     0.015207637419    12.000000000000
         C           -1.108173868686     2.497230559819     0.043983637419    12.000000000000
         C            1.404656131314    -0.318487440181     0.013436637419    12.000000000000
         C           -2.342409868686    -2.475386440181     0.076821637419    12.000000000000
         C            3.745181131314    -0.136728440181    -0.003432362581    12.000000000000
         H           -3.266780868686    -0.124560440181    -0.065813362581     1.007825032230
         H            1.034079131314     2.325252559819     0.067254637419     1.007825032230
         H           -0.246669868686    -2.158629440181     0.041367637419     1.007825032230
         H           -3.260867868686     2.319596559819     0.022341637419     1.007825032230
         H           -1.106104868686     3.582446559819     0.093125637419     1.007825032230
         H           -2.814583868686    -2.255270440181     1.044495637419     1.007825032230
         H           -2.077907868686    -3.533821440181     0.051775637419     1.007825032230
         H           -3.077895868686    -2.295183440181    -0.714081362581     1.007825032230
         H            3.851989131314    -0.821494440181    -0.845926362581     1.007825032230
         H            3.853803131314    -0.693413440181     0.928533637419     1.007825032230
         H            4.475887131314     0.667699559819    -0.062180362581     1.007825032230

  Basis Set: AUG-CC-PVTZ
    Blend: AUG-CC-PVTZ
  Basis Set: (AUG-CC-PVTZ AUX)
    Blend: AUG-CC-PVTZ-JKFIT
	 Reference Energy          =    -551.6013570429862511 [Eh]
	 Singles Energy            =      -0.0000000000000000 [Eh]
	 Same-Spin Energy          =      -0.5786895590691949 [Eh]
	 Opposite-Spin Energy      =      -1.7996725223886232 [Eh]
	 Correlation Energy        =      -2.3783620814578184 [Eh]
	 Total Energy              =    -553.9797191244440455 [Eh]

	 ================> DF-SCS-MP2 Energies <==================
	-----------------------------------------------------------
	 SCS Same-Spin Scale       =       0.3333333333333333 [-]
	 SCS Opposite-Spin Scale   =       1.2000000000000000 [-]
	 SCS Same-Spin Energy      =      -0.1928965196897316 [Eh]
	 SCS Opposite-Spin Energy  =      -2.1596070268663476 [Eh]
	 SCS Correlation Energy    =      -2.3525035465560791 [Eh]
	 SCS Total Energy          =    -553.9538605895422734 [Eh]
	-----------------------------------------------------------

  Dipole Moment: [D]
     X:    -0.2246      Y:    -0.0981      Z:     0.3348     Total:     0.4150

*** Psi4 exiting successfully. Buy a developer a beer!
