                               Psi4 1.3.2 release

  ==> Input File <==

--------------------------------------------------------------------------
#psi4
#
memory 32 gb

molecule  {
0 1
  O        2.4822540     0.5405090    -0.0540980
  O        1.5746620    -1.5220150     0.0896580
  N       -0.9755888    -1.6867593    -0.1543520
  C       -1.0966210    -0.3229200    -0.0500550
  C        0.1267050     0.4076130    -0.0279230
  C       -2.3003260     0.4165330    -0.0467730
  C        0.1050810     1.8109880     0.0359760
  C       -2.2954060     1.8037730     0.0119910
  C       -1.0915490     2.5140600     0.0407670
  C        1.4212810    -0.3016580     0.0102200
  C       -2.3257850    -2.4585570     0.0736050
  C        3.7618060    -0.1198990    -0.0066490
  H       -3.2501560    -0.1077310    -0.0690300
  H        1.0507040     2.3420820     0.0640380
  H       -0.2300450    -2.1418000     0.0381510
  H       -3.2442430     2.3364260     0.0191250
  H       -1.0894800     3.5992760     0.0899090
  H       -2.7979590    -2.2384410     1.0412790
  H       -2.0612830    -3.5169920     0.0485590
  H       -3.0612710    -2.2783540    -0.7172980
  H        3.8686140    -0.8046650    -0.8491430
  H        3.8704280    -0.6765840     0.9253170
  H        4.4925120     0.6845290    -0.0653970
units angstrom
no_reorient  #important for SAPT in psi4, default
symmetry c1  #important for SAPT in psi4, default
}

set PROPERTIES_ORIGIN ["COM"]
properties('MP2/aug-cc-pvtz', properties = ['dipole'])
--------------------------------------------------------------------------

    Molecular point group: c1
  Charge       = 0
  Multiplicity = 1
  Basis Set: AUG-CC-PVTZ
    Blend: AUG-CC-PVTZ
  Basis Set: (AUG-CC-PVTZ AUX)
    Blend: AUG-CC-PVTZ-JKFIT

    Orbital Energies [Eh]
    ---------------------

    Doubly Occupied:

       1A    -20.600776     2A    -20.538231     3A    -15.558692
       4A    -11.382936     5A    -11.299191     6A    -11.282903
       7A    -11.266869     8A    -11.252964     9A    -11.248562
      10A    -11.236304    11A    -11.230609    12A    -11.223361
      13A     -1.451920    14A     -1.347867    15A     -1.240368
      16A     -1.139928    17A     -1.045016    18A     -1.005253
      19A     -0.966009    20A     -0.930333    21A     -0.864989
      22A     -0.821633    23A     -0.782798    24A     -0.731857
      25A     -0.710883    26A     -0.672797    27A     -0.666839
      28A     -0.651815    29A     -0.628067    30A     -0.615872
      31A     -0.601842    32A     -0.575940    33A     -0.572674
      34A     -0.554804    35A     -0.543386    36A     -0.534161
      37A     -0.525102    38A     -0.508550    39A     -0.493802
      40A     -0.463377    41A     -0.443929    42A     -0.434044
      43A     -0.348790    44A     -0.293636

  @DF-RHF Final Energy:  -551.57363154106963

   => Energetics <=

    Nuclear Repulsion Energy =            688.3340018701175040
    One-Electron Energy =               -2117.2359063427556976
    Two-Electron Energy =                 877.3282729315686765
    Total Energy =                       -551.5736315410696307
  Basis Set: (AUG-CC-PVTZ AUX)
    Blend: AUG-CC-PVTZ-RI
    Molecular point group: c1

    Geometry (in Angstrom), charge = 0, multiplicity = 1:

       Center              X                  Y                   Z               Mass
    ------------   -----------------  -----------------  -----------------  -----------------
         O            2.455481072688     0.523207619035    -0.050650600537    15.994914619570
         O            1.547889072688    -1.539316380965     0.093105399463    15.994914619570
         N           -1.002361727312    -1.704060680965    -0.150904600537    14.003074004430
         C           -1.123393927312    -0.340221380965    -0.046607600537    12.000000000000
         C            0.099932072688     0.390311619035    -0.024475600537    12.000000000000
         C           -2.327098927312     0.399231619035    -0.043325600537    12.000000000000
         C            0.078308072688     1.793686619035     0.039423399463    12.000000000000
         C           -2.322178927312     1.786471619035     0.015438399463    12.000000000000
         C           -1.118321927312     2.496758619035     0.044214399463    12.000000000000
         C            1.394508072688    -0.318959380965     0.013667399463    12.000000000000
         C           -2.352557927312    -2.475858380965     0.077052399463    12.000000000000
         C            3.735033072688    -0.137200380965    -0.003201600537    12.000000000000
         H           -3.276928927312    -0.125032380965    -0.065582600537     1.007825032230
         H            1.023931072688     2.324780619035     0.067485399463     1.007825032230
         H           -0.256817927312    -2.159101380965     0.041598399463     1.007825032230
         H           -3.271015927312     2.319124619035     0.022572399463     1.007825032230
         H           -1.116252927312     3.581974619035     0.093356399463     1.007825032230
         H           -2.824731927312    -2.255742380965     1.044726399463     1.007825032230
         H           -2.088055927312    -3.534293380965     0.052006399463     1.007825032230
         H           -3.088043927312    -2.295655380965    -0.713850600537     1.007825032230
         H            3.841841072688    -0.821966380965    -0.845695600537     1.007825032230
         H            3.843655072688    -0.693885380965     0.928764399463     1.007825032230
         H            4.465739072688     0.667227619035    -0.061949600537     1.007825032230

  Basis Set: AUG-CC-PVTZ
    Blend: AUG-CC-PVTZ
  Basis Set: (AUG-CC-PVTZ AUX)
    Blend: AUG-CC-PVTZ-JKFIT
	 Reference Energy          =    -551.5736315410696307 [Eh]
	 Singles Energy            =      -0.0000000000000000 [Eh]
	 Same-Spin Energy          =      -0.5782912820228063 [Eh]
	 Opposite-Spin Energy      =      -1.8003701048831087 [Eh]
	 Correlation Energy        =      -2.3786613869059150 [Eh]
	 Total Energy              =    -553.9522929279755772 [Eh]

	 ================> DF-SCS-MP2 Energies <==================
	-----------------------------------------------------------
	 SCS Same-Spin Scale       =       0.3333333333333333 [-]
	 SCS Opposite-Spin Scale   =       1.2000000000000000 [-]
	 SCS Same-Spin Energy      =      -0.1927637606742688 [Eh]
	 SCS Opposite-Spin Energy  =      -2.1604441258597302 [Eh]
	 SCS Correlation Energy    =      -2.3532078865339989 [Eh]
	 SCS Total Energy          =    -553.9268394276036815 [Eh]
	-----------------------------------------------------------

  Dipole Moment: [D]
     X:    -0.4642      Y:    -0.0954      Z:     0.3719     Total:     0.6025

*** Psi4 exiting successfully. Buy a developer a beer!
