                               Psi4 1.4a3.dev225

  ==> Input File <==

--------------------------------------------------------------------------
#psi4
#
memory 32 gb

molecule  {
0 1
  O        2.4822540     0.5405090    -0.0540980
  O        1.5746620    -1.5220150     0.0896580
  N       -1.1191790    -1.6921850    -0.1509940
  C       -1.0966210    -0.3229200    -0.0500550
  C        0.1267050     0.4076130    -0.0279230
  C       -2.3003260     0.4165330    -0.0467730
  C        0.1050810     1.8109880     0.0359760
  C       -2.2954060     1.8037730     0.0119910
  C       -1.0915490     2.5140600     0.0407670
  C        1.4275032    -0.3511646     0.0134426
  C       -2.3257850    -2.4585570     0.0736050
  C        3.7618060    -0.1198990    -0.0066490
  H       -3.2501560    -0.1077310    -0.0690300
  H        1.0507040     2.3420820     0.0640380
  H       -0.2300450    -2.1418000     0.0381510
  H       -3.2442430     2.3364260     0.0191250
  H       -1.0894800     3.5992760     0.0899090
  H       -2.7979590    -2.2384410     1.0412790
  H       -2.0612830    -3.5169920     0.0485590
  H       -3.0612710    -2.2783540    -0.7172980
  H        3.8686140    -0.8046650    -0.8491430
  H        3.8704280    -0.6765840     0.9253170
  H        4.4925120     0.6845290    -0.0653970
units angstrom
no_reorient  #important for SAPT in psi4, default
symmetry c1  #important for SAPT in psi4, default
}

set PROPERTIES_ORIGIN ["COM"]
properties('MP2/aug-cc-pvtz', properties = ['dipole'])
--------------------------------------------------------------------------

    Molecular point group: c1
  Charge       = 0
  Multiplicity = 1
  Basis Set: AUG-CC-PVTZ
    Blend: AUG-CC-PVTZ
  Basis Set: (AUG-CC-PVTZ AUX)
    Blend: AUG-CC-PVTZ-JKFIT

    Orbital Energies [Eh]
    ---------------------

    Doubly Occupied:

       1A    -20.596617     2A    -20.553574     3A    -15.563278
       4A    -11.384421     5A    -11.295453     6A    -11.281591
       7A    -11.258688     8A    -11.249201     9A    -11.247824
      10A    -11.240094    11A    -11.226054    12A    -11.222067
      13A     -1.462976    14A     -1.369893    15A     -1.245890
      16A     -1.139494    17A     -1.040275    18A     -1.008210
      19A     -0.962374    20A     -0.922127    21A     -0.860533
      22A     -0.807304    23A     -0.782923    24A     -0.727094
      25A     -0.701962    26A     -0.682819    27A     -0.667640
      28A     -0.660270    29A     -0.627470    30A     -0.616211
      31A     -0.611913    32A     -0.584000    33A     -0.574665
      34A     -0.564868    35A     -0.542316    36A     -0.536995
      37A     -0.526121    38A     -0.508358    39A     -0.501119
      40A     -0.470243    41A     -0.445261    42A     -0.427394
      43A     -0.347252    44A     -0.290387

  @DF-RHF Final Energy:  -551.60063242526405

   => Energetics <=

    Nuclear Repulsion Energy =            688.0527980352532040
    One-Electron Energy =               -2116.6364252501257397
    Two-Electron Energy =                 876.9829947896085969
    Total Energy =                       -551.6006324252640525
  Basis Set: (AUG-CC-PVTZ AUX)
    Blend: AUG-CC-PVTZ-RI
    Molecular point group: c1

    Geometry (in Angstrom), charge = 0, multiplicity = 1:

       Center              X                  Y                   Z               Mass
    ------------   -----------------  -----------------  -----------------  -----------------
         O            2.467209021415     0.527266619668    -0.051169706744    15.994914619570
         O            1.559617021415    -1.535257380332     0.092586293256    15.994914619570
         N           -1.134223978585    -1.705427380332    -0.148065706744    14.003074004430
         C           -1.111665978585    -0.336162380332    -0.047126706744    12.000000000000
         C            0.111660021415     0.394370619668    -0.024994706744    12.000000000000
         C           -2.315370978585     0.403290619668    -0.043844706744    12.000000000000
         C            0.090036021415     1.797745619668     0.038904293256    12.000000000000
         C           -2.310450978585     1.790530619668     0.014919293256    12.000000000000
         C           -1.106593978585     2.500817619668     0.043695293256    12.000000000000
         C            1.412458221415    -0.364406980332     0.016370893256    12.000000000000
         C           -2.340829978585    -2.471799380332     0.076533293256    12.000000000000
         C            3.746761021415    -0.133141380332    -0.003720706744    12.000000000000
         H           -3.265200978585    -0.120973380332    -0.066101706744     1.007825032230
         H            1.035659021415     2.328839619668     0.066966293256     1.007825032230
         H           -0.245089978585    -2.155042380332     0.041079293256     1.007825032230
         H           -3.259287978585     2.323183619668     0.022053293256     1.007825032230
         H           -1.104524978585     3.586033619668     0.092837293256     1.007825032230
         H           -2.813003978585    -2.251683380332     1.044207293256     1.007825032230
         H           -2.076327978585    -3.530234380332     0.051487293256     1.007825032230
         H           -3.076315978585    -2.291596380332    -0.714369706744     1.007825032230
         H            3.853569021415    -0.817907380332    -0.846214706744     1.007825032230
         H            3.855383021415    -0.689826380332     0.928245293256     1.007825032230
         H            4.477467021415     0.671286619668    -0.062468706744     1.007825032230

  Basis Set: AUG-CC-PVTZ
    Blend: AUG-CC-PVTZ
  Basis Set: (AUG-CC-PVTZ AUX)
    Blend: AUG-CC-PVTZ-JKFIT
	 Reference Energy          =    -551.6006324252640525 [Eh]
	 Singles Energy            =      -0.0000000000000000 [Eh]
	 Same-Spin Energy          =      -0.5780740641640920 [Eh]
	 Opposite-Spin Energy      =      -1.7984025476197880 [Eh]
	 Correlation Energy        =      -2.3764766117838798 [Eh]
	 Total Energy              =    -553.9771090370479669 [Eh]

	 ================> DF-SCS-MP2 Energies <==================
	-----------------------------------------------------------
	 SCS Same-Spin Scale       =       0.3333333333333333 [-]
	 SCS Opposite-Spin Scale   =       1.2000000000000000 [-]
	 SCS Same-Spin Energy      =      -0.1926913547213640 [Eh]
	 SCS Opposite-Spin Energy  =      -2.1580830571437457 [Eh]
	 SCS Correlation Energy    =      -2.3507744118651095 [Eh]
	 SCS Total Energy          =    -553.9514068371291842 [Eh]
	-----------------------------------------------------------

  Dipole Moment: [D]
     X:    -0.1358      Y:    -0.3959      Z:     0.3522     Total:     0.5470

*** Psi4 exiting successfully. Buy a developer a beer!
