                               Psi4 1.4a3.dev225

  ==> Input File <==

--------------------------------------------------------------------------
#psi4
#
memory 32 gb

molecule  {
0 1
  O        2.4822540     0.5405090    -0.0540980
  O        1.5746620    -1.5220150     0.0896580
  N       -1.1191790    -1.6921850    -0.1509940
  C       -1.0966210    -0.3229200    -0.0500550
  C        0.1267050     0.4076130    -0.0279230
  C       -2.3003260     0.4165330    -0.0467730
  C        0.1050810     1.8109880     0.0359760
  C       -2.2954060     1.8037730     0.0119910
  C       -1.0915490     2.5140600     0.0407670
  C        1.4212810    -0.3016580     0.0102200
  C       -2.3257850    -2.4585570     0.0736050
  C        3.8062130    -0.1428185    -0.0050023
  H       -3.2501560    -0.1077310    -0.0690300
  H        1.0507040     2.3420820     0.0640380
  H       -0.2300450    -2.1418000     0.0381510
  H       -3.2442430     2.3364260     0.0191250
  H       -1.0894800     3.5992760     0.0899090
  H       -2.7979590    -2.2384410     1.0412790
  H       -2.0612830    -3.5169920     0.0485590
  H       -3.0612710    -2.2783540    -0.7172980
  H        3.8686140    -0.8046650    -0.8491430
  H        3.8704280    -0.6765840     0.9253170
  H        4.4925120     0.6845290    -0.0653970
units angstrom
no_reorient  #important for SAPT in psi4, default
symmetry c1  #important for SAPT in psi4, default
}

set PROPERTIES_ORIGIN ["COM"]
properties('MP2/aug-cc-pvtz', properties = ['dipole'])
--------------------------------------------------------------------------

    Molecular point group: c1
  Charge       = 0
  Multiplicity = 1
  Basis Set: AUG-CC-PVTZ
    Blend: AUG-CC-PVTZ
  Basis Set: (AUG-CC-PVTZ AUX)
    Blend: AUG-CC-PVTZ-JKFIT

    Orbital Energies [Eh]
    ---------------------

    Doubly Occupied:

       1A    -20.598097     2A    -20.539220     3A    -15.561960
       4A    -11.382862     5A    -11.297026     6A    -11.286110
       7A    -11.257578     8A    -11.250596     9A    -11.248580
      10A    -11.238171    11A    -11.226450    12A    -11.222256
      13A     -1.443824    14A     -1.342813    15A     -1.244431
      16A     -1.140631    17A     -1.043705    18A     -1.008463
      19A     -0.969370    20A     -0.922900    21A     -0.864371
      22A     -0.807825    23A     -0.780489    24A     -0.724858
      25A     -0.698700    26A     -0.667928    27A     -0.664930
      28A     -0.659353    29A     -0.626329    30A     -0.614445
      31A     -0.610963    32A     -0.582163    33A     -0.577286
      34A     -0.561975    35A     -0.541055    36A     -0.536304
      37A     -0.523385    38A     -0.507130    39A     -0.500443
      40A     -0.465185    41A     -0.442181    42A     -0.426417
      43A     -0.348154    44A     -0.290366

  @DF-RHF Final Energy:  -551.59905665291546

   => Energetics <=

    Nuclear Repulsion Energy =            686.9674761739524911
    One-Electron Energy =               -2114.6385134040342564
    Two-Electron Energy =                 876.0719805771663005
    Total Energy =                       -551.5990566529154648
  Basis Set: (AUG-CC-PVTZ AUX)
    Blend: AUG-CC-PVTZ-RI
    Molecular point group: c1

    Geometry (in Angstrom), charge = 0, multiplicity = 1:

       Center              X                  Y                   Z               Mass
    ------------   -----------------  -----------------  -----------------  -----------------
         O            2.464433273686     0.525333937490    -0.051055150669    15.994914619570
         O            1.556841273686    -1.537190062510     0.092700849331    15.994914619570
         N           -1.136999726314    -1.707360062510    -0.147951150669    14.003074004430
         C           -1.114441726314    -0.338095062510    -0.047012150669    12.000000000000
         C            0.108884273686     0.392437937490    -0.024880150669    12.000000000000
         C           -2.318146726314     0.401357937490    -0.043730150669    12.000000000000
         C            0.087260273686     1.795812937490     0.039018849331    12.000000000000
         C           -2.313226726314     1.788597937490     0.015033849331    12.000000000000
         C           -1.109369726314     2.498884937490     0.043809849331    12.000000000000
         C            1.403460273686    -0.316833062510     0.013262849331    12.000000000000
         C           -2.343605726314    -2.473732062510     0.076647849331    12.000000000000
         C            3.788392273686    -0.157993562510    -0.001959450669    12.000000000000
         H           -3.267976726314    -0.122906062510    -0.065987150669     1.007825032230
         H            1.032883273686     2.326906937490     0.067080849331     1.007825032230
         H           -0.247865726314    -2.156975062510     0.041193849331     1.007825032230
         H           -3.262063726314     2.321250937490     0.022167849331     1.007825032230
         H           -1.107300726314     3.584100937490     0.092951849331     1.007825032230
         H           -2.815779726314    -2.253616062510     1.044321849331     1.007825032230
         H           -2.079103726314    -3.532167062510     0.051601849331     1.007825032230
         H           -3.079091726314    -2.293529062510    -0.714255150669     1.007825032230
         H            3.850793273686    -0.819840062510    -0.846100150669     1.007825032230
         H            3.852607273686    -0.691759062510     0.928359849331     1.007825032230
         H            4.474691273686     0.669353937490    -0.062354150669     1.007825032230

  Basis Set: AUG-CC-PVTZ
    Blend: AUG-CC-PVTZ
  Basis Set: (AUG-CC-PVTZ AUX)
    Blend: AUG-CC-PVTZ-JKFIT
	 Reference Energy          =    -551.5990566529154648 [Eh]
	 Singles Energy            =      -0.0000000000000000 [Eh]
	 Same-Spin Energy          =      -0.5789417169959175 [Eh]
	 Opposite-Spin Energy      =      -1.8004621796897098 [Eh]
	 Correlation Energy        =      -2.3794038966856270 [Eh]
	 Total Energy              =    -553.9784605496010954 [Eh]

	 ================> DF-SCS-MP2 Energies <==================
	-----------------------------------------------------------
	 SCS Same-Spin Scale       =       0.3333333333333333 [-]
	 SCS Opposite-Spin Scale   =       1.2000000000000000 [-]
	 SCS Same-Spin Energy      =      -0.1929805723319725 [Eh]
	 SCS Opposite-Spin Energy  =      -2.1605546156276518 [Eh]
	 SCS Correlation Energy    =      -2.3535351879596242 [Eh]
	 SCS Total Energy          =    -553.9525918408751295 [Eh]
	-----------------------------------------------------------

  Dipole Moment: [D]
     X:     0.0506      Y:    -0.1329      Z:     0.3292     Total:     0.3586

*** Psi4 exiting successfully. Buy a developer a beer!
