                               Psi4 1.3.2 release

  ==> Input File <==

--------------------------------------------------------------------------
#psi4
#
memory 32 gb

molecule  {
0 1
  O        2.4822540     0.5405090    -0.0540980
  O        1.5746620    -1.5220150     0.0896580
  N       -1.0712653    -1.6920438    -0.1522383
  C       -1.0966210    -0.3229200    -0.0500550
  C        0.1267050     0.4076130    -0.0279230
  C       -2.3003260     0.4165330    -0.0467730
  C        0.1050810     1.8109880     0.0359760
  C       -2.2954060     1.8037730     0.0119910
  C       -1.0915490     2.5140600     0.0407670
  C        1.4212810    -0.3016580     0.0102200
  C       -2.3257850    -2.4585570     0.0736050
  C        3.7618060    -0.1198990    -0.0066490
  H       -3.2501560    -0.1077310    -0.0690300
  H        1.0507040     2.3420820     0.0640380
  H       -0.2300450    -2.1418000     0.0381510
  H       -3.2442430     2.3364260     0.0191250
  H       -1.0894800     3.5992760     0.0899090
  H       -2.7979590    -2.2384410     1.0412790
  H       -2.0612830    -3.5169920     0.0485590
  H       -3.0612710    -2.2783540    -0.7172980
  H        3.8686140    -0.8046650    -0.8491430
  H        3.8704280    -0.6765840     0.9253170
  H        4.4925120     0.6845290    -0.0653970
units angstrom
no_reorient  #important for SAPT in psi4, default
symmetry c1  #important for SAPT in psi4, default
}

set PROPERTIES_ORIGIN ["COM"]
properties('MP2/aug-cc-pvtz', properties = ['dipole'])
--------------------------------------------------------------------------

    Molecular point group: c1
  Charge       = 0
  Multiplicity = 1
  Basis Set: AUG-CC-PVTZ
    Blend: AUG-CC-PVTZ
  Basis Set: (AUG-CC-PVTZ AUX)
    Blend: AUG-CC-PVTZ-JKFIT

    Orbital Energies [Eh]
    ---------------------

    Doubly Occupied:

       1A    -20.602046     2A    -20.540528     3A    -15.561775
       4A    -11.384668     5A    -11.298210     6A    -11.283803
       7A    -11.261389     8A    -11.252130     9A    -11.249474
      10A    -11.238489    11A    -11.228488    12A    -11.223325
      13A     -1.453285    14A     -1.349179    15A     -1.242808
      16A     -1.140962    17A     -1.045685    18A     -1.007349
      19A     -0.967665    20A     -0.925525    21A     -0.864613
      22A     -0.812452    23A     -0.783873    24A     -0.729060
      25A     -0.703851    26A     -0.673159    27A     -0.667976
      28A     -0.657491    29A     -0.628297    30A     -0.616108
      31A     -0.608264    32A     -0.579045    33A     -0.576072
      34A     -0.555332    35A     -0.544872    36A     -0.535131
      37A     -0.525242    38A     -0.507285    39A     -0.499292
      40A     -0.464560    41A     -0.444996    42A     -0.429933
      43A     -0.349143    44A     -0.292276

  @DF-RHF Final Energy:  -551.59931712417347

   => Energetics <=

    Nuclear Repulsion Energy =            688.0513088563975543
    One-Electron Energy =               -2116.6910385897649576
    Two-Electron Energy =                 877.0404126091939361
    Total Energy =                       -551.5993171241734672
  Basis Set: (AUG-CC-PVTZ AUX)
    Blend: AUG-CC-PVTZ-RI
    Molecular point group: c1

    Geometry (in Angstrom), charge = 0, multiplicity = 1:

       Center              X                  Y                   Z               Mass
    ------------   -----------------  -----------------  -----------------  -----------------
         O            2.463596976490     0.523655884739    -0.050829898336    15.994914619570
         O            1.556004976490    -1.538868115261     0.092926101664    15.994914619570
         N           -1.089922323510    -1.708896915261    -0.148970198336    14.003074004430
         C           -1.115278023510    -0.339773115261    -0.046786898336    12.000000000000
         C            0.108047976490     0.390759884739    -0.024654898336    12.000000000000
         C           -2.318983023510     0.399679884739    -0.043504898336    12.000000000000
         C            0.086423976490     1.794134884739     0.039244101664    12.000000000000
         C           -2.314063023510     1.786919884739     0.015259101664    12.000000000000
         C           -1.110206023510     2.497206884739     0.044035101664    12.000000000000
         C            1.402623976490    -0.318511115261     0.013488101664    12.000000000000
         C           -2.344442023510    -2.475410115261     0.076873101664    12.000000000000
         C            3.743148976490    -0.136752115261    -0.003380898336    12.000000000000
         H           -3.268813023510    -0.124584115261    -0.065761898336     1.007825032230
         H            1.032046976490     2.325228884739     0.067306101664     1.007825032230
         H           -0.248702023510    -2.158653115261     0.041419101664     1.007825032230
         H           -3.262900023510     2.319572884739     0.022393101664     1.007825032230
         H           -1.108137023510     3.582422884739     0.093177101664     1.007825032230
         H           -2.816616023510    -2.255294115261     1.044547101664     1.007825032230
         H           -2.079940023510    -3.533845115261     0.051827101664     1.007825032230
         H           -3.079928023510    -2.295207115261    -0.714029898336     1.007825032230
         H            3.849956976490    -0.821518115261    -0.845874898336     1.007825032230
         H            3.851770976490    -0.693437115261     0.928585101664     1.007825032230
         H            4.473854976490     0.667675884739    -0.062128898336     1.007825032230

  Basis Set: AUG-CC-PVTZ
    Blend: AUG-CC-PVTZ
  Basis Set: (AUG-CC-PVTZ AUX)
    Blend: AUG-CC-PVTZ-JKFIT
	 Reference Energy          =    -551.5993171241734672 [Eh]
	 Singles Energy            =      -0.0000000000000000 [Eh]
	 Same-Spin Energy          =      -0.5785155973237379 [Eh]
	 Opposite-Spin Energy      =      -1.7996042307450173 [Eh]
	 Correlation Energy        =      -2.3781198280687552 [Eh]
	 Total Energy              =    -553.9774369522422148 [Eh]

	 ================> DF-SCS-MP2 Energies <==================
	-----------------------------------------------------------
	 SCS Same-Spin Scale       =       0.3333333333333333 [-]
	 SCS Opposite-Spin Scale   =       1.2000000000000000 [-]
	 SCS Same-Spin Energy      =      -0.1928385324412460 [Eh]
	 SCS Opposite-Spin Energy  =      -2.1595250768940208 [Eh]
	 SCS Correlation Energy    =      -2.3523636093352667 [Eh]
	 SCS Total Energy          =    -553.9516807335087378 [Eh]
	-----------------------------------------------------------

  Dipole Moment: [D]
     X:    -0.2765      Y:    -0.1008      Z:     0.3426     Total:     0.4516

*** Psi4 exiting successfully. Buy a developer a beer!
