                               Psi4 1.3.2 release

  ==> Input File <==

--------------------------------------------------------------------------
#psi4
#
memory 32 gb

molecule  {
0 1
  O        2.4551474     0.4617403    -0.1798036
  O        1.5746620    -1.5220150     0.0896580
  N       -1.1191790    -1.6921850    -0.1509940
  C       -1.0966210    -0.3229200    -0.0500550
  C        0.1267050     0.4076130    -0.0279230
  C       -2.3003260     0.4165330    -0.0467730
  C        0.1050810     1.8109880     0.0359760
  C       -2.2954060     1.8037730     0.0119910
  C       -1.0915490     2.5140600     0.0407670
  C        1.4212810    -0.3016580     0.0102200
  C       -2.3257850    -2.4585570     0.0736050
  C        3.7618060    -0.1198990    -0.0066490
  H       -3.2501560    -0.1077310    -0.0690300
  H        1.0507040     2.3420820     0.0640380
  H       -0.2300450    -2.1418000     0.0381510
  H       -3.2442430     2.3364260     0.0191250
  H       -1.0894800     3.5992760     0.0899090
  H       -2.7979590    -2.2384410     1.0412790
  H       -2.0612830    -3.5169920     0.0485590
  H       -3.0612710    -2.2783540    -0.7172980
  H        3.8686140    -0.8046650    -0.8491430
  H        3.8704280    -0.6765840     0.9253170
  H        4.4925120     0.6845290    -0.0653970
units angstrom
no_reorient  #important for SAPT in psi4, default
symmetry c1  #important for SAPT in psi4, default
}

set PROPERTIES_ORIGIN ["COM"]
properties('MP2/aug-cc-pvtz', properties = ['dipole'])
--------------------------------------------------------------------------

    Molecular point group: c1
  Charge       = 0
  Multiplicity = 1
  Basis Set: AUG-CC-PVTZ
    Blend: AUG-CC-PVTZ
  Basis Set: (AUG-CC-PVTZ AUX)
    Blend: AUG-CC-PVTZ-JKFIT

    Orbital Energies [Eh]
    ---------------------

    Doubly Occupied:

       1A    -20.603367     2A    -20.530489     3A    -15.560853
       4A    -11.378132     5A    -11.296750     6A    -11.289721
       7A    -11.256936     8A    -11.250533     9A    -11.249554
      10A    -11.238259    11A    -11.226564    12A    -11.222781
      13A     -1.474588    14A     -1.345003    15A     -1.243616
      16A     -1.141077    17A     -1.047017    18A     -1.008514
      19A     -0.979334    20A     -0.922475    21A     -0.863215
      22A     -0.808297    23A     -0.785863    24A     -0.733414
      25A     -0.698237    26A     -0.680217    27A     -0.674354
      28A     -0.660212    29A     -0.630939    30A     -0.614727
      31A     -0.610716    32A     -0.584138    33A     -0.581349
      34A     -0.555430    35A     -0.540959    36A     -0.533876
      37A     -0.519228    38A     -0.507016    39A     -0.500913
      40A     -0.459972    41A     -0.441329    42A     -0.426059
      43A     -0.348578    44A     -0.290046

  @DF-RHF Final Energy:  -551.60011819318333

   => Energetics <=

    Nuclear Repulsion Energy =            689.5741520445582182
    One-Electron Energy =               -2119.7192447501010975
    Two-Electron Energy =                 878.5449745123596585
    Total Energy =                       -551.6001181931833344
  Basis Set: (AUG-CC-PVTZ AUX)
    Blend: AUG-CC-PVTZ-RI
    Molecular point group: c1

    Geometry (in Angstrom), charge = 0, multiplicity = 1:

       Center              X                  Y                   Z               Mass
    ------------   -----------------  -----------------  -----------------  -----------------
         O            2.443181154740     0.452531258358    -0.164461118357    15.994914619570
         O            1.562695754740    -1.531224041642     0.105000481643    15.994914619570
         N           -1.131145245260    -1.701394041642    -0.135651518357    14.003074004430
         C           -1.108587245260    -0.332129041642    -0.034712518357    12.000000000000
         C            0.114738754740     0.398403958358    -0.012580518357    12.000000000000
         C           -2.312292245260     0.407323958358    -0.031430518357    12.000000000000
         C            0.093114754740     1.801778958358     0.051318481643    12.000000000000
         C           -2.307372245260     1.794563958358     0.027333481643    12.000000000000
         C           -1.103515245260     2.504850958358     0.056109481643    12.000000000000
         C            1.409314754740    -0.310867041642     0.025562481643    12.000000000000
         C           -2.337751245260    -2.467766041642     0.088947481643    12.000000000000
         C            3.749839754740    -0.129108041642     0.008693481643    12.000000000000
         H           -3.262122245260    -0.116940041642    -0.053687518357     1.007825032230
         H            1.038737754740     2.332872958358     0.079380481643     1.007825032230
         H           -0.242011245260    -2.151009041642     0.053493481643     1.007825032230
         H           -3.256209245260     2.327216958358     0.034467481643     1.007825032230
         H           -1.101446245260     3.590066958358     0.105251481643     1.007825032230
         H           -2.809925245260    -2.247650041642     1.056621481643     1.007825032230
         H           -2.073249245260    -3.526201041642     0.063901481643     1.007825032230
         H           -3.073237245260    -2.287563041642    -0.701955518357     1.007825032230
         H            3.856647754740    -0.813874041642    -0.833800518357     1.007825032230
         H            3.858461754740    -0.685793041642     0.940659481643     1.007825032230
         H            4.480545754740     0.675319958358    -0.050054518357     1.007825032230

  Basis Set: AUG-CC-PVTZ
    Blend: AUG-CC-PVTZ
  Basis Set: (AUG-CC-PVTZ AUX)
    Blend: AUG-CC-PVTZ-JKFIT
	 Reference Energy          =    -551.6001181931833344 [Eh]
	 Singles Energy            =      -0.0000000000000000 [Eh]
	 Same-Spin Energy          =      -0.5781287917964117 [Eh]
	 Opposite-Spin Energy      =      -1.7974354742037719 [Eh]
	 Correlation Energy        =      -2.3755642660001834 [Eh]
	 Total Energy              =    -553.9756824591835311 [Eh]

	 ================> DF-SCS-MP2 Energies <==================
	-----------------------------------------------------------
	 SCS Same-Spin Scale       =       0.3333333333333333 [-]
	 SCS Opposite-Spin Scale   =       1.2000000000000000 [-]
	 SCS Same-Spin Energy      =      -0.1927095972654706 [Eh]
	 SCS Opposite-Spin Energy  =      -2.1569225690445264 [Eh]
	 SCS Correlation Energy    =      -2.3496321663099971 [Eh]
	 SCS Total Energy          =    -553.9497503594933505 [Eh]
	-----------------------------------------------------------

  Dipole Moment: [D]
     X:     0.1608      Y:     0.1209      Z:     0.4562     Total:     0.4986

*** Psi4 exiting successfully. Buy a developer a beer!
