                               Psi4 1.4a3.dev225

  ==> Input File <==

--------------------------------------------------------------------------
#psi4
#
memory 32 gb

molecule  {
0 1
  O        2.4822540     0.5405090    -0.0540980
  O        1.5746620    -1.5220150     0.0896580
  N       -1.1191790    -1.6921850    -0.1509940
  C       -1.0966210    -0.3229200    -0.0500550
  C        0.1267050     0.4076130    -0.0279230
  C       -2.3003260     0.4165330    -0.0467730
  C        0.1050810     1.8109880     0.0359760
  C       -2.2954060     1.8037730     0.0119910
  C       -1.0915490     2.5140600     0.0407670
  C        1.4056337    -0.3140783     0.0111686
  C       -2.3257850    -2.4585570     0.0736050
  C        3.7618060    -0.1198990    -0.0066490
  H       -3.2501560    -0.1077310    -0.0690300
  H        1.0507040     2.3420820     0.0640380
  H       -0.2300450    -2.1418000     0.0381510
  H       -3.2442430     2.3364260     0.0191250
  H       -1.0894800     3.5992760     0.0899090
  H       -2.7979590    -2.2384410     1.0412790
  H       -2.0612830    -3.5169920     0.0485590
  H       -3.0612710    -2.2783540    -0.7172980
  H        3.8686140    -0.8046650    -0.8491430
  H        3.8704280    -0.6765840     0.9253170
  H        4.4925120     0.6845290    -0.0653970
units angstrom
no_reorient  #important for SAPT in psi4, default
symmetry c1  #important for SAPT in psi4, default
}

set PROPERTIES_ORIGIN ["COM"]
properties('MP2/aug-cc-pvtz', properties = ['dipole'])
--------------------------------------------------------------------------

    Molecular point group: c1
  Charge       = 0
  Multiplicity = 1
  Basis Set: AUG-CC-PVTZ
    Blend: AUG-CC-PVTZ
  Basis Set: (AUG-CC-PVTZ AUX)
    Blend: AUG-CC-PVTZ-JKFIT

    Orbital Energies [Eh]
    ---------------------

    Doubly Occupied:

       1A    -20.597245     2A    -20.544675     3A    -15.564436
       4A    -11.385132     5A    -11.299135     6A    -11.281433
       7A    -11.259247     8A    -11.252683     9A    -11.250951
      10A    -11.239917    11A    -11.228187    12A    -11.224090
      13A     -1.449117    14A     -1.352039    15A     -1.246955
      16A     -1.142984    17A     -1.046997    18A     -1.010492
      19A     -0.964277    20A     -0.923545    21A     -0.866323
      22A     -0.809704    23A     -0.782463    24A     -0.726814
      25A     -0.701763    26A     -0.673352    27A     -0.664295
      28A     -0.660645    29A     -0.629091    30A     -0.617328
      31A     -0.612743    32A     -0.584729    33A     -0.576049
      34A     -0.557146    35A     -0.543267    36A     -0.535527
      37A     -0.523255    38A     -0.507203    39A     -0.501865
      40A     -0.464581    41A     -0.445371    42A     -0.428423
      43A     -0.350255    44A     -0.292543

  @DF-RHF Final Energy:  -551.60124070808649

   => Energetics <=

    Nuclear Repulsion Energy =            688.0364609618374061
    One-Electron Energy =               -2116.6388626950333673
    Two-Electron Energy =                 877.0011610251095817
    Total Energy =                       -551.6012407080864932
  Basis Set: (AUG-CC-PVTZ AUX)
    Blend: AUG-CC-PVTZ-RI
    Molecular point group: c1

    Geometry (in Angstrom), charge = 0, multiplicity = 1:

       Center              X                  Y                   Z               Mass
    ------------   -----------------  -----------------  -----------------  -----------------
         O            2.468798769560     0.524570724626    -0.051004404050    15.994914619570
         O            1.561206769560    -1.537953275374     0.092751595950    15.994914619570
         N           -1.132634230440    -1.708123275374    -0.147900404050    14.003074004430
         C           -1.110076230440    -0.338858275374    -0.046961404050    12.000000000000
         C            0.113249769560     0.391674724626    -0.024829404050    12.000000000000
         C           -2.313781230440     0.400594724626    -0.043679404050    12.000000000000
         C            0.091625769560     1.795049724626     0.039069595950    12.000000000000
         C           -2.308861230440     1.787834724626     0.015084595950    12.000000000000
         C           -1.105004230440     2.498121724626     0.043860595950    12.000000000000
         C            1.392178469560    -0.330016575374     0.014262195950    12.000000000000
         C           -2.339240230440    -2.474495275374     0.076698595950    12.000000000000
         C            3.748350769560    -0.135837275374    -0.003555404050    12.000000000000
         H           -3.263611230440    -0.123669275374    -0.065936404050     1.007825032230
         H            1.037248769560     2.326143724626     0.067131595950     1.007825032230
         H           -0.243500230440    -2.157738275374     0.041244595950     1.007825032230
         H           -3.257698230440     2.320487724626     0.022218595950     1.007825032230
         H           -1.102935230440     3.583337724626     0.093002595950     1.007825032230
         H           -2.811414230440    -2.254379275374     1.044372595950     1.007825032230
         H           -2.074738230440    -3.532930275374     0.051652595950     1.007825032230
         H           -3.074726230440    -2.294292275374    -0.714204404050     1.007825032230
         H            3.855158769560    -0.820603275374    -0.846049404050     1.007825032230
         H            3.856972769560    -0.692522275374     0.928410595950     1.007825032230
         H            4.479056769560     0.668590724626    -0.062303404050     1.007825032230

  Basis Set: AUG-CC-PVTZ
    Blend: AUG-CC-PVTZ
  Basis Set: (AUG-CC-PVTZ AUX)
    Blend: AUG-CC-PVTZ-JKFIT
	 Reference Energy          =    -551.6012407080864932 [Eh]
	 Singles Energy            =      -0.0000000000000000 [Eh]
	 Same-Spin Energy          =      -0.5789004814008374 [Eh]
	 Opposite-Spin Energy      =      -1.7999287807726987 [Eh]
	 Correlation Energy        =      -2.3788292621735359 [Eh]
	 Total Energy              =    -553.9800699702600468 [Eh]

	 ================> DF-SCS-MP2 Energies <==================
	-----------------------------------------------------------
	 SCS Same-Spin Scale       =       0.3333333333333333 [-]
	 SCS Opposite-Spin Scale   =       1.2000000000000000 [-]
	 SCS Same-Spin Energy      =      -0.1929668271336125 [Eh]
	 SCS Opposite-Spin Energy  =      -2.1599145369272383 [Eh]
	 SCS Correlation Energy    =      -2.3528813640608508 [Eh]
	 SCS Total Energy          =    -553.9541220721473564 [Eh]
	-----------------------------------------------------------

  Dipole Moment: [D]
     X:    -0.3653      Y:    -0.1596      Z:     0.3351     Total:     0.5207

*** Psi4 exiting successfully. Buy a developer a beer!
