                               Psi4 1.3.2 release

  ==> Input File <==

--------------------------------------------------------------------------
#psi4
#
memory 32 gb

molecule  {
0 1
  O        2.4822540     0.5405090    -0.0540980
  O        1.5746620    -1.5220150     0.0896580
  N       -1.1191790    -1.6921850    -0.1509940
  C       -1.0136068    -0.4468028    -0.0468305
  C        0.1267050     0.4076130    -0.0279230
  C       -2.3003260     0.4165330    -0.0467730
  C        0.1050810     1.8109880     0.0359760
  C       -2.2954060     1.8037730     0.0119910
  C       -1.0915490     2.5140600     0.0407670
  C        1.4212810    -0.3016580     0.0102200
  C       -2.3257850    -2.4585570     0.0736050
  C        3.7618060    -0.1198990    -0.0066490
  H       -3.2501560    -0.1077310    -0.0690300
  H        1.0507040     2.3420820     0.0640380
  H       -0.2300450    -2.1418000     0.0381510
  H       -3.2442430     2.3364260     0.0191250
  H       -1.0894800     3.5992760     0.0899090
  H       -2.7979590    -2.2384410     1.0412790
  H       -2.0612830    -3.5169920     0.0485590
  H       -3.0612710    -2.2783540    -0.7172980
  H        3.8686140    -0.8046650    -0.8491430
  H        3.8704280    -0.6765840     0.9253170
  H        4.4925120     0.6845290    -0.0653970
units angstrom
no_reorient  #important for SAPT in psi4, default
symmetry c1  #important for SAPT in psi4, default
}

set PROPERTIES_ORIGIN ["COM"]
properties('MP2/aug-cc-pvtz', properties = ['dipole'])
--------------------------------------------------------------------------

    Molecular point group: c1
  Charge       = 0
  Multiplicity = 1
  Basis Set: AUG-CC-PVTZ
    Blend: AUG-CC-PVTZ
  Basis Set: (AUG-CC-PVTZ AUX)
    Blend: AUG-CC-PVTZ-JKFIT

    Orbital Energies [Eh]
    ---------------------

    Doubly Occupied:

       1A    -20.597286     2A    -20.537722     3A    -15.584367
       4A    -11.377785     5A    -11.307366     6A    -11.280896
       7A    -11.274987     8A    -11.244786     9A    -11.244602
      10A    -11.232307    11A    -11.231560    12A    -11.213536
      13A     -1.449655    14A     -1.347914    15A     -1.298384
      16A     -1.131612    17A     -1.041518    18A     -1.003210
      19A     -0.967149    20A     -0.938938    21A     -0.854735
      22A     -0.809960    23A     -0.785263    24A     -0.727612
      25A     -0.706684    26A     -0.675462    27A     -0.667471
      28A     -0.664993    29A     -0.637126    30A     -0.632376
      31A     -0.609328    32A     -0.581579    33A     -0.567857
      34A     -0.555727    35A     -0.554074    36A     -0.531210
      37A     -0.515459    38A     -0.507630    39A     -0.493251
      40A     -0.462986    41A     -0.446696    42A     -0.432499
      43A     -0.345428    44A     -0.276848

  @DF-RHF Final Energy:  -551.57361729906665

   => Energetics <=

    Nuclear Repulsion Energy =            688.4332389475396212
    One-Electron Energy =               -2117.3180429057933907
    Two-Electron Energy =                 877.3111866591871149
    Total Energy =                       -551.5736172990666546
  Basis Set: (AUG-CC-PVTZ AUX)
    Blend: AUG-CC-PVTZ-RI
    Molecular point group: c1

    Geometry (in Angstrom), charge = 0, multiplicity = 1:

       Center              X                  Y                   Z               Mass
    ------------   -----------------  -----------------  -----------------  -----------------
         O            2.461626820654     0.532673209942    -0.051169844860    15.994914619570
         O            1.554034820654    -1.529850790058     0.092586155140    15.994914619570
         N           -1.139806179346    -1.700020790058    -0.148065844860    14.003074004430
         C           -1.034233979346    -0.454638590058    -0.043902344860    12.000000000000
         C            0.106077820654     0.399777209942    -0.024994844860    12.000000000000
         C           -2.320953179346     0.408697209942    -0.043844844860    12.000000000000
         C            0.084453820654     1.803152209942     0.038904155140    12.000000000000
         C           -2.316033179346     1.795937209942     0.014919155140    12.000000000000
         C           -1.112176179346     2.506224209942     0.043695155140    12.000000000000
         C            1.400653820654    -0.309493790058     0.013148155140    12.000000000000
         C           -2.346412179346    -2.466392790058     0.076533155140    12.000000000000
         C            3.741178820654    -0.127734790058    -0.003720844860    12.000000000000
         H           -3.270783179346    -0.115566790058    -0.066101844860     1.007825032230
         H            1.030076820654     2.334246209942     0.066966155140     1.007825032230
         H           -0.250672179346    -2.149635790058     0.041079155140     1.007825032230
         H           -3.264870179346     2.328590209942     0.022053155140     1.007825032230
         H           -1.110107179346     3.591440209942     0.092837155140     1.007825032230
         H           -2.818586179346    -2.246276790058     1.044207155140     1.007825032230
         H           -2.081910179346    -3.524827790058     0.051487155140     1.007825032230
         H           -3.081898179346    -2.286189790058    -0.714369844860     1.007825032230
         H            3.847986820654    -0.812500790058    -0.846214844860     1.007825032230
         H            3.849800820654    -0.684419790058     0.928245155140     1.007825032230
         H            4.471884820654     0.676693209942    -0.062468844860     1.007825032230

  Basis Set: AUG-CC-PVTZ
    Blend: AUG-CC-PVTZ
  Basis Set: (AUG-CC-PVTZ AUX)
    Blend: AUG-CC-PVTZ-JKFIT
	 Reference Energy          =    -551.5736172990666546 [Eh]
	 Singles Energy            =      -0.0000000000000000 [Eh]
	 Same-Spin Energy          =      -0.5790255715261627 [Eh]
	 Opposite-Spin Energy      =      -1.8006633543372552 [Eh]
	 Correlation Energy        =      -2.3796889258634177 [Eh]
	 Total Energy              =    -553.9533062249300883 [Eh]

	 ================> DF-SCS-MP2 Energies <==================
	-----------------------------------------------------------
	 SCS Same-Spin Scale       =       0.3333333333333333 [-]
	 SCS Opposite-Spin Scale   =       1.2000000000000000 [-]
	 SCS Same-Spin Energy      =      -0.1930085238420542 [Eh]
	 SCS Opposite-Spin Energy  =      -2.1607960252047063 [Eh]
	 SCS Correlation Energy    =      -2.3538045490467603 [Eh]
	 SCS Total Energy          =    -553.9274218481134540 [Eh]
	-----------------------------------------------------------

  Dipole Moment: [D]
     X:    -0.5427      Y:    -1.0960      Z:     0.2749     Total:     1.2535

*** Psi4 exiting successfully. Buy a developer a beer!
