                               Psi4 1.3.2 release

  ==> Input File <==

--------------------------------------------------------------------------
#psi4
#
memory 32 gb

molecule  {
0 1
  O        2.4822540     0.5405090    -0.0540980
  O        1.5746620    -1.5220150     0.0896580
  N       -1.1191790    -1.6921850    -0.1509940
  C       -1.1896477    -0.3230410    -0.0731286
  C        0.1267050     0.4076130    -0.0279230
  C       -2.3003260     0.4165330    -0.0467730
  C        0.1050810     1.8109880     0.0359760
  C       -2.2954060     1.8037730     0.0119910
  C       -1.0915490     2.5140600     0.0407670
  C        1.4212810    -0.3016580     0.0102200
  C       -2.3257850    -2.4585570     0.0736050
  C        3.7618060    -0.1198990    -0.0066490
  H       -3.2501560    -0.1077310    -0.0690300
  H        1.0507040     2.3420820     0.0640380
  H       -0.2300450    -2.1418000     0.0381510
  H       -3.2442430     2.3364260     0.0191250
  H       -1.0894800     3.5992760     0.0899090
  H       -2.7979590    -2.2384410     1.0412790
  H       -2.0612830    -3.5169920     0.0485590
  H       -3.0612710    -2.2783540    -0.7172980
  H        3.8686140    -0.8046650    -0.8491430
  H        3.8704280    -0.6765840     0.9253170
  H        4.4925120     0.6845290    -0.0653970
units angstrom
no_reorient  #important for SAPT in psi4, default
symmetry c1  #important for SAPT in psi4, default
}

set PROPERTIES_ORIGIN ["COM"]
properties('MP2/aug-cc-pvtz', properties = ['dipole'])
--------------------------------------------------------------------------

    Molecular point group: c1
  Charge       = 0
  Multiplicity = 1
  Basis Set: AUG-CC-PVTZ
    Blend: AUG-CC-PVTZ
  Basis Set: (AUG-CC-PVTZ AUX)
    Blend: AUG-CC-PVTZ-JKFIT

    Orbital Energies [Eh]
    ---------------------

    Doubly Occupied:

       1A    -20.602359     2A    -20.541289     3A    -15.561463
       4A    -11.386017     5A    -11.295672     6A    -11.284150
       7A    -11.255689     8A    -11.254911     9A    -11.251970
      10A    -11.245732    11A    -11.224602    12A    -11.218379
      13A     -1.453552    14A     -1.349283    15A     -1.244990
      16A     -1.142564    17A     -1.045548    18A     -1.014884
      19A     -0.966179    20A     -0.921473    21A     -0.870450
      22A     -0.803829    23A     -0.780890    24A     -0.728756
      25A     -0.706760    26A     -0.675527    27A     -0.668175
      28A     -0.656474    29A     -0.630002    30A     -0.621226
      31A     -0.610866    32A     -0.580327    33A     -0.574932
      34A     -0.554286    35A     -0.541783    36A     -0.537139
      37A     -0.526831    38A     -0.508191    39A     -0.489860
      40A     -0.464881    41A     -0.446033    42A     -0.426835
      43A     -0.350409    44A     -0.292578

  @DF-RHF Final Energy:  -551.59110271235704

   => Energetics <=

    Nuclear Repulsion Energy =            687.4776809648756171
    One-Electron Energy =               -2115.5220818007510388
    Two-Electron Energy =                 876.4532981235183797
    Total Energy =                       -551.5911027123570420
  Basis Set: (AUG-CC-PVTZ AUX)
    Blend: AUG-CC-PVTZ-RI
    Molecular point group: c1

    Geometry (in Angstrom), charge = 0, multiplicity = 1:

       Center              X                  Y                   Z               Mass
    ------------   -----------------  -----------------  -----------------  -----------------
         O            2.474423669883     0.523676658033    -0.049258170808    15.994914619570
         O            1.566831669883    -1.538847341967     0.094497829192    15.994914619570
         N           -1.127009330117    -1.709017341967    -0.146154170808    14.003074004430
         C           -1.197478030117    -0.339873341967    -0.068288770808    12.000000000000
         C            0.118874669883     0.390780658033    -0.023083170808    12.000000000000
         C           -2.308156330117     0.399700658033    -0.041933170808    12.000000000000
         C            0.097250669883     1.794155658033     0.040815829192    12.000000000000
         C           -2.303236330117     1.786940658033     0.016830829192    12.000000000000
         C           -1.099379330117     2.497227658033     0.045606829192    12.000000000000
         C            1.413450669883    -0.318490341967     0.015059829192    12.000000000000
         C           -2.333615330117    -2.475389341967     0.078444829192    12.000000000000
         C            3.753975669883    -0.136731341967    -0.001809170808    12.000000000000
         H           -3.257986330117    -0.124563341967    -0.064190170808     1.007825032230
         H            1.042873669883     2.325249658033     0.068877829192     1.007825032230
         H           -0.237875330117    -2.158632341967     0.042990829192     1.007825032230
         H           -3.252073330117     2.319593658033     0.023964829192     1.007825032230
         H           -1.097310330117     3.582443658033     0.094748829192     1.007825032230
         H           -2.805789330117    -2.255273341967     1.046118829192     1.007825032230
         H           -2.069113330117    -3.533824341967     0.053398829192     1.007825032230
         H           -3.069101330117    -2.295186341967    -0.712458170808     1.007825032230
         H            3.860783669883    -0.821497341967    -0.844303170808     1.007825032230
         H            3.862597669883    -0.693416341967     0.930156829192     1.007825032230
         H            4.484681669883     0.667696658033    -0.060557170808     1.007825032230

  Basis Set: AUG-CC-PVTZ
    Blend: AUG-CC-PVTZ
  Basis Set: (AUG-CC-PVTZ AUX)
    Blend: AUG-CC-PVTZ-JKFIT
	 Reference Energy          =    -551.5911027123570420 [Eh]
	 Singles Energy            =      -0.0000000000000000 [Eh]
	 Same-Spin Energy          =      -0.5789618211677863 [Eh]
	 Opposite-Spin Energy      =      -1.8001494991803155 [Eh]
	 Correlation Energy        =      -2.3791113203481018 [Eh]
	 Total Energy              =    -553.9702140327051438 [Eh]

	 ================> DF-SCS-MP2 Energies <==================
	-----------------------------------------------------------
	 SCS Same-Spin Scale       =       0.3333333333333333 [-]
	 SCS Opposite-Spin Scale   =       1.2000000000000000 [-]
	 SCS Same-Spin Energy      =      -0.1929872737225954 [Eh]
	 SCS Opposite-Spin Energy  =      -2.1601793990163785 [Eh]
	 SCS Correlation Energy    =      -2.3531666727389737 [Eh]
	 SCS Total Energy          =    -553.9442693850960495 [Eh]
	-----------------------------------------------------------

  Dipole Moment: [D]
     X:    -0.1129      Y:     0.0077      Z:     0.3188     Total:     0.3383

*** Psi4 exiting successfully. Buy a developer a beer!
