                               Psi4 1.3.2 release

  ==> Input File <==

--------------------------------------------------------------------------
#psi4
#
memory 32 gb

molecule  {
0 1
  O        2.4822540     0.5405090    -0.0540980
  O        1.5746620    -1.5220150     0.0896580
  N       -1.1191790    -1.6921850    -0.1509940
  C       -1.0703968    -0.3651726    -0.0490054
  C        0.1267050     0.4076130    -0.0279230
  C       -2.3003260     0.4165330    -0.0467730
  C        0.1050810     1.8109880     0.0359760
  C       -2.2954060     1.8037730     0.0119910
  C       -1.0915490     2.5140600     0.0407670
  C        1.4212810    -0.3016580     0.0102200
  C       -2.3257850    -2.4585570     0.0736050
  C        3.7618060    -0.1198990    -0.0066490
  H       -3.2501560    -0.1077310    -0.0690300
  H        1.0507040     2.3420820     0.0640380
  H       -0.2300450    -2.1418000     0.0381510
  H       -3.2442430     2.3364260     0.0191250
  H       -1.0894800     3.5992760     0.0899090
  H       -2.7979590    -2.2384410     1.0412790
  H       -2.0612830    -3.5169920     0.0485590
  H       -3.0612710    -2.2783540    -0.7172980
  H        3.8686140    -0.8046650    -0.8491430
  H        3.8704280    -0.6765840     0.9253170
  H        4.4925120     0.6845290    -0.0653970
units angstrom
no_reorient  #important for SAPT in psi4, default
symmetry c1  #important for SAPT in psi4, default
}

set PROPERTIES_ORIGIN ["COM"]
properties('MP2/aug-cc-pvtz', properties = ['dipole'])
--------------------------------------------------------------------------

    Molecular point group: c1
  Charge       = 0
  Multiplicity = 1
  Basis Set: AUG-CC-PVTZ
    Blend: AUG-CC-PVTZ
  Basis Set: (AUG-CC-PVTZ AUX)
    Blend: AUG-CC-PVTZ-JKFIT

    Orbital Energies [Eh]
    ---------------------

    Doubly Occupied:

       1A    -20.601025     2A    -20.540532     3A    -15.570305
       4A    -11.383106     5A    -11.301788     6A    -11.283229
       7A    -11.263802     8A    -11.249404     9A    -11.248193
      10A    -11.236872    11A    -11.229557    12A    -11.220109
      13A     -1.452662    14A     -1.349190    15A     -1.261899
      16A     -1.138755    17A     -1.044004    18A     -1.006001
      19A     -0.968064    20A     -0.929670    21A     -0.860873
      22A     -0.809290    23A     -0.784008    24A     -0.727636
      25A     -0.703487    26A     -0.671316    27A     -0.667477
      28A     -0.664421    29A     -0.632459    30A     -0.618342
      31A     -0.613480    32A     -0.583343    33A     -0.573596
      34A     -0.555423    35A     -0.546884    36A     -0.534388
      37A     -0.521629    38A     -0.505408    39A     -0.500373
      40A     -0.464585    41A     -0.441757    42A     -0.434704
      43A     -0.347878    44A     -0.286482

  @DF-RHF Final Energy:  -551.59864379377836

   => Energetics <=

    Nuclear Repulsion Energy =            688.0886465553805920
    One-Electron Energy =               -2116.7197710792952421
    Two-Electron Energy =                 877.0324807301362853
    Total Energy =                       -551.5986437937783649
  Basis Set: (AUG-CC-PVTZ AUX)
    Blend: AUG-CC-PVTZ-RI
    Molecular point group: c1

    Geometry (in Angstrom), charge = 0, multiplicity = 1:

       Center              X                  Y                   Z               Mass
    ------------   -----------------  -----------------  -----------------  -----------------
         O            2.465755026472     0.526739308434    -0.051011745990    15.994914619570
         O            1.558163026472    -1.535784691566     0.092744254010    15.994914619570
         N           -1.135677973528    -1.705954691566    -0.147907745990    14.003074004430
         C           -1.086895773528    -0.378942291566    -0.045919145990    12.000000000000
         C            0.110206026472     0.393843308434    -0.024836745990    12.000000000000
         C           -2.316824973528     0.402763308434    -0.043686745990    12.000000000000
         C            0.088582026472     1.797218308434     0.039062254010    12.000000000000
         C           -2.311904973528     1.790003308434     0.015077254010    12.000000000000
         C           -1.108047973528     2.500290308434     0.043853254010    12.000000000000
         C            1.404782026472    -0.315427691566     0.013306254010    12.000000000000
         C           -2.342283973528    -2.472326691566     0.076691254010    12.000000000000
         C            3.745307026472    -0.133668691566    -0.003562745990    12.000000000000
         H           -3.266654973528    -0.121500691566    -0.065943745990     1.007825032230
         H            1.034205026472     2.328312308434     0.067124254010     1.007825032230
         H           -0.246543973528    -2.155569691566     0.041237254010     1.007825032230
         H           -3.260741973528     2.322656308434     0.022211254010     1.007825032230
         H           -1.105978973528     3.585506308434     0.092995254010     1.007825032230
         H           -2.814457973528    -2.252210691566     1.044365254010     1.007825032230
         H           -2.077781973528    -3.530761691566     0.051645254010     1.007825032230
         H           -3.077769973528    -2.292123691566    -0.714211745990     1.007825032230
         H            3.852115026472    -0.818434691566    -0.846056745990     1.007825032230
         H            3.853929026472    -0.690353691566     0.928403254010     1.007825032230
         H            4.476013026472     0.670759308434    -0.062310745990     1.007825032230

  Basis Set: AUG-CC-PVTZ
    Blend: AUG-CC-PVTZ
  Basis Set: (AUG-CC-PVTZ AUX)
    Blend: AUG-CC-PVTZ-JKFIT
	 Reference Energy          =    -551.5986437937783649 [Eh]
	 Singles Energy            =      -0.0000000000000000 [Eh]
	 Same-Spin Energy          =      -0.5789392851931355 [Eh]
	 Opposite-Spin Energy      =      -1.7999300295596710 [Eh]
	 Correlation Energy        =      -2.3788693147528064 [Eh]
	 Total Energy              =    -553.9775131085311841 [Eh]

	 ================> DF-SCS-MP2 Energies <==================
	-----------------------------------------------------------
	 SCS Same-Spin Scale       =       0.3333333333333333 [-]
	 SCS Opposite-Spin Scale   =       1.2000000000000000 [-]
	 SCS Same-Spin Energy      =      -0.1929797617310452 [Eh]
	 SCS Opposite-Spin Energy  =      -2.1599160354716052 [Eh]
	 SCS Correlation Energy    =      -2.3528957972026503 [Eh]
	 SCS Total Energy          =    -553.9515395909810422 [Eh]
	-----------------------------------------------------------

  Dipole Moment: [D]
     X:    -0.2901      Y:    -0.4318      Z:     0.3085     Total:     0.6048

*** Psi4 exiting successfully. Buy a developer a beer!
