                               Psi4 1.3.2 release

  ==> Input File <==

--------------------------------------------------------------------------
#psi4
#
memory 32 gb

molecule  {
0 1
  O        2.5110820     0.5030322    -0.0518548
  O        1.5746620    -1.5220150     0.0896580
  N       -1.1191790    -1.6921850    -0.1509940
  C       -1.0966210    -0.3229200    -0.0500550
  C        0.1267050     0.4076130    -0.0279230
  C       -2.3003260     0.4165330    -0.0467730
  C        0.1050810     1.8109880     0.0359760
  C       -2.2954060     1.8037730     0.0119910
  C       -1.0915490     2.5140600     0.0407670
  C        1.4212810    -0.3016580     0.0102200
  C       -2.3257850    -2.4585570     0.0736050
  C        3.7618060    -0.1198990    -0.0066490
  H       -3.2501560    -0.1077310    -0.0690300
  H        1.0507040     2.3420820     0.0640380
  H       -0.2300450    -2.1418000     0.0381510
  H       -3.2442430     2.3364260     0.0191250
  H       -1.0894800     3.5992760     0.0899090
  H       -2.7979590    -2.2384410     1.0412790
  H       -2.0612830    -3.5169920     0.0485590
  H       -3.0612710    -2.2783540    -0.7172980
  H        3.8686140    -0.8046650    -0.8491430
  H        3.8704280    -0.6765840     0.9253170
  H        4.4925120     0.6845290    -0.0653970
units angstrom
no_reorient  #important for SAPT in psi4, default
symmetry c1  #important for SAPT in psi4, default
}

set PROPERTIES_ORIGIN ["COM"]
properties('MP2/aug-cc-pvtz', properties = ['dipole'])
--------------------------------------------------------------------------

    Molecular point group: c1
  Charge       = 0
  Multiplicity = 1
  Basis Set: AUG-CC-PVTZ
    Blend: AUG-CC-PVTZ
  Basis Set: (AUG-CC-PVTZ AUX)
    Blend: AUG-CC-PVTZ-JKFIT

    Orbital Energies [Eh]
    ---------------------

    Doubly Occupied:

       1A    -20.599843     2A    -20.540708     3A    -15.564110
       4A    -11.386744     5A    -11.300183     6A    -11.279197
       7A    -11.259060     8A    -11.253163     9A    -11.251898
      10A    -11.242455    11A    -11.228919    12A    -11.224764
      13A     -1.460911    14A     -1.351836    15A     -1.246655
      16A     -1.143744    17A     -1.048481    18A     -1.010977
      19A     -0.971807    20A     -0.923987    21A     -0.865019
      22A     -0.810349    23A     -0.785032    24A     -0.731828
      25A     -0.701197    26A     -0.675385    27A     -0.674003
      28A     -0.662676    29A     -0.632480    30A     -0.617824
      31A     -0.612908    32A     -0.584852    33A     -0.582042
      34A     -0.554645    35A     -0.543090    36A     -0.534544
      37A     -0.518983    38A     -0.507009    39A     -0.502057
      40A     -0.460739    41A     -0.445132    42A     -0.428502
      43A     -0.351010    44A     -0.292766

  @DF-RHF Final Energy:  -551.60219741710409

   => Energetics <=

    Nuclear Repulsion Energy =            688.2799030454182230
    One-Electron Energy =               -2117.0371655969729545
    Two-Electron Energy =                 877.1550651344506377
    Total Energy =                       -551.6021974171040938
  Basis Set: (AUG-CC-PVTZ AUX)
    Blend: AUG-CC-PVTZ-RI
    Molecular point group: c1

    Geometry (in Angstrom), charge = 0, multiplicity = 1:

       Center              X                  Y                   Z               Mass
    ------------   -----------------  -----------------  -----------------  -----------------
         O            2.493696111616     0.489822283016    -0.048909597217    15.994914619570
         O            1.557276111616    -1.535224916984     0.092603202783    15.994914619570
         N           -1.136564888384    -1.705394916984    -0.148048797217    14.003074004430
         C           -1.114006888384    -0.336129916984    -0.047109797217    12.000000000000
         C            0.109319111616     0.394403083016    -0.024977797217    12.000000000000
         C           -2.317711888384     0.403323083016    -0.043827797217    12.000000000000
         C            0.087695111616     1.797778083016     0.038921202783    12.000000000000
         C           -2.312791888384     1.790563083016     0.014936202783    12.000000000000
         C           -1.108934888384     2.500850083016     0.043712202783    12.000000000000
         C            1.403895111616    -0.314867916984     0.013165202783    12.000000000000
         C           -2.343170888384    -2.471766916984     0.076550202783    12.000000000000
         C            3.744420111616    -0.133108916984    -0.003703797217    12.000000000000
         H           -3.267541888384    -0.120940916984    -0.066084797217     1.007825032230
         H            1.033318111616     2.328872083016     0.066983202783     1.007825032230
         H           -0.247430888384    -2.155009916984     0.041096202783     1.007825032230
         H           -3.261628888384     2.323216083016     0.022070202783     1.007825032230
         H           -1.106865888384     3.586066083016     0.092854202783     1.007825032230
         H           -2.815344888384    -2.251650916984     1.044224202783     1.007825032230
         H           -2.078668888384    -3.530201916984     0.051504202783     1.007825032230
         H           -3.078656888384    -2.291563916984    -0.714352797217     1.007825032230
         H            3.851228111616    -0.817874916984    -0.846197797217     1.007825032230
         H            3.853042111616    -0.689793916984     0.928262202783     1.007825032230
         H            4.475126111616     0.671319083016    -0.062451797217     1.007825032230

  Basis Set: AUG-CC-PVTZ
    Blend: AUG-CC-PVTZ
  Basis Set: (AUG-CC-PVTZ AUX)
    Blend: AUG-CC-PVTZ-JKFIT
	 Reference Energy          =    -551.6021974171040938 [Eh]
	 Singles Energy            =      -0.0000000000000000 [Eh]
	 Same-Spin Energy          =      -0.5785341120225200 [Eh]
	 Opposite-Spin Energy      =      -1.7985364335862501 [Eh]
	 Correlation Energy        =      -2.3770705456087704 [Eh]
	 Total Energy              =    -553.9792679627128109 [Eh]

	 ================> DF-SCS-MP2 Energies <==================
	-----------------------------------------------------------
	 SCS Same-Spin Scale       =       0.3333333333333333 [-]
	 SCS Opposite-Spin Scale   =       1.2000000000000000 [-]
	 SCS Same-Spin Energy      =      -0.1928447040075067 [Eh]
	 SCS Opposite-Spin Energy  =      -2.1582437203035001 [Eh]
	 SCS Correlation Energy    =      -2.3510884243110066 [Eh]
	 SCS Total Energy          =    -553.9532858414150951 [Eh]
	-----------------------------------------------------------

  Dipole Moment: [D]
     X:    -0.3770      Y:    -0.0048      Z:     0.3222     Total:     0.4960

*** Psi4 exiting successfully. Buy a developer a beer!
