                               Psi4 1.3.2 release

  ==> Input File <==

--------------------------------------------------------------------------
#psi4
#
memory 32 gb

molecule  {
0 1
  O        2.4822540     0.5405090    -0.0540980
  O        1.5746620    -1.5220150     0.0896580
  N       -1.1399911    -1.6733925    -0.1930001
  C       -1.0966210    -0.3229200    -0.0500550
  C        0.1267050     0.4076130    -0.0279230
  C       -2.3003260     0.4165330    -0.0467730
  C        0.1050810     1.8109880     0.0359760
  C       -2.2954060     1.8037730     0.0119910
  C       -1.0915490     2.5140600     0.0407670
  C        1.4212810    -0.3016580     0.0102200
  C       -2.3257850    -2.4585570     0.0736050
  C        3.7618060    -0.1198990    -0.0066490
  H       -3.2501560    -0.1077310    -0.0690300
  H        1.0507040     2.3420820     0.0640380
  H       -0.2300450    -2.1418000     0.0381510
  H       -3.2442430     2.3364260     0.0191250
  H       -1.0894800     3.5992760     0.0899090
  H       -2.7979590    -2.2384410     1.0412790
  H       -2.0612830    -3.5169920     0.0485590
  H       -3.0612710    -2.2783540    -0.7172980
  H        3.8686140    -0.8046650    -0.8491430
  H        3.8704280    -0.6765840     0.9253170
  H        4.4925120     0.6845290    -0.0653970
units angstrom
no_reorient  #important for SAPT in psi4, default
symmetry c1  #important for SAPT in psi4, default
}

set PROPERTIES_ORIGIN ["COM"]
properties('MP2/aug-cc-pvtz', properties = ['dipole'])
--------------------------------------------------------------------------

    Molecular point group: c1
  Charge       = 0
  Multiplicity = 1
  Basis Set: AUG-CC-PVTZ
    Blend: AUG-CC-PVTZ
  Basis Set: (AUG-CC-PVTZ AUX)
    Blend: AUG-CC-PVTZ-JKFIT

    Orbital Energies [Eh]
    ---------------------

    Doubly Occupied:

       1A    -20.602833     2A    -20.542098     3A    -15.565921
       4A    -11.385778     5A    -11.297129     6A    -11.284364
       7A    -11.258773     8A    -11.251188     9A    -11.249815
      10A    -11.239460    11A    -11.226440    12A    -11.222802
      13A     -1.454184    14A     -1.350177    15A     -1.248475
      16A     -1.141327    17A     -1.045867    18A     -1.009491
      19A     -0.968544    20A     -0.922810    21A     -0.864091
      22A     -0.806752    23A     -0.784237    24A     -0.727954
      25A     -0.697846    26A     -0.673296    27A     -0.668731
      28A     -0.661427    29A     -0.630072    30A     -0.615946
      31A     -0.613296    32A     -0.580311    33A     -0.576336
      34A     -0.555754    35A     -0.541331    36A     -0.535354
      37A     -0.524291    38A     -0.507174    39A     -0.500814
      40A     -0.465490    41A     -0.443151    42A     -0.429646
      43A     -0.349224    44A     -0.290957

  @DF-RHF Final Energy:  -551.59888175541266

   => Energetics <=

    Nuclear Repulsion Energy =            688.0734731051448989
    One-Electron Energy =               -2116.7227984364162694
    Two-Electron Energy =                 877.0504435758588215
    Total Energy =                       -551.5988817554126626
  Basis Set: (AUG-CC-PVTZ AUX)
    Blend: AUG-CC-PVTZ-RI
    Molecular point group: c1

    Geometry (in Angstrom), charge = 0, multiplicity = 1:

       Center              X                  Y                   Z               Mass
    ------------   -----------------  -----------------  -----------------  -----------------
         O            2.469426746407     0.522073760011    -0.047372217008    15.994914619570
         O            1.561834746407    -1.540450239989     0.096383782992    15.994914619570
         N           -1.152818353593    -1.691827739989    -0.186274317008    14.003074004430
         C           -1.109448253593    -0.341355239989    -0.043329217008    12.000000000000
         C            0.113877746407     0.389177760011    -0.021197217008    12.000000000000
         C           -2.313153253593     0.398097760011    -0.040047217008    12.000000000000
         C            0.092253746407     1.792552760011     0.042701782992    12.000000000000
         C           -2.308233253593     1.785337760011     0.018716782992    12.000000000000
         C           -1.104376253593     2.495624760011     0.047492782992    12.000000000000
         C            1.408453746407    -0.320093239989     0.016945782992    12.000000000000
         C           -2.338612253593    -2.476992239989     0.080330782992    12.000000000000
         C            3.748978746407    -0.138334239989     0.000076782992    12.000000000000
         H           -3.262983253593    -0.126166239989    -0.062304217008     1.007825032230
         H            1.037876746407     2.323646760011     0.070763782992     1.007825032230
         H           -0.242872253593    -2.160235239989     0.044876782992     1.007825032230
         H           -3.257070253593     2.317990760011     0.025850782992     1.007825032230
         H           -1.102307253593     3.580840760011     0.096634782992     1.007825032230
         H           -2.810786253593    -2.256876239989     1.048004782992     1.007825032230
         H           -2.074110253593    -3.535427239989     0.055284782992     1.007825032230
         H           -3.074098253593    -2.296789239989    -0.710572217008     1.007825032230
         H            3.855786746407    -0.823100239989    -0.842417217008     1.007825032230
         H            3.857600746407    -0.695019239989     0.932042782992     1.007825032230
         H            4.479684746407     0.666093760011    -0.058671217008     1.007825032230

  Basis Set: AUG-CC-PVTZ
    Blend: AUG-CC-PVTZ
  Basis Set: (AUG-CC-PVTZ AUX)
    Blend: AUG-CC-PVTZ-JKFIT
	 Reference Energy          =    -551.5988817554126626 [Eh]
	 Singles Energy            =      -0.0000000000000000 [Eh]
	 Same-Spin Energy          =      -0.5792270661409311 [Eh]
	 Opposite-Spin Energy      =      -1.8003875484244782 [Eh]
	 Correlation Energy        =      -2.3796146145654093 [Eh]
	 Total Energy              =    -553.9784963699780747 [Eh]

	 ================> DF-SCS-MP2 Energies <==================
	-----------------------------------------------------------
	 SCS Same-Spin Scale       =       0.3333333333333333 [-]
	 SCS Opposite-Spin Scale   =       1.2000000000000000 [-]
	 SCS Same-Spin Energy      =      -0.1930756887136437 [Eh]
	 SCS Opposite-Spin Energy  =      -2.1604650581093736 [Eh]
	 SCS Correlation Energy    =      -2.3535407468230174 [Eh]
	 SCS Total Energy          =    -553.9524225022356632 [Eh]
	-----------------------------------------------------------

  Dipole Moment: [D]
     X:    -0.1521      Y:    -0.1429      Z:     0.3878     Total:     0.4403

*** Psi4 exiting successfully. Buy a developer a beer!
