                               Psi4 1.3.2 release

  ==> Input File <==

--------------------------------------------------------------------------
#psi4
#
memory 32 gb

molecule  {
0 1
  O        2.4822540     0.5405090    -0.0540980
  O        1.5746620    -1.5220150     0.0896580
  N       -1.1191790    -1.6921850    -0.1509940
  C       -1.1431490    -0.3221459    -0.0615373
  C        0.1267050     0.4076130    -0.0279230
  C       -2.3003260     0.4165330    -0.0467730
  C        0.1050810     1.8109880     0.0359760
  C       -2.2954060     1.8037730     0.0119910
  C       -1.0915490     2.5140600     0.0407670
  C        1.4212810    -0.3016580     0.0102200
  C       -2.3257850    -2.4585570     0.0736050
  C        3.7618060    -0.1198990    -0.0066490
  H       -3.2501560    -0.1077310    -0.0690300
  H        1.0507040     2.3420820     0.0640380
  H       -0.2300450    -2.1418000     0.0381510
  H       -3.2442430     2.3364260     0.0191250
  H       -1.0894800     3.5992760     0.0899090
  H       -2.7979590    -2.2384410     1.0412790
  H       -2.0612830    -3.5169920     0.0485590
  H       -3.0612710    -2.2783540    -0.7172980
  H        3.8686140    -0.8046650    -0.8491430
  H        3.8704280    -0.6765840     0.9253170
  H        4.4925120     0.6845290    -0.0653970
units angstrom
no_reorient  #important for SAPT in psi4, default
symmetry c1  #important for SAPT in psi4, default
}

set PROPERTIES_ORIGIN ["COM"]
properties('MP2/aug-cc-pvtz', properties = ['dipole'])
--------------------------------------------------------------------------

    Molecular point group: c1
  Charge       = 0
  Multiplicity = 1
  Basis Set: AUG-CC-PVTZ
    Blend: AUG-CC-PVTZ
  Basis Set: (AUG-CC-PVTZ AUX)
    Blend: AUG-CC-PVTZ-JKFIT

    Orbital Energies [Eh]
    ---------------------

    Doubly Occupied:

       1A    -20.602555     2A    -20.541524     3A    -15.562388
       4A    -11.385839     5A    -11.297257     6A    -11.284233
       7A    -11.256673     8A    -11.253789     9A    -11.251013
      10A    -11.242901    11A    -11.223837    12A    -11.223030
      13A     -1.453801    14A     -1.349624    15A     -1.245314
      16A     -1.142137    17A     -1.045193    18A     -1.012438
      19A     -0.967404    20A     -0.922255    21A     -0.867548
      22A     -0.806027    23A     -0.783079    24A     -0.728687
      25A     -0.703089    26A     -0.674525    27A     -0.668402
      28A     -0.658897    29A     -0.629072    30A     -0.619207
      31A     -0.611371    32A     -0.581559    33A     -0.576036
      34A     -0.555032    35A     -0.541693    36A     -0.536252
      37A     -0.526352    38A     -0.507331    39A     -0.496290
      40A     -0.465094    41A     -0.445635    42A     -0.427120
      43A     -0.349670    44A     -0.292013

  @DF-RHF Final Energy:  -551.59913949899931

   => Energetics <=

    Nuclear Repulsion Energy =            687.7235973619538072
    One-Electron Energy =               -2116.0191029480820362
    Two-Electron Energy =                 876.6963660871289221
    Total Energy =                       -551.5991394989993069
  Basis Set: (AUG-CC-PVTZ AUX)
    Blend: AUG-CC-PVTZ-RI
    Molecular point group: c1

    Geometry (in Angstrom), charge = 0, multiplicity = 1:

       Center              X                  Y                   Z               Mass
    ------------   -----------------  -----------------  -----------------  -----------------
         O            2.471043564162     0.523611590996    -0.050100771126    15.994914619570
         O            1.563451564162    -1.538912409004     0.093655228874    15.994914619570
         N           -1.130389435838    -1.709082409004    -0.146996771126    14.003074004430
         C           -1.154359435838    -0.339043309004    -0.057540071126    12.000000000000
         C            0.115494564162     0.390715590996    -0.023925771126    12.000000000000
         C           -2.311536435838     0.399635590996    -0.042775771126    12.000000000000
         C            0.093870564162     1.794090590996     0.039973228874    12.000000000000
         C           -2.306616435838     1.786875590996     0.015988228874    12.000000000000
         C           -1.102759435838     2.497162590996     0.044764228874    12.000000000000
         C            1.410070564162    -0.318555409004     0.014217228874    12.000000000000
         C           -2.336995435838    -2.475454409004     0.077602228874    12.000000000000
         C            3.750595564162    -0.136796409004    -0.002651771126    12.000000000000
         H           -3.261366435838    -0.124628409004    -0.065032771126     1.007825032230
         H            1.039493564162     2.325184590996     0.068035228874     1.007825032230
         H           -0.241255435838    -2.158697409004     0.042148228874     1.007825032230
         H           -3.255453435838     2.319528590996     0.023122228874     1.007825032230
         H           -1.100690435838     3.582378590996     0.093906228874     1.007825032230
         H           -2.809169435838    -2.255338409004     1.045276228874     1.007825032230
         H           -2.072493435838    -3.533889409004     0.052556228874     1.007825032230
         H           -3.072481435838    -2.295251409004    -0.713300771126     1.007825032230
         H            3.857403564162    -0.821562409004    -0.845145771126     1.007825032230
         H            3.859217564162    -0.693481409004     0.929314228874     1.007825032230
         H            4.481301564162     0.667631590996    -0.061399771126     1.007825032230

  Basis Set: AUG-CC-PVTZ
    Blend: AUG-CC-PVTZ
  Basis Set: (AUG-CC-PVTZ AUX)
    Blend: AUG-CC-PVTZ-JKFIT
	 Reference Energy          =    -551.5991394989993069 [Eh]
	 Singles Energy            =      -0.0000000000000000 [Eh]
	 Same-Spin Energy          =      -0.5789513959656114 [Eh]
	 Opposite-Spin Energy      =      -1.7998538382622491 [Eh]
	 Correlation Energy        =      -2.3788052342278605 [Eh]
	 Total Energy              =    -553.9779447332272184 [Eh]

	 ================> DF-SCS-MP2 Energies <==================
	-----------------------------------------------------------
	 SCS Same-Spin Scale       =       0.3333333333333333 [-]
	 SCS Opposite-Spin Scale   =       1.2000000000000000 [-]
	 SCS Same-Spin Energy      =      -0.1929837986552038 [Eh]
	 SCS Opposite-Spin Energy  =      -2.1598246059146988 [Eh]
	 SCS Correlation Energy    =      -2.3528084045699025 [Eh]
	 SCS Total Energy          =    -553.9519479035692484 [Eh]
	-----------------------------------------------------------

  Dipole Moment: [D]
     X:    -0.1432      Y:    -0.0461      Z:     0.3225     Total:     0.3558

*** Psi4 exiting successfully. Buy a developer a beer!
