                               Psi4 1.3.2 release

  ==> Input File <==

--------------------------------------------------------------------------
#psi4
#
memory 32 gb

molecule  {
0 1
  O        2.4822540     0.5405090    -0.0540980
  O        1.5746620    -1.5220150     0.0896580
  N       -1.1191790    -1.6921850    -0.1509940
  C       -1.0966210    -0.3229200    -0.0500550
  C        0.1267050     0.4076130    -0.0279230
  C       -2.3003260     0.4165330    -0.0467730
  C        0.1050810     1.8109880     0.0359760
  C       -2.2954060     1.8037730     0.0119910
  C       -1.0915490     2.5140600     0.0407670
  C        1.4212810    -0.3016580     0.0102200
  C       -2.4091745    -2.5115216     0.0891272
  C        3.7618060    -0.1198990    -0.0066490
  H       -3.2501560    -0.1077310    -0.0690300
  H        1.0507040     2.3420820     0.0640380
  H       -0.2300450    -2.1418000     0.0381510
  H       -3.2442430     2.3364260     0.0191250
  H       -1.0894800     3.5992760     0.0899090
  H       -2.7979590    -2.2384410     1.0412790
  H       -2.0612830    -3.5169920     0.0485590
  H       -3.0612710    -2.2783540    -0.7172980
  H        3.8686140    -0.8046650    -0.8491430
  H        3.8704280    -0.6765840     0.9253170
  H        4.4925120     0.6845290    -0.0653970
units angstrom
no_reorient  #important for SAPT in psi4, default
symmetry c1  #important for SAPT in psi4, default
}

set PROPERTIES_ORIGIN ["COM"]
properties('MP2/aug-cc-pvtz', properties = ['dipole'])
--------------------------------------------------------------------------

    Molecular point group: c1
  Charge       = 0
  Multiplicity = 1
  Basis Set: AUG-CC-PVTZ
    Blend: AUG-CC-PVTZ
  Basis Set: (AUG-CC-PVTZ AUX)
    Blend: AUG-CC-PVTZ-JKFIT

    Orbital Energies [Eh]
    ---------------------

    Doubly Occupied:

       1A    -20.601023     2A    -20.539610     3A    -15.561235
       4A    -11.383422     5A    -11.296316     6A    -11.283069
       7A    -11.260569     8A    -11.250265     9A    -11.248258
      10A    -11.236838    11A    -11.225597    12A    -11.220967
      13A     -1.452209    14A     -1.347915    15A     -1.229104
      16A     -1.136139    17A     -1.043884    18A     -1.004906
      19A     -0.967467    20A     -0.930660    21A     -0.862038
      22A     -0.807700    23A     -0.781678    24A     -0.725509
      25A     -0.695547    26A     -0.671338    27A     -0.666996
      28A     -0.650920    29A     -0.624537    30A     -0.619222
      31A     -0.617166    32A     -0.574921    33A     -0.563549
      34A     -0.561536    35A     -0.556075    36A     -0.533086
      37A     -0.523848    38A     -0.509049    39A     -0.497692
      40A     -0.463668    41A     -0.441905    42A     -0.430469
      43A     -0.347969    44A     -0.288374

  @DF-RHF Final Energy:  -551.59363587432040

   => Energetics <=

    Nuclear Repulsion Energy =            686.0819612013073083
    One-Electron Energy =               -2112.8827052713882040
    Two-Electron Energy =                 875.2071081957603838
    Total Energy =                       -551.5936358743203982
  Basis Set: (AUG-CC-PVTZ AUX)
    Blend: AUG-CC-PVTZ-RI
    Molecular point group: c1

    Geometry (in Angstrom), charge = 0, multiplicity = 1:

       Center              X                  Y                   Z               Mass
    ------------   -----------------  -----------------  -----------------  -----------------
         O            2.473723117935     0.527517990257    -0.052063795145    15.994914619570
         O            1.566131117935    -1.535006009743     0.091692204855    15.994914619570
         N           -1.127709882065    -1.705176009743    -0.148959795145    14.003074004430
         C           -1.105151882065    -0.335911009743    -0.048020795145    12.000000000000
         C            0.118174117935     0.394621990257    -0.025888795145    12.000000000000
         C           -2.308856882065     0.403541990257    -0.044738795145    12.000000000000
         C            0.096550117935     1.797996990257     0.038010204855    12.000000000000
         C           -2.303936882065     1.790781990257     0.014025204855    12.000000000000
         C           -1.100079882065     2.501068990257     0.042801204855    12.000000000000
         C            1.412750117935    -0.314649009743     0.012254204855    12.000000000000
         C           -2.417705382065    -2.524512609743     0.091161404855    12.000000000000
         C            3.753275117935    -0.132890009743    -0.004614795145    12.000000000000
         H           -3.258686882065    -0.120722009743    -0.066995795145     1.007825032230
         H            1.042173117935     2.329090990257     0.066072204855     1.007825032230
         H           -0.238575882065    -2.154791009743     0.040185204855     1.007825032230
         H           -3.252773882065     2.323434990257     0.021159204855     1.007825032230
         H           -1.098010882065     3.586284990257     0.091943204855     1.007825032230
         H           -2.806489882065    -2.251432009743     1.043313204855     1.007825032230
         H           -2.069813882065    -3.529983009743     0.050593204855     1.007825032230
         H           -3.069801882065    -2.291345009743    -0.715263795145     1.007825032230
         H            3.860083117935    -0.817656009743    -0.847108795145     1.007825032230
         H            3.861897117935    -0.689575009743     0.927351204855     1.007825032230
         H            4.483981117935     0.671537990257    -0.063362795145     1.007825032230

  Basis Set: AUG-CC-PVTZ
    Blend: AUG-CC-PVTZ
  Basis Set: (AUG-CC-PVTZ AUX)
    Blend: AUG-CC-PVTZ-JKFIT
	 Reference Energy          =    -551.5936358743203982 [Eh]
	 Singles Energy            =      -0.0000000000000000 [Eh]
	 Same-Spin Energy          =      -0.5786024940229331 [Eh]
	 Opposite-Spin Energy      =      -1.8004841781343037 [Eh]
	 Correlation Energy        =      -2.3790866721572366 [Eh]
	 Total Energy              =    -553.9727225464775984 [Eh]

	 ================> DF-SCS-MP2 Energies <==================
	-----------------------------------------------------------
	 SCS Same-Spin Scale       =       0.3333333333333333 [-]
	 SCS Opposite-Spin Scale   =       1.2000000000000000 [-]
	 SCS Same-Spin Energy      =      -0.1928674980076444 [Eh]
	 SCS Opposite-Spin Energy  =      -2.1605810137611643 [Eh]
	 SCS Correlation Energy    =      -2.3534485117688089 [Eh]
	 SCS Total Energy          =    -553.9470843860891591 [Eh]
	-----------------------------------------------------------

  Dipole Moment: [D]
     X:    -0.4282      Y:    -0.3385      Z:     0.3725     Total:     0.6608

*** Psi4 exiting successfully. Buy a developer a beer!
