                               Psi4 1.3.2 release

  ==> Input File <==

--------------------------------------------------------------------------
#psi4
#
memory 32 gb

molecule  {
0 1
  O        2.4822540     0.5405090    -0.0540980
  O        1.5746620    -1.5220150     0.0896580
  N       -1.1191790    -1.6921850    -0.1509940
  C       -1.1662322    -0.1910333    -0.0530371
  C        0.1267050     0.4076130    -0.0279230
  C       -2.3003260     0.4165330    -0.0467730
  C        0.1050810     1.8109880     0.0359760
  C       -2.2954060     1.8037730     0.0119910
  C       -1.0915490     2.5140600     0.0407670
  C        1.4212810    -0.3016580     0.0102200
  C       -2.3257850    -2.4585570     0.0736050
  C        3.7618060    -0.1198990    -0.0066490
  H       -3.2501560    -0.1077310    -0.0690300
  H        1.0507040     2.3420820     0.0640380
  H       -0.2300450    -2.1418000     0.0381510
  H       -3.2442430     2.3364260     0.0191250
  H       -1.0894800     3.5992760     0.0899090
  H       -2.7979590    -2.2384410     1.0412790
  H       -2.0612830    -3.5169920     0.0485590
  H       -3.0612710    -2.2783540    -0.7172980
  H        3.8686140    -0.8046650    -0.8491430
  H        3.8704280    -0.6765840     0.9253170
  H        4.4925120     0.6845290    -0.0653970
units angstrom
no_reorient  #important for SAPT in psi4, default
symmetry c1  #important for SAPT in psi4, default
}

set PROPERTIES_ORIGIN ["COM"]
properties('MP2/aug-cc-pvtz', properties = ['dipole'])
--------------------------------------------------------------------------

    Molecular point group: c1
  Charge       = 0
  Multiplicity = 1
  Basis Set: AUG-CC-PVTZ
    Blend: AUG-CC-PVTZ
  Basis Set: (AUG-CC-PVTZ AUX)
    Blend: AUG-CC-PVTZ-JKFIT

    Orbital Energies [Eh]
    ---------------------

    Doubly Occupied:

       1A    -20.607067     2A    -20.544610     3A    -15.542423
       4A    -11.392160     5A    -11.286975     6A    -11.286827
       7A    -11.258610     8A    -11.255390     9A    -11.248262
      10A    -11.243838    11A    -11.232383    12A    -11.220035
      13A     -1.457508    14A     -1.352003    15A     -1.213184
      16A     -1.146216    17A     -1.056859    18A     -1.021884
      19A     -0.970108    20A     -0.901633    21A     -0.875179
      22A     -0.808575    23A     -0.788566    24A     -0.734379
      25A     -0.690000    26A     -0.680303    27A     -0.671704
      28A     -0.654216    29A     -0.628941    30A     -0.618767
      31A     -0.595894    32A     -0.583495    33A     -0.576365
      34A     -0.557182    35A     -0.542436    36A     -0.533116
      37A     -0.524043    38A     -0.515603    39A     -0.489313
      40A     -0.466992    41A     -0.449532    42A     -0.406537
      43A     -0.355562    44A     -0.304962

  @DF-RHF Final Energy:  -551.57254635393747

   => Energetics <=

    Nuclear Repulsion Energy =            687.9883882856121318
    One-Electron Energy =               -2116.5425933982628521
    Two-Electron Energy =                 876.9816587587133654
    Total Energy =                       -551.5725463539374687
  Basis Set: (AUG-CC-PVTZ AUX)
    Blend: AUG-CC-PVTZ-RI
    Molecular point group: c1

    Geometry (in Angstrom), charge = 0, multiplicity = 1:

       Center              X                  Y                   Z               Mass
    ------------   -----------------  -----------------  -----------------  -----------------
         O            2.472721539167     0.514080691221    -0.050718671727    15.994914619570
         O            1.565129539167    -1.548443308779     0.093037328273    15.994914619570
         N           -1.128711460833    -1.718613308779    -0.147614671727    14.003074004430
         C           -1.175764660833    -0.217461608779    -0.049657771727    12.000000000000
         C            0.117172539167     0.381184691221    -0.024543671727    12.000000000000
         C           -2.309858460833     0.390104691221    -0.043393671727    12.000000000000
         C            0.095548539167     1.784559691221     0.039355328273    12.000000000000
         C           -2.304938460833     1.777344691221     0.015370328273    12.000000000000
         C           -1.101081460833     2.487631691221     0.044146328273    12.000000000000
         C            1.411748539167    -0.328086308779     0.013599328273    12.000000000000
         C           -2.335317460833    -2.484985308779     0.076984328273    12.000000000000
         C            3.752273539167    -0.146327308779    -0.003269671727    12.000000000000
         H           -3.259688460833    -0.134159308779    -0.065650671727     1.007825032230
         H            1.041171539167     2.315653691221     0.067417328273     1.007825032230
         H           -0.239577460833    -2.168228308779     0.041530328273     1.007825032230
         H           -3.253775460833     2.309997691221     0.022504328273     1.007825032230
         H           -1.099012460833     3.572847691221     0.093288328273     1.007825032230
         H           -2.807491460833    -2.264869308779     1.044658328273     1.007825032230
         H           -2.070815460833    -3.543420308779     0.051938328273     1.007825032230
         H           -3.070803460833    -2.304782308779    -0.713918671727     1.007825032230
         H            3.859081539167    -0.831093308779    -0.845763671727     1.007825032230
         H            3.860895539167    -0.703012308779     0.928696328273     1.007825032230
         H            4.482979539167     0.658100691221    -0.062017671727     1.007825032230

  Basis Set: AUG-CC-PVTZ
    Blend: AUG-CC-PVTZ
  Basis Set: (AUG-CC-PVTZ AUX)
    Blend: AUG-CC-PVTZ-JKFIT
	 Reference Energy          =    -551.5725463539374687 [Eh]
	 Singles Energy            =      -0.0000000000000000 [Eh]
	 Same-Spin Energy          =      -0.5788935724790533 [Eh]
	 Opposite-Spin Energy      =      -1.8008248099820017 [Eh]
	 Correlation Energy        =      -2.3797183824610548 [Eh]
	 Total Energy              =    -553.9522647363985470 [Eh]

	 ================> DF-SCS-MP2 Energies <==================
	-----------------------------------------------------------
	 SCS Same-Spin Scale       =       0.3333333333333333 [-]
	 SCS Opposite-Spin Scale   =       1.2000000000000000 [-]
	 SCS Same-Spin Energy      =      -0.1929645241596844 [Eh]
	 SCS Opposite-Spin Energy  =      -2.1609897719784019 [Eh]
	 SCS Correlation Energy    =      -2.3539542961380864 [Eh]
	 SCS Total Energy          =    -553.9265006500755817 [Eh]
	-----------------------------------------------------------

  Dipole Moment: [D]
     X:     0.1345      Y:     0.9018      Z:     0.3832     Total:     0.9890

*** Psi4 exiting successfully. Buy a developer a beer!
