                               Psi4 1.3.2 release

  ==> Input File <==

--------------------------------------------------------------------------
#psi4
#
memory 32 gb

molecule  {
0 1
  O        2.4822540     0.5405090    -0.0540980
  O        1.5746620    -1.5220150     0.0896580
  N       -1.1191790    -1.6921850    -0.1509940
  C       -1.0999065    -0.5223519    -0.0647566
  C        0.1267050     0.4076130    -0.0279230
  C       -2.3003260     0.4165330    -0.0467730
  C        0.1050810     1.8109880     0.0359760
  C       -2.2954060     1.8037730     0.0119910
  C       -1.0915490     2.5140600     0.0407670
  C        1.4212810    -0.3016580     0.0102200
  C       -2.3257850    -2.4585570     0.0736050
  C        3.7618060    -0.1198990    -0.0066490
  H       -3.2501560    -0.1077310    -0.0690300
  H        1.0507040     2.3420820     0.0640380
  H       -0.2300450    -2.1418000     0.0381510
  H       -3.2442430     2.3364260     0.0191250
  H       -1.0894800     3.5992760     0.0899090
  H       -2.7979590    -2.2384410     1.0412790
  H       -2.0612830    -3.5169920     0.0485590
  H       -3.0612710    -2.2783540    -0.7172980
  H        3.8686140    -0.8046650    -0.8491430
  H        3.8704280    -0.6765840     0.9253170
  H        4.4925120     0.6845290    -0.0653970
units angstrom
no_reorient  #important for SAPT in psi4, default
symmetry c1  #important for SAPT in psi4, default
}

set PROPERTIES_ORIGIN ["COM"]
properties('MP2/aug-cc-pvtz', properties = ['dipole'])
--------------------------------------------------------------------------

    Molecular point group: c1
  Charge       = 0
  Multiplicity = 1
  Basis Set: AUG-CC-PVTZ
    Blend: AUG-CC-PVTZ
  Basis Set: (AUG-CC-PVTZ AUX)
    Blend: AUG-CC-PVTZ-JKFIT

    Orbital Energies [Eh]
    ---------------------

    Doubly Occupied:

       1A    -20.593360     2A    -20.534507     3A    -15.598349
       4A    -11.373820     5A    -11.309581     6A    -11.282419
       7A    -11.278630     8A    -11.245599     9A    -11.243401
      10A    -11.233010    11A    -11.225493    12A    -11.205226
      13A     -1.446161    14A     -1.353639    15A     -1.336165
      16A     -1.122226    17A     -1.033147    18A     -1.009302
      19A     -0.968541    20A     -0.937903    21A     -0.860965
      22A     -0.810523    23A     -0.778811    24A     -0.735245
      25A     -0.706283    26A     -0.689002    27A     -0.666198
      28A     -0.663177    29A     -0.650359    30A     -0.632963
      31A     -0.607643    32A     -0.577225    33A     -0.567052
      34A     -0.557952    35A     -0.552537    36A     -0.530129
      37A     -0.518198    38A     -0.514068    39A     -0.478677
      40A     -0.460981    41A     -0.453210    42A     -0.426262
      43A     -0.341545    44A     -0.267364

  @DF-RHF Final Energy:  -551.53860198779864

   => Energetics <=

    Nuclear Repulsion Energy =            688.0988754578652333
    One-Electron Energy =               -2116.5212529787659150
    Two-Electron Energy =                 876.8837755331020389
    Total Energy =                       -551.5386019877986428
  Basis Set: (AUG-CC-PVTZ AUX)
    Blend: AUG-CC-PVTZ-RI
    Molecular point group: c1

    Geometry (in Angstrom), charge = 0, multiplicity = 1:

       Center              X                  Y                   Z               Mass
    ------------   -----------------  -----------------  -----------------  -----------------
         O            2.467900159687     0.538165061222    -0.049866752232    15.994914619570
         O            1.560308159687    -1.524358938778     0.093889247768    15.994914619570
         N           -1.133532840313    -1.694528938778    -0.146762752232    14.003074004430
         C           -1.114260340313    -0.524695838778    -0.060525352232    12.000000000000
         C            0.112351159687     0.405269061222    -0.023691752232    12.000000000000
         C           -2.314679840313     0.414189061222    -0.042541752232    12.000000000000
         C            0.090727159687     1.808644061222     0.040207247768    12.000000000000
         C           -2.309759840313     1.801429061222     0.016222247768    12.000000000000
         C           -1.105902840313     2.511716061222     0.044998247768    12.000000000000
         C            1.406927159687    -0.304001938778     0.014451247768    12.000000000000
         C           -2.340138840313    -2.460900938778     0.077836247768    12.000000000000
         C            3.747452159687    -0.122242938778    -0.002417752232    12.000000000000
         H           -3.264509840313    -0.110074938778    -0.064798752232     1.007825032230
         H            1.036350159687     2.339738061222     0.068269247768     1.007825032230
         H           -0.244398840313    -2.144143938778     0.042382247768     1.007825032230
         H           -3.258596840313     2.334082061222     0.023356247768     1.007825032230
         H           -1.103833840313     3.596932061222     0.094140247768     1.007825032230
         H           -2.812312840313    -2.240784938778     1.045510247768     1.007825032230
         H           -2.075636840313    -3.519335938778     0.052790247768     1.007825032230
         H           -3.075624840313    -2.280697938778    -0.713066752232     1.007825032230
         H            3.854260159687    -0.807008938778    -0.844911752232     1.007825032230
         H            3.856074159687    -0.678927938778     0.929548247768     1.007825032230
         H            4.478158159687     0.682185061222    -0.061165752232     1.007825032230

  Basis Set: AUG-CC-PVTZ
    Blend: AUG-CC-PVTZ
  Basis Set: (AUG-CC-PVTZ AUX)
    Blend: AUG-CC-PVTZ-JKFIT
	 Reference Energy          =    -551.5386019877986428 [Eh]
	 Singles Energy            =      -0.0000000000000000 [Eh]
	 Same-Spin Energy          =      -0.5790889757011142 [Eh]
	 Opposite-Spin Energy      =      -1.7999884196378770 [Eh]
	 Correlation Energy        =      -2.3790773953389914 [Eh]
	 Total Energy              =    -553.9176793831376244 [Eh]

	 ================> DF-SCS-MP2 Energies <==================
	-----------------------------------------------------------
	 SCS Same-Spin Scale       =       0.3333333333333333 [-]
	 SCS Opposite-Spin Scale   =       1.2000000000000000 [-]
	 SCS Same-Spin Energy      =      -0.1930296585670380 [Eh]
	 SCS Opposite-Spin Energy  =      -2.1599861035654522 [Eh]
	 SCS Correlation Energy    =      -2.3530157621324901 [Eh]
	 SCS Total Energy          =    -553.8916177499311289 [Eh]
	-----------------------------------------------------------

  Dipole Moment: [D]
     X:    -0.7236      Y:    -1.7239      Z:     0.2261     Total:     1.8832

*** Psi4 exiting successfully. Buy a developer a beer!
