                               Psi4 1.4a3.dev225

  ==> Input File <==

--------------------------------------------------------------------------
#psi4
#
memory 32 gb

molecule  {
0 1
  O        2.4822540     0.5405090    -0.0540980
  O        1.5746620    -1.5220150     0.0896580
  N       -1.1191790    -1.6921850    -0.1509940
  C       -1.0966210    -0.3229200    -0.0500550
  C        0.1267050     0.4076130    -0.0279230
  C       -2.3003260     0.4165330    -0.0467730
  C        0.1050810     1.8109880     0.0359760
  C       -2.2954060     1.8037730     0.0119910
  C       -1.0915490     2.5140600     0.0407670
  C        1.4388152    -0.3112646     0.0107366
  C       -2.3257850    -2.4585570     0.0736050
  C        3.7618060    -0.1198990    -0.0066490
  H       -3.2501560    -0.1077310    -0.0690300
  H        1.0507040     2.3420820     0.0640380
  H       -0.2300450    -2.1418000     0.0381510
  H       -3.2442430     2.3364260     0.0191250
  H       -1.0894800     3.5992760     0.0899090
  H       -2.7979590    -2.2384410     1.0412790
  H       -2.0612830    -3.5169920     0.0485590
  H       -3.0612710    -2.2783540    -0.7172980
  H        3.8686140    -0.8046650    -0.8491430
  H        3.8704280    -0.6765840     0.9253170
  H        4.4925120     0.6845290    -0.0653970
units angstrom
no_reorient  #important for SAPT in psi4, default
symmetry c1  #important for SAPT in psi4, default
}

set PROPERTIES_ORIGIN ["COM"]
properties('MP2/aug-cc-pvtz', properties = ['dipole'])
--------------------------------------------------------------------------

    Molecular point group: c1
  Charge       = 0
  Multiplicity = 1
  Basis Set: AUG-CC-PVTZ
    Blend: AUG-CC-PVTZ
  Basis Set: (AUG-CC-PVTZ AUX)
    Blend: AUG-CC-PVTZ-JKFIT

    Orbital Energies [Eh]
    ---------------------

    Doubly Occupied:

       1A    -20.605437     2A    -20.544162     3A    -15.561944
       4A    -11.385732     5A    -11.296382     6A    -11.285887
       7A    -11.257680     8A    -11.249794     9A    -11.248171
      10A    -11.239713    11A    -11.226331    12A    -11.222204
      13A     -1.460431    14A     -1.358385    15A     -1.244466
      16A     -1.140128    17A     -1.042853    18A     -1.008209
      19A     -0.969844    20A     -0.922260    21A     -0.861063
      22A     -0.807685    23A     -0.785630    24A     -0.729320
      25A     -0.699048    26A     -0.676825    27A     -0.672199
      28A     -0.661088    29A     -0.628798    30A     -0.615533
      31A     -0.611124    32A     -0.582291    33A     -0.575887
      34A     -0.557817    35A     -0.541116    36A     -0.535875
      37A     -0.526862    38A     -0.506885    39A     -0.500412
      40A     -0.468846    41A     -0.444682    42A     -0.426627
      43A     -0.347728    44A     -0.290055

  @DF-RHF Final Energy:  -551.60251787261291

   => Energetics <=

    Nuclear Repulsion Energy =            687.9599534156786831
    One-Electron Energy =               -2116.4781186482923658
    Two-Electron Energy =                 876.9156473600007757
    Total Energy =                       -551.6025178726129070
  Basis Set: (AUG-CC-PVTZ AUX)
    Blend: AUG-CC-PVTZ-RI
    Molecular point group: c1

    Geometry (in Angstrom), charge = 0, multiplicity = 1:

       Center              X                  Y                   Z               Mass
    ------------   -----------------  -----------------  -----------------  -----------------
         O            2.466386724105     0.524366189801    -0.050973000899    15.994914619570
         O            1.558794724105    -1.538157810199     0.092782999101    15.994914619570
         N           -1.135046275895    -1.708327810199    -0.147869000899    14.003074004430
         C           -1.112488275895    -0.339062810199    -0.046930000899    12.000000000000
         C            0.110837724105     0.391470189801    -0.024798000899    12.000000000000
         C           -2.316193275895     0.400390189801    -0.043648000899    12.000000000000
         C            0.089213724105     1.794845189801     0.039100999101    12.000000000000
         C           -2.311273275895     1.787630189801     0.015115999101    12.000000000000
         C           -1.107416275895     2.497917189801     0.043891999101    12.000000000000
         C            1.422947924105    -0.327407410199     0.013861599101    12.000000000000
         C           -2.341652275895    -2.474699810199     0.076729999101    12.000000000000
         C            3.745938724105    -0.136041810199    -0.003524000899    12.000000000000
         H           -3.266023275895    -0.123873810199    -0.065905000899     1.007825032230
         H            1.034836724105     2.325939189801     0.067162999101     1.007825032230
         H           -0.245912275895    -2.157942810199     0.041275999101     1.007825032230
         H           -3.260110275895     2.320283189801     0.022249999101     1.007825032230
         H           -1.105347275895     3.583133189801     0.093033999101     1.007825032230
         H           -2.813826275895    -2.254583810199     1.044403999101     1.007825032230
         H           -2.077150275895    -3.533134810199     0.051683999101     1.007825032230
         H           -3.077138275895    -2.294496810199    -0.714173000899     1.007825032230
         H            3.852746724105    -0.820807810199    -0.846018000899     1.007825032230
         H            3.854560724105    -0.692726810199     0.928441999101     1.007825032230
         H            4.476644724105     0.668386189801    -0.062272000899     1.007825032230

  Basis Set: AUG-CC-PVTZ
    Blend: AUG-CC-PVTZ
  Basis Set: (AUG-CC-PVTZ AUX)
    Blend: AUG-CC-PVTZ-JKFIT
	 Reference Energy          =    -551.6025178726129070 [Eh]
	 Singles Energy            =      -0.0000000000000000 [Eh]
	 Same-Spin Energy          =      -0.5785704001510880 [Eh]
	 Opposite-Spin Energy      =      -1.7991627450823493 [Eh]
	 Correlation Energy        =      -2.3777331452334374 [Eh]
	 Total Energy              =    -553.9802510178463990 [Eh]

	 ================> DF-SCS-MP2 Energies <==================
	-----------------------------------------------------------
	 SCS Same-Spin Scale       =       0.3333333333333333 [-]
	 SCS Opposite-Spin Scale   =       1.2000000000000000 [-]
	 SCS Same-Spin Energy      =      -0.1928568000503627 [Eh]
	 SCS Opposite-Spin Energy  =      -2.1589952940988191 [Eh]
	 SCS Correlation Energy    =      -2.3518520941491818 [Eh]
	 SCS Total Energy          =    -553.9543699667621013 [Eh]
	-----------------------------------------------------------

  Dipole Moment: [D]
     X:     0.0278      Y:    -0.1584      Z:     0.3298     Total:     0.3669

*** Psi4 exiting successfully. Buy a developer a beer!
