                               Psi4 1.3.2 release

  ==> Input File <==

--------------------------------------------------------------------------
#psi4
#
memory 32 gb

molecule  {
0 1
  O        2.4822540     0.5405090    -0.0540980
  O        1.5959814    -1.5191673     0.0893283
  N       -1.1191790    -1.6921850    -0.1509940
  C       -1.0966210    -0.3229200    -0.0500550
  C        0.1267050     0.4076130    -0.0279230
  C       -2.3003260     0.4165330    -0.0467730
  C        0.1050810     1.8109880     0.0359760
  C       -2.2954060     1.8037730     0.0119910
  C       -1.0915490     2.5140600     0.0407670
  C        1.4212810    -0.3016580     0.0102200
  C       -2.3257850    -2.4585570     0.0736050
  C        3.7618060    -0.1198990    -0.0066490
  H       -3.2501560    -0.1077310    -0.0690300
  H        1.0507040     2.3420820     0.0640380
  H       -0.2300450    -2.1418000     0.0381510
  H       -3.2442430     2.3364260     0.0191250
  H       -1.0894800     3.5992760     0.0899090
  H       -2.7979590    -2.2384410     1.0412790
  H       -2.0612830    -3.5169920     0.0485590
  H       -3.0612710    -2.2783540    -0.7172980
  H        3.8686140    -0.8046650    -0.8491430
  H        3.8704280    -0.6765840     0.9253170
  H        4.4925120     0.6845290    -0.0653970
units angstrom
no_reorient  #important for SAPT in psi4, default
symmetry c1  #important for SAPT in psi4, default
}

set PROPERTIES_ORIGIN ["COM"]
properties('MP2/aug-cc-pvtz', properties = ['dipole'])
--------------------------------------------------------------------------

    Molecular point group: c1
  Charge       = 0
  Multiplicity = 1
  Basis Set: AUG-CC-PVTZ
    Blend: AUG-CC-PVTZ
  Basis Set: (AUG-CC-PVTZ AUX)
    Blend: AUG-CC-PVTZ-JKFIT

    Orbital Energies [Eh]
    ---------------------

    Doubly Occupied:

       1A    -20.601133     2A    -20.541235     3A    -15.564111
       4A    -11.385231     5A    -11.298994     6A    -11.283261
       7A    -11.258948     8A    -11.252267     9A    -11.250573
      10A    -11.240595    11A    -11.228035    12A    -11.223874
      13A     -1.453887    14A     -1.348083    15A     -1.246407
      16A     -1.142629    17A     -1.046586    18A     -1.010163
      19A     -0.967812    20A     -0.923575    21A     -0.864904
      22A     -0.809493    23A     -0.783468    24A     -0.728695
      25A     -0.700667    26A     -0.672696    27A     -0.667866
      28A     -0.660935    29A     -0.629664    30A     -0.616714
      31A     -0.612450    32A     -0.584026    33A     -0.576197
      34A     -0.555104    35A     -0.542768    36A     -0.534825
      37A     -0.523898    38A     -0.507043    39A     -0.501554
      40A     -0.464267    41A     -0.444887    42A     -0.428161
      43A     -0.349941    44A     -0.292113

  @DF-RHF Final Energy:  -551.60166966610950

   => Energetics <=

    Nuclear Repulsion Energy =            687.8443313805969410
    One-Electron Energy =               -2116.2525243549507650
    Two-Electron Energy =                 876.8065233082443228
    Total Energy =                       -551.6016696661095011
  Basis Set: (AUG-CC-PVTZ AUX)
    Blend: AUG-CC-PVTZ-RI
    Molecular point group: c1

    Geometry (in Angstrom), charge = 0, multiplicity = 1:

       Center              X                  Y                   Z               Mass
    ------------   -----------------  -----------------  -----------------  -----------------
         O            2.465595638627     0.523391941476    -0.050903502509    15.994914619570
         O            1.579323038627    -1.536284358524     0.092522797491    15.994914619570
         N           -1.135837361373    -1.709302058524    -0.147799502509    14.003074004430
         C           -1.113279361373    -0.340037058524    -0.046860502509    12.000000000000
         C            0.110046638627     0.390495941476    -0.024728502509    12.000000000000
         C           -2.316984361373     0.399415941476    -0.043578502509    12.000000000000
         C            0.088422638627     1.793870941476     0.039170497491    12.000000000000
         C           -2.312064361373     1.786655941476     0.015185497491    12.000000000000
         C           -1.108207361373     2.496942941476     0.043961497491    12.000000000000
         C            1.404622638627    -0.318775058524     0.013414497491    12.000000000000
         C           -2.342443361373    -2.475674058524     0.076799497491    12.000000000000
         C            3.745147638627    -0.137016058524    -0.003454502509    12.000000000000
         H           -3.266814361373    -0.124848058524    -0.065835502509     1.007825032230
         H            1.034045638627     2.324964941476     0.067232497491     1.007825032230
         H           -0.246703361373    -2.158917058524     0.041345497491     1.007825032230
         H           -3.260901361373     2.319308941476     0.022319497491     1.007825032230
         H           -1.106138361373     3.582158941476     0.093103497491     1.007825032230
         H           -2.814617361373    -2.255558058524     1.044473497491     1.007825032230
         H           -2.077941361373    -3.534109058524     0.051753497491     1.007825032230
         H           -3.077929361373    -2.295471058524    -0.714103502509     1.007825032230
         H            3.851955638627    -0.821782058524    -0.845948502509     1.007825032230
         H            3.853769638627    -0.693701058524     0.928511497491     1.007825032230
         H            4.475853638627     0.667411941476    -0.062202502509     1.007825032230

  Basis Set: AUG-CC-PVTZ
    Blend: AUG-CC-PVTZ
  Basis Set: (AUG-CC-PVTZ AUX)
    Blend: AUG-CC-PVTZ-JKFIT
	 Reference Energy          =    -551.6016696661095011 [Eh]
	 Singles Energy            =      -0.0000000000000000 [Eh]
	 Same-Spin Energy          =      -0.5788443234227819 [Eh]
	 Opposite-Spin Energy      =      -1.7997602130486334 [Eh]
	 Correlation Energy        =      -2.3786045364714155 [Eh]
	 Total Energy              =    -553.9802742025809721 [Eh]

	 ================> DF-SCS-MP2 Energies <==================
	-----------------------------------------------------------
	 SCS Same-Spin Scale       =       0.3333333333333333 [-]
	 SCS Opposite-Spin Scale   =       1.2000000000000000 [-]
	 SCS Same-Spin Energy      =      -0.1929481078075940 [Eh]
	 SCS Opposite-Spin Energy  =      -2.1597122556583601 [Eh]
	 SCS Correlation Energy    =      -2.3526603634659540 [Eh]
	 SCS Total Energy          =    -553.9543300295754307 [Eh]
	-----------------------------------------------------------

  Dipole Moment: [D]
     X:    -0.2582      Y:    -0.0899      Z:     0.3275     Total:     0.4266

*** Psi4 exiting successfully. Buy a developer a beer!
