                               Psi4 1.3.2 release

  ==> Input File <==

--------------------------------------------------------------------------
#psi4
#
memory 32 gb

molecule  {
0 1
  O        2.4626037     0.4887487    -0.1380448
  O        1.5746620    -1.5220150     0.0896580
  N       -1.1191790    -1.6921850    -0.1509940
  C       -1.0966210    -0.3229200    -0.0500550
  C        0.1267050     0.4076130    -0.0279230
  C       -2.3003260     0.4165330    -0.0467730
  C        0.1050810     1.8109880     0.0359760
  C       -2.2954060     1.8037730     0.0119910
  C       -1.0915490     2.5140600     0.0407670
  C        1.4212810    -0.3016580     0.0102200
  C       -2.3257850    -2.4585570     0.0736050
  C        3.7618060    -0.1198990    -0.0066490
  H       -3.2501560    -0.1077310    -0.0690300
  H        1.0507040     2.3420820     0.0640380
  H       -0.2300450    -2.1418000     0.0381510
  H       -3.2442430     2.3364260     0.0191250
  H       -1.0894800     3.5992760     0.0899090
  H       -2.7979590    -2.2384410     1.0412790
  H       -2.0612830    -3.5169920     0.0485590
  H       -3.0612710    -2.2783540    -0.7172980
  H        3.8686140    -0.8046650    -0.8491430
  H        3.8704280    -0.6765840     0.9253170
  H        4.4925120     0.6845290    -0.0653970
units angstrom
no_reorient  #important for SAPT in psi4, default
symmetry c1  #important for SAPT in psi4, default
}

set PROPERTIES_ORIGIN ["COM"]
properties('MP2/aug-cc-pvtz', properties = ['dipole'])
--------------------------------------------------------------------------

    Molecular point group: c1
  Charge       = 0
  Multiplicity = 1
  Basis Set: AUG-CC-PVTZ
    Blend: AUG-CC-PVTZ
  Basis Set: (AUG-CC-PVTZ AUX)
    Blend: AUG-CC-PVTZ-JKFIT

    Orbital Energies [Eh]
    ---------------------

    Doubly Occupied:

       1A    -20.603551     2A    -20.534057     3A    -15.561483
       4A    -11.380432     5A    -11.297143     6A    -11.288147
       7A    -11.257335     8A    -11.250819     9A    -11.249574
      10A    -11.238578    11A    -11.226799    12A    -11.222902
      13A     -1.468180    14A     -1.346955    15A     -1.244158
      16A     -1.141306    17A     -1.046671    18A     -1.008779
      19A     -0.976092    20A     -0.922659    21A     -0.863496
      22A     -0.808458    23A     -0.785368    24A     -0.732050
      25A     -0.698687    26A     -0.677286    27A     -0.673608
      28A     -0.660464    29A     -0.630387    30A     -0.615158
      31A     -0.611050    32A     -0.582426    33A     -0.581127
      34A     -0.555626    35A     -0.541156    36A     -0.534326
      37A     -0.521309    38A     -0.506961    39A     -0.500960
      40A     -0.462147    41A     -0.442554    42A     -0.426454
      43A     -0.348736    44A     -0.290422

  @DF-RHF Final Energy:  -551.60215089732867

   => Energetics <=

    Nuclear Repulsion Energy =            689.1113160688748849
    One-Electron Energy =               -2118.7952605282416698
    Two-Electron Energy =                 878.0817935620381149
    Total Energy =                       -551.6021508973286700
  Basis Set: (AUG-CC-PVTZ AUX)
    Blend: AUG-CC-PVTZ-RI
    Molecular point group: c1

    Geometry (in Angstrom), charge = 0, multiplicity = 1:

       Center              X                  Y                   Z               Mass
    ------------   -----------------  -----------------  -----------------  -----------------
         O            2.449914995206     0.476922747012    -0.126748432806    15.994914619570
         O            1.561973295206    -1.533840952988     0.100954367194    15.994914619570
         N           -1.131867704794    -1.704010952988    -0.139697632806    14.003074004430
         C           -1.109309704794    -0.334745952988    -0.038758632806    12.000000000000
         C            0.114016295206     0.395787047012    -0.016626632806    12.000000000000
         C           -2.313014704794     0.404707047012    -0.035476632806    12.000000000000
         C            0.092392295206     1.799162047012     0.047272367194    12.000000000000
         C           -2.308094704794     1.791947047012     0.023287367194    12.000000000000
         C           -1.104237704794     2.502234047012     0.052063367194    12.000000000000
         C            1.408592295206    -0.313483952988     0.021516367194    12.000000000000
         C           -2.338473704794    -2.470382952988     0.084901367194    12.000000000000
         C            3.749117295206    -0.131724952988     0.004647367194    12.000000000000
         H           -3.262844704794    -0.119556952988    -0.057733632806     1.007825032230
         H            1.038015295206     2.330256047012     0.075334367194     1.007825032230
         H           -0.242733704794    -2.153625952988     0.049447367194     1.007825032230
         H           -3.256931704794     2.324600047012     0.030421367194     1.007825032230
         H           -1.102168704794     3.587450047012     0.101205367194     1.007825032230
         H           -2.810647704794    -2.250266952988     1.052575367194     1.007825032230
         H           -2.073971704794    -3.528817952988     0.059855367194     1.007825032230
         H           -3.073959704794    -2.290179952988    -0.706001632806     1.007825032230
         H            3.855925295206    -0.816490952988    -0.837846632806     1.007825032230
         H            3.857739295206    -0.688409952988     0.936613367194     1.007825032230
         H            4.479823295206     0.672703047012    -0.054100632806     1.007825032230

  Basis Set: AUG-CC-PVTZ
    Blend: AUG-CC-PVTZ
  Basis Set: (AUG-CC-PVTZ AUX)
    Blend: AUG-CC-PVTZ-JKFIT
	 Reference Energy          =    -551.6021508973286700 [Eh]
	 Singles Energy            =      -0.0000000000000000 [Eh]
	 Same-Spin Energy          =      -0.5783308648615342 [Eh]
	 Opposite-Spin Energy      =      -1.7980871722910619 [Eh]
	 Correlation Energy        =      -2.3764180371525958 [Eh]
	 Total Energy              =    -553.9785689344812454 [Eh]

	 ================> DF-SCS-MP2 Energies <==================
	-----------------------------------------------------------
	 SCS Same-Spin Scale       =       0.3333333333333333 [-]
	 SCS Opposite-Spin Scale   =       1.2000000000000000 [-]
	 SCS Same-Spin Energy      =      -0.1927769549538447 [Eh]
	 SCS Opposite-Spin Energy  =      -2.1577046067492742 [Eh]
	 SCS Correlation Energy    =      -2.3504815617031189 [Eh]
	 SCS Total Energy          =    -553.9526324590317472 [Eh]
	-----------------------------------------------------------

  Dipole Moment: [D]
     X:     0.0741      Y:     0.0524      Z:     0.4148     Total:     0.4246

*** Psi4 exiting successfully. Buy a developer a beer!
