                               Psi4 1.3.2 release

  ==> Input File <==

--------------------------------------------------------------------------
#psi4
#
memory 32 gb

molecule  {
0 1
  O        2.4822540     0.5405090    -0.0540980
  O        1.5746620    -1.5220150     0.0896580
  N       -1.1191790    -1.6921850    -0.1509940
  C       -1.0499866    -0.3237133    -0.0610955
  C        0.1267050     0.4076130    -0.0279230
  C       -2.3003260     0.4165330    -0.0467730
  C        0.1050810     1.8109880     0.0359760
  C       -2.2954060     1.8037730     0.0119910
  C       -1.0915490     2.5140600     0.0407670
  C        1.4212810    -0.3016580     0.0102200
  C       -2.3257850    -2.4585570     0.0736050
  C        3.7618060    -0.1198990    -0.0066490
  H       -3.2501560    -0.1077310    -0.0690300
  H        1.0507040     2.3420820     0.0640380
  H       -0.2300450    -2.1418000     0.0381510
  H       -3.2442430     2.3364260     0.0191250
  H       -1.0894800     3.5992760     0.0899090
  H       -2.7979590    -2.2384410     1.0412790
  H       -2.0612830    -3.5169920     0.0485590
  H       -3.0612710    -2.2783540    -0.7172980
  H        3.8686140    -0.8046650    -0.8491430
  H        3.8704280    -0.6765840     0.9253170
  H        4.4925120     0.6845290    -0.0653970
units angstrom
no_reorient  #important for SAPT in psi4, default
symmetry c1  #important for SAPT in psi4, default
}

set PROPERTIES_ORIGIN ["COM"]
properties('MP2/aug-cc-pvtz', properties = ['dipole'])
--------------------------------------------------------------------------

    Molecular point group: c1
  Charge       = 0
  Multiplicity = 1
  Basis Set: AUG-CC-PVTZ
    Blend: AUG-CC-PVTZ
  Basis Set: (AUG-CC-PVTZ AUX)
    Blend: AUG-CC-PVTZ-JKFIT

    Orbital Energies [Eh]
    ---------------------

    Doubly Occupied:

       1A    -20.602985     2A    -20.542149     3A    -15.563542
       4A    -11.385423     5A    -11.298972     6A    -11.284391
       7A    -11.260088     8A    -11.249681     9A    -11.248971
      10A    -11.236287    11A    -11.231736    12A    -11.223264
      13A     -1.454376    14A     -1.350443    15A     -1.245585
      16A     -1.142488    17A     -1.048050    18A     -1.006846
      19A     -0.969192    20A     -0.924244    21A     -0.861486
      22A     -0.812754    23A     -0.784598    24A     -0.728755
      25A     -0.697828    26A     -0.672137    27A     -0.668911
      28A     -0.662487    29A     -0.630627    30A     -0.613639
      31A     -0.612291    32A     -0.584882    33A     -0.576615
      34A     -0.556778    35A     -0.542678    36A     -0.534433
      37A     -0.521784    38A     -0.506786    39A     -0.504665
      40A     -0.465535    41A     -0.443213    42A     -0.427760
      43A     -0.349694    44A     -0.290964

  @DF-RHF Final Energy:  -551.59914684001819

   => Energetics <=

    Nuclear Repulsion Energy =            688.2686949150673854
    One-Electron Energy =               -2117.0956568952587986
    Two-Electron Energy =                 877.2278151401731066
    Total Energy =                       -551.5991468400181930
  Basis Set: (AUG-CC-PVTZ AUX)
    Blend: AUG-CC-PVTZ-RI
    Molecular point group: c1

    Geometry (in Angstrom), charge = 0, multiplicity = 1:

       Center              X                  Y                   Z               Mass
    ------------   -----------------  -----------------  -----------------  -----------------
         O            2.464271358460     0.523725529186    -0.050132886663    15.994914619570
         O            1.556679358460    -1.538798470814     0.093623113337    15.994914619570
         N           -1.137161641540    -1.708968470814    -0.147028886663    14.003074004430
         C           -1.067969241540    -0.340496770814    -0.057130386663    12.000000000000
         C            0.108722358460     0.390829529186    -0.023957886663    12.000000000000
         C           -2.318308641540     0.399749529186    -0.042807886663    12.000000000000
         C            0.087098358460     1.794204529186     0.039941113337    12.000000000000
         C           -2.313388641540     1.786989529186     0.015956113337    12.000000000000
         C           -1.109531641540     2.497276529186     0.044732113337    12.000000000000
         C            1.403298358460    -0.318441470814     0.014185113337    12.000000000000
         C           -2.343767641540    -2.475340470814     0.077570113337    12.000000000000
         C            3.743823358460    -0.136682470814    -0.002683886663    12.000000000000
         H           -3.268138641540    -0.124514470814    -0.065064886663     1.007825032230
         H            1.032721358460     2.325298529186     0.068003113337     1.007825032230
         H           -0.248027641540    -2.158583470814     0.042116113337     1.007825032230
         H           -3.262225641540     2.319642529186     0.023090113337     1.007825032230
         H           -1.107462641540     3.582492529186     0.093874113337     1.007825032230
         H           -2.815941641540    -2.255224470814     1.045244113337     1.007825032230
         H           -2.079265641540    -3.533775470814     0.052524113337     1.007825032230
         H           -3.079253641540    -2.295137470814    -0.713332886663     1.007825032230
         H            3.850631358460    -0.821448470814    -0.845177886663     1.007825032230
         H            3.852445358460    -0.693367470814     0.929282113337     1.007825032230
         H            4.474529358460     0.667745529186    -0.061431886663     1.007825032230

  Basis Set: AUG-CC-PVTZ
    Blend: AUG-CC-PVTZ
  Basis Set: (AUG-CC-PVTZ AUX)
    Blend: AUG-CC-PVTZ-JKFIT
	 Reference Energy          =    -551.5991468400181930 [Eh]
	 Singles Energy            =      -0.0000000000000000 [Eh]
	 Same-Spin Energy          =      -0.5788081312376329 [Eh]
	 Opposite-Spin Energy      =      -1.8001417332789966 [Eh]
	 Correlation Energy        =      -2.3789498645166294 [Eh]
	 Total Energy              =    -553.9780967045347779 [Eh]

	 ================> DF-SCS-MP2 Energies <==================
	-----------------------------------------------------------
	 SCS Same-Spin Scale       =       0.3333333333333333 [-]
	 SCS Opposite-Spin Scale   =       1.2000000000000000 [-]
	 SCS Same-Spin Energy      =      -0.1929360437458776 [Eh]
	 SCS Opposite-Spin Energy  =      -2.1601700799347960 [Eh]
	 SCS Correlation Energy    =      -2.3531061236806736 [Eh]
	 SCS Total Energy          =    -553.9522529636988111 [Eh]
	-----------------------------------------------------------

  Dipole Moment: [D]
     X:    -0.1946      Y:    -0.1407      Z:     0.3258     Total:     0.4048

*** Psi4 exiting successfully. Buy a developer a beer!
