                               Psi4 1.3.2 release

  ==> Input File <==

--------------------------------------------------------------------------
#psi4
#
memory 32 gb

molecule  {
0 1
  O        2.4822540     0.5405090    -0.0540980
  O        1.5746620    -1.5220150     0.0896580
  N       -1.1191790    -1.6921850    -0.1509940
  C       -1.0966210    -0.3229200    -0.0500550
  C        0.1267050     0.4076130    -0.0279230
  C       -2.3003260     0.4165330    -0.0467730
  C        0.1050810     1.8109880     0.0359760
  C       -2.2954060     1.8037730     0.0119910
  C       -1.0915490     2.5140600     0.0407670
  C        1.4212810    -0.3016580     0.0102200
  C       -2.2672430    -2.5355658     0.1026331
  C        3.7618060    -0.1198990    -0.0066490
  H       -3.2501560    -0.1077310    -0.0690300
  H        1.0507040     2.3420820     0.0640380
  H       -0.2300450    -2.1418000     0.0381510
  H       -3.2442430     2.3364260     0.0191250
  H       -1.0894800     3.5992760     0.0899090
  H       -2.7979590    -2.2384410     1.0412790
  H       -2.0612830    -3.5169920     0.0485590
  H       -3.0612710    -2.2783540    -0.7172980
  H        3.8686140    -0.8046650    -0.8491430
  H        3.8704280    -0.6765840     0.9253170
  H        4.4925120     0.6845290    -0.0653970
units angstrom
no_reorient  #important for SAPT in psi4, default
symmetry c1  #important for SAPT in psi4, default
}

set PROPERTIES_ORIGIN ["COM"]
properties('MP2/aug-cc-pvtz', properties = ['dipole'])
--------------------------------------------------------------------------

    Molecular point group: c1
  Charge       = 0
  Multiplicity = 1
  Basis Set: AUG-CC-PVTZ
    Blend: AUG-CC-PVTZ
  Basis Set: (AUG-CC-PVTZ AUX)
    Blend: AUG-CC-PVTZ-JKFIT

    Orbital Energies [Eh]
    ---------------------

    Doubly Occupied:

       1A    -20.602884     2A    -20.541663     3A    -15.563277
       4A    -11.385757     5A    -11.300462     6A    -11.284419
       7A    -11.260271     8A    -11.251966     9A    -11.250434
      10A    -11.240721    11A    -11.228090    12A    -11.223935
      13A     -1.454143    14A     -1.349978    15A     -1.245244
      16A     -1.142873    17A     -1.046385    18A     -1.012124
      19A     -0.968739    20A     -0.924028    21A     -0.864861
      22A     -0.809488    23A     -0.785054    24A     -0.728657
      25A     -0.701455    26A     -0.673460    27A     -0.668756
      28A     -0.664476    29A     -0.630420    30A     -0.619700
      31A     -0.601084    32A     -0.589922    33A     -0.576661
      34A     -0.557146    35A     -0.545662    36A     -0.535718
      37A     -0.524835    38A     -0.505115    39A     -0.500021
      40A     -0.465221    41A     -0.443868    42A     -0.422264
      43A     -0.349682    44A     -0.291081

  @DF-RHF Final Energy:  -551.58952426118981

   => Energetics <=

    Nuclear Repulsion Energy =            687.5794824683471234
    One-Electron Energy =               -2115.6740229901502062
    Two-Electron Energy =                 876.5050162606132744
    Total Energy =                       -551.5895242611898084
  Basis Set: (AUG-CC-PVTZ AUX)
    Blend: AUG-CC-PVTZ-RI
    Molecular point group: c1

    Geometry (in Angstrom), charge = 0, multiplicity = 1:

       Center              X                  Y                   Z               Mass
    ------------   -----------------  -----------------  -----------------  -----------------
         O            2.463405765511     0.529265822733    -0.053045572482    15.994914619570
         O            1.555813765511    -1.533258177267     0.090710427518    15.994914619570
         N           -1.138027234489    -1.703428177267    -0.149941572482    14.003074004430
         C           -1.115469234489    -0.334163177267    -0.049002572482    12.000000000000
         C            0.107856765511     0.396369822733    -0.026870572482    12.000000000000
         C           -2.319174234489     0.405289822733    -0.045720572482    12.000000000000
         C            0.086232765511     1.799744822733     0.037028427518    12.000000000000
         C           -2.314254234489     1.792529822733     0.013043427518    12.000000000000
         C           -1.110397234489     2.502816822733     0.041819427518    12.000000000000
         C            1.402432765511    -0.312901177267     0.011272427518    12.000000000000
         C           -2.286091234489    -2.546808977267     0.103685527518    12.000000000000
         C            3.742957765511    -0.131142177267    -0.005596572482    12.000000000000
         H           -3.269004234489    -0.118974177267    -0.067977572482     1.007825032230
         H            1.031855765511     2.330838822733     0.065090427518     1.007825032230
         H           -0.248893234489    -2.153043177267     0.039203427518     1.007825032230
         H           -3.263091234489     2.325182822733     0.020177427518     1.007825032230
         H           -1.108328234489     3.588032822733     0.090961427518     1.007825032230
         H           -2.816807234489    -2.249684177267     1.042331427518     1.007825032230
         H           -2.080131234489    -3.528235177267     0.049611427518     1.007825032230
         H           -3.080119234489    -2.289597177267    -0.716245572482     1.007825032230
         H            3.849765765511    -0.815908177267    -0.848090572482     1.007825032230
         H            3.851579765511    -0.687827177267     0.926369427518     1.007825032230
         H            4.473663765511     0.673285822733    -0.064344572482     1.007825032230

  Basis Set: AUG-CC-PVTZ
    Blend: AUG-CC-PVTZ
  Basis Set: (AUG-CC-PVTZ AUX)
    Blend: AUG-CC-PVTZ-JKFIT
	 Reference Energy          =    -551.5895242611898084 [Eh]
	 Singles Energy            =      -0.0000000000000000 [Eh]
	 Same-Spin Energy          =      -0.5789965853140366 [Eh]
	 Opposite-Spin Energy      =      -1.8002469380102242 [Eh]
	 Correlation Energy        =      -2.3792435233242610 [Eh]
	 Total Energy              =    -553.9687677845140570 [Eh]

	 ================> DF-SCS-MP2 Energies <==================
	-----------------------------------------------------------
	 SCS Same-Spin Scale       =       0.3333333333333333 [-]
	 SCS Opposite-Spin Scale   =       1.2000000000000000 [-]
	 SCS Same-Spin Energy      =      -0.1929988617713455 [Eh]
	 SCS Opposite-Spin Energy  =      -2.1602963256122689 [Eh]
	 SCS Correlation Energy    =      -2.3532951873836145 [Eh]
	 SCS Total Energy          =    -553.9428194485734593 [Eh]
	-----------------------------------------------------------

  Dipole Moment: [D]
     X:    -0.0891      Y:    -0.0961      Z:     0.3586     Total:     0.3818

*** Psi4 exiting successfully. Buy a developer a beer!
