                               Psi4 1.3.2 release

  ==> Input File <==

--------------------------------------------------------------------------
#psi4
#
memory 32 gb

molecule  {
0 1
  O        2.4822540     0.5405090    -0.0540980
  O        1.5746620    -1.5220150     0.0896580
  N       -1.1191790    -1.6921850    -0.1509940
  C       -0.9570273    -0.3302987    -0.0834916
  C        0.1267050     0.4076130    -0.0279230
  C       -2.3003260     0.4165330    -0.0467730
  C        0.1050810     1.8109880     0.0359760
  C       -2.2954060     1.8037730     0.0119910
  C       -1.0915490     2.5140600     0.0407670
  C        1.4212810    -0.3016580     0.0102200
  C       -2.3257850    -2.4585570     0.0736050
  C        3.7618060    -0.1198990    -0.0066490
  H       -3.2501560    -0.1077310    -0.0690300
  H        1.0507040     2.3420820     0.0640380
  H       -0.2300450    -2.1418000     0.0381510
  H       -3.2442430     2.3364260     0.0191250
  H       -1.0894800     3.5992760     0.0899090
  H       -2.7979590    -2.2384410     1.0412790
  H       -2.0612830    -3.5169920     0.0485590
  H       -3.0612710    -2.2783540    -0.7172980
  H        3.8686140    -0.8046650    -0.8491430
  H        3.8704280    -0.6765840     0.9253170
  H        4.4925120     0.6845290    -0.0653970
units angstrom
no_reorient  #important for SAPT in psi4, default
symmetry c1  #important for SAPT in psi4, default
}

set PROPERTIES_ORIGIN ["COM"]
properties('MP2/aug-cc-pvtz', properties = ['dipole'])
--------------------------------------------------------------------------

    Molecular point group: c1
  Charge       = 0
  Multiplicity = 1
  Basis Set: AUG-CC-PVTZ
    Blend: AUG-CC-PVTZ
  Basis Set: (AUG-CC-PVTZ AUX)
    Blend: AUG-CC-PVTZ-JKFIT

    Orbital Energies [Eh]
    ---------------------

    Doubly Occupied:

       1A    -20.603471     2A    -20.542985     3A    -15.563687
       4A    -11.385050     5A    -11.298652     6A    -11.284561
       7A    -11.263213     8A    -11.247002     9A    -11.245546
      10A    -11.238807    11A    -11.229215    12A    -11.223975
      13A     -1.455091    14A     -1.351498    15A     -1.245328
      16A     -1.144650    17A     -1.054017    18A     -1.001812
      19A     -0.969922    20A     -0.927008    21A     -0.855987
      22A     -0.820320    23A     -0.783110    24A     -0.728972
      25A     -0.695312    26A     -0.670427    27A     -0.669238
      28A     -0.663816    29A     -0.635041    30A     -0.613660
      31A     -0.609499    32A     -0.586037    33A     -0.575802
      34A     -0.558978    35A     -0.543038    36A     -0.534026
      37A     -0.514429    38A     -0.508948    39A     -0.505273
      40A     -0.466032    41A     -0.437984    42A     -0.428421
      43A     -0.351580    44A     -0.290126

  @DF-RHF Final Energy:  -551.57782019538229

   => Energetics <=

    Nuclear Repulsion Energy =            688.8808245504970955
    One-Electron Energy =               -2118.2741914056368842
    Two-Electron Energy =                 877.8155466597576151
    Total Energy =                       -551.5778201953822872
  Basis Set: (AUG-CC-PVTZ AUX)
    Blend: AUG-CC-PVTZ-RI
    Molecular point group: c1

    Geometry (in Angstrom), charge = 0, multiplicity = 1:

       Center              X                  Y                   Z               Mass
    ------------   -----------------  -----------------  -----------------  -----------------
         O            2.457513916602     0.524204238230    -0.048504858659    15.994914619570
         O            1.549921916602    -1.538319761770     0.095251141341    15.994914619570
         N           -1.143919083398    -1.708489761770    -0.145400858659    14.003074004430
         C           -0.981767383398    -0.346603461770    -0.077898458659    12.000000000000
         C            0.101964916602     0.391308238230    -0.022329858659    12.000000000000
         C           -2.325066083398     0.400228238230    -0.041179858659    12.000000000000
         C            0.080340916602     1.794683238230     0.041569141341    12.000000000000
         C           -2.320146083398     1.787468238230     0.017584141341    12.000000000000
         C           -1.116289083398     2.497755238230     0.046360141341    12.000000000000
         C            1.396540916602    -0.317962761770     0.015813141341    12.000000000000
         C           -2.350525083398    -2.474861761770     0.079198141341    12.000000000000
         C            3.737065916602    -0.136203761770    -0.001055858659    12.000000000000
         H           -3.274896083398    -0.124035761770    -0.063436858659     1.007825032230
         H            1.025963916602     2.325777238230     0.069631141341     1.007825032230
         H           -0.254785083398    -2.158104761770     0.043744141341     1.007825032230
         H           -3.268983083398     2.320121238230     0.024718141341     1.007825032230
         H           -1.114220083398     3.582971238230     0.095502141341     1.007825032230
         H           -2.822699083398    -2.254745761770     1.046872141341     1.007825032230
         H           -2.086023083398    -3.533296761770     0.054152141341     1.007825032230
         H           -3.086011083398    -2.294658761770    -0.711704858659     1.007825032230
         H            3.843873916602    -0.820969761770    -0.843549858659     1.007825032230
         H            3.845687916602    -0.692888761770     0.930910141341     1.007825032230
         H            4.467771916602     0.668224238230    -0.059803858659     1.007825032230

  Basis Set: AUG-CC-PVTZ
    Blend: AUG-CC-PVTZ
  Basis Set: (AUG-CC-PVTZ AUX)
    Blend: AUG-CC-PVTZ-JKFIT
	 Reference Energy          =    -551.5778201953822872 [Eh]
	 Singles Energy            =      -0.0000000000000000 [Eh]
	 Same-Spin Energy          =      -0.5785846047442197 [Eh]
	 Opposite-Spin Energy      =      -1.8015411763099003 [Eh]
	 Correlation Energy        =      -2.3801257810541201 [Eh]
	 Total Energy              =    -553.9579459764364628 [Eh]

	 ================> DF-SCS-MP2 Energies <==================
	-----------------------------------------------------------
	 SCS Same-Spin Scale       =       0.3333333333333333 [-]
	 SCS Opposite-Spin Scale   =       1.2000000000000000 [-]
	 SCS Same-Spin Energy      =      -0.1928615349147399 [Eh]
	 SCS Opposite-Spin Energy  =      -2.1618494115718803 [Eh]
	 SCS Correlation Energy    =      -2.3547109464866200 [Eh]
	 SCS Total Energy          =    -553.9325311418689353 [Eh]
	-----------------------------------------------------------

  Dipole Moment: [D]
     X:    -0.2193      Y:    -0.2142      Z:     0.3254     Total:     0.4470

*** Psi4 exiting successfully. Buy a developer a beer!
