                               Psi4 1.3.2 release

  ==> Input File <==

--------------------------------------------------------------------------
#psi4
#
memory 32 gb

molecule  {
0 1
  O        2.4822540     0.5405090    -0.0540980
  O        1.5746620    -1.5220150     0.0896580
  N       -1.1191790    -1.6921850    -0.1509940
  C       -1.0966210    -0.3229200    -0.0500550
  C        0.1267050     0.4076130    -0.0279230
  C       -2.3003260     0.4165330    -0.0467730
  C        0.1050810     1.8109880     0.0359760
  C       -2.2954060     1.8037730     0.0119910
  C       -1.0915490     2.5140600     0.0407670
  C        1.4212810    -0.3016580     0.0102200
  C       -2.2972316    -2.4975520     0.0882648
  C        3.7618060    -0.1198990    -0.0066490
  H       -3.2501560    -0.1077310    -0.0690300
  H        1.0507040     2.3420820     0.0640380
  H       -0.2300450    -2.1418000     0.0381510
  H       -3.2442430     2.3364260     0.0191250
  H       -1.0894800     3.5992760     0.0899090
  H       -2.7979590    -2.2384410     1.0412790
  H       -2.0612830    -3.5169920     0.0485590
  H       -3.0612710    -2.2783540    -0.7172980
  H        3.8686140    -0.8046650    -0.8491430
  H        3.8704280    -0.6765840     0.9253170
  H        4.4925120     0.6845290    -0.0653970
units angstrom
no_reorient  #important for SAPT in psi4, default
symmetry c1  #important for SAPT in psi4, default
}

set PROPERTIES_ORIGIN ["COM"]
properties('MP2/aug-cc-pvtz', properties = ['dipole'])
--------------------------------------------------------------------------

    Molecular point group: c1
  Charge       = 0
  Multiplicity = 1
  Basis Set: AUG-CC-PVTZ
    Blend: AUG-CC-PVTZ
  Basis Set: (AUG-CC-PVTZ AUX)
    Blend: AUG-CC-PVTZ-JKFIT

    Orbital Energies [Eh]
    ---------------------

    Doubly Occupied:

       1A    -20.602782     2A    -20.541682     3A    -15.563021
       4A    -11.385642     5A    -11.299338     6A    -11.284336
       7A    -11.258882     8A    -11.251818     9A    -11.250170
      10A    -11.240174    11A    -11.227778    12A    -11.223623
      13A     -1.454065    14A     -1.349945    15A     -1.245273
      16A     -1.142416    17A     -1.046187    18A     -1.010767
      19A     -0.968511    20A     -0.923178    21A     -0.864644
      22A     -0.809099    23A     -0.784611    24A     -0.728635
      25A     -0.700660    26A     -0.673364    27A     -0.668640
      28A     -0.661899    29A     -0.629689    30A     -0.617777
      31A     -0.605740    32A     -0.585088    33A     -0.576550
      34A     -0.555589    35A     -0.547707    36A     -0.535461
      37A     -0.524876    38A     -0.505989    39A     -0.500904
      40A     -0.465231    41A     -0.444270    42A     -0.425177
      43A     -0.349507    44A     -0.291270

  @DF-RHF Final Energy:  -551.59877939280841

   => Energetics <=

    Nuclear Repulsion Energy =            687.7723787913652131
    One-Electron Energy =               -2116.0983826290503202
    Two-Electron Energy =                 876.7272244448768106
    Total Energy =                       -551.5987793928084102
  Basis Set: (AUG-CC-PVTZ AUX)
    Blend: AUG-CC-PVTZ-RI
    Molecular point group: c1

    Geometry (in Angstrom), charge = 0, multiplicity = 1:

       Center              X                  Y                   Z               Mass
    ------------   -----------------  -----------------  -----------------  -----------------
         O            2.465585711153     0.526502505418    -0.052001105152    15.994914619570
         O            1.557993711153    -1.536021494582     0.091754894848    15.994914619570
         N           -1.135847288847    -1.706191494582    -0.148897105152    14.003074004430
         C           -1.113289288847    -0.336926494582    -0.047958105152    12.000000000000
         C            0.110036711153     0.393606505418    -0.025826105152    12.000000000000
         C           -2.316994288847     0.402526505418    -0.044676105152    12.000000000000
         C            0.088412711153     1.796981505418     0.038072894848    12.000000000000
         C           -2.312074288847     1.789766505418     0.014087894848    12.000000000000
         C           -1.108217288847     2.500053505418     0.042863894848    12.000000000000
         C            1.404612711153    -0.315664494582     0.012316894848    12.000000000000
         C           -2.313899888847    -2.511558494582     0.090361694848    12.000000000000
         C            3.745137711153    -0.133905494582    -0.004552105152    12.000000000000
         H           -3.266824288847    -0.121737494582    -0.066933105152     1.007825032230
         H            1.034035711153     2.328075505418     0.066134894848     1.007825032230
         H           -0.246713288847    -2.155806494582     0.040247894848     1.007825032230
         H           -3.260911288847     2.322419505418     0.021221894848     1.007825032230
         H           -1.106148288847     3.585269505418     0.092005894848     1.007825032230
         H           -2.814627288847    -2.252447494582     1.043375894848     1.007825032230
         H           -2.077951288847    -3.530998494582     0.050655894848     1.007825032230
         H           -3.077939288847    -2.292360494582    -0.715201105152     1.007825032230
         H            3.851945711153    -0.818671494582    -0.847046105152     1.007825032230
         H            3.853759711153    -0.690590494582     0.927413894848     1.007825032230
         H            4.475843711153     0.670522505418    -0.063300105152     1.007825032230

  Basis Set: AUG-CC-PVTZ
    Blend: AUG-CC-PVTZ
  Basis Set: (AUG-CC-PVTZ AUX)
    Blend: AUG-CC-PVTZ-JKFIT
	 Reference Energy          =    -551.5987793928084102 [Eh]
	 Singles Energy            =      -0.0000000000000000 [Eh]
	 Same-Spin Energy          =      -0.5788941150028784 [Eh]
	 Opposite-Spin Energy      =      -1.7998833073013309 [Eh]
	 Correlation Energy        =      -2.3787774223042093 [Eh]
	 Total Energy              =    -553.9775568151126208 [Eh]

	 ================> DF-SCS-MP2 Energies <==================
	-----------------------------------------------------------
	 SCS Same-Spin Scale       =       0.3333333333333333 [-]
	 SCS Opposite-Spin Scale   =       1.2000000000000000 [-]
	 SCS Same-Spin Energy      =      -0.1929647050009594 [Eh]
	 SCS Opposite-Spin Energy  =      -2.1598599687615971 [Eh]
	 SCS Correlation Energy    =      -2.3528246737625564 [Eh]
	 SCS Total Energy          =    -553.9516040665710079 [Eh]
	-----------------------------------------------------------

  Dipole Moment: [D]
     X:    -0.1355      Y:    -0.1020      Z:     0.3421     Total:     0.3818

*** Psi4 exiting successfully. Buy a developer a beer!
