                               Psi4 1.4a3.dev225

  ==> Input File <==

--------------------------------------------------------------------------
#psi4
#
memory 32 gb

molecule  {
0 1
  O        2.4822540     0.5405090    -0.0540980
  O        1.5746620    -1.5220150     0.0896580
  N       -1.1191790    -1.6921850    -0.1509940
  C       -1.0957996    -0.2730620    -0.0463796
  C        0.1267050     0.4076130    -0.0279230
  C       -2.3003260     0.4165330    -0.0467730
  C        0.1050810     1.8109880     0.0359760
  C       -2.2954060     1.8037730     0.0119910
  C       -1.0915490     2.5140600     0.0407670
  C        1.4212810    -0.3016580     0.0102200
  C       -2.3257850    -2.4585570     0.0736050
  C        3.7618060    -0.1198990    -0.0066490
  H       -3.2501560    -0.1077310    -0.0690300
  H        1.0507040     2.3420820     0.0640380
  H       -0.2300450    -2.1418000     0.0381510
  H       -3.2442430     2.3364260     0.0191250
  H       -1.0894800     3.5992760     0.0899090
  H       -2.7979590    -2.2384410     1.0412790
  H       -2.0612830    -3.5169920     0.0485590
  H       -3.0612710    -2.2783540    -0.7172980
  H        3.8686140    -0.8046650    -0.8491430
  H        3.8704280    -0.6765840     0.9253170
  H        4.4925120     0.6845290    -0.0653970
units angstrom
no_reorient  #important for SAPT in psi4, default
symmetry c1  #important for SAPT in psi4, default
}

set PROPERTIES_ORIGIN ["COM"]
properties('MP2/aug-cc-pvtz', properties = ['dipole'])
--------------------------------------------------------------------------

    Molecular point group: c1
  Charge       = 0
  Multiplicity = 1
  Basis Set: AUG-CC-PVTZ
    Blend: AUG-CC-PVTZ
  Basis Set: (AUG-CC-PVTZ AUX)
    Blend: AUG-CC-PVTZ-JKFIT

    Orbital Energies [Eh]
    ---------------------

    Doubly Occupied:

       1A    -20.604803     2A    -20.543359     3A    -15.555328
       4A    -11.388307     5A    -11.294672     6A    -11.285546
       7A    -11.253426     8A    -11.253136     9A    -11.251438
      10A    -11.240870    11A    -11.227909    12A    -11.226859
      13A     -1.455796    14A     -1.351197    15A     -1.229578
      16A     -1.145245    17A     -1.050006    18A     -1.012628
      19A     -0.969766    20A     -0.915434    21A     -0.866892
      22A     -0.811413    23A     -0.785537    24A     -0.730662
      25A     -0.693879    26A     -0.675129    27A     -0.670135
      28A     -0.659332    29A     -0.627019    30A     -0.617039
      31A     -0.605575    32A     -0.584039    33A     -0.578609
      34A     -0.556994    35A     -0.539813    36A     -0.533568
      37A     -0.525562    38A     -0.509306    39A     -0.502528
      40A     -0.466243    41A     -0.446645    42A     -0.419050
      43A     -0.351418    44A     -0.296890

  @DF-RHF Final Energy:  -551.59838652470955

   => Energetics <=

    Nuclear Repulsion Energy =            688.0998443441831114
    One-Electron Energy =               -2116.7793039591938395
    Two-Electron Energy =                 877.0810730903011745
    Total Energy =                       -551.5983865247095537
  Basis Set: (AUG-CC-PVTZ AUX)
    Blend: AUG-CC-PVTZ-RI
    Molecular point group: c1

    Geometry (in Angstrom), charge = 0, multiplicity = 1:

       Center              X                  Y                   Z               Mass
    ------------   -----------------  -----------------  -----------------  -----------------
         O            2.467601618949     0.520043560681    -0.051202621898    15.994914619570
         O            1.560009618949    -1.542480439319     0.092553378102    15.994914619570
         N           -1.133831381051    -1.712650439319    -0.148098621898    14.003074004430
         C           -1.110451981051    -0.293527439319    -0.043484221898    12.000000000000
         C            0.112052618949     0.387147560681    -0.025027621898    12.000000000000
         C           -2.314978381051     0.396067560681    -0.043877621898    12.000000000000
         C            0.090428618949     1.790522560681     0.038871378102    12.000000000000
         C           -2.310058381051     1.783307560681     0.014886378102    12.000000000000
         C           -1.106201381051     2.493594560681     0.043662378102    12.000000000000
         C            1.406628618949    -0.322123439319     0.013115378102    12.000000000000
         C           -2.340437381051    -2.479022439319     0.076500378102    12.000000000000
         C            3.747153618949    -0.140364439319    -0.003753621898    12.000000000000
         H           -3.264808381051    -0.128196439319    -0.066134621898     1.007825032230
         H            1.036051618949     2.321616560681     0.066933378102     1.007825032230
         H           -0.244697381051    -2.162265439319     0.041046378102     1.007825032230
         H           -3.258895381051     2.315960560681     0.022020378102     1.007825032230
         H           -1.104132381051     3.578810560681     0.092804378102     1.007825032230
         H           -2.812611381051    -2.258906439319     1.044174378102     1.007825032230
         H           -2.075935381051    -3.537457439319     0.051454378102     1.007825032230
         H           -3.075923381051    -2.298819439319    -0.714402621898     1.007825032230
         H            3.853961618949    -0.825130439319    -0.846247621898     1.007825032230
         H            3.855775618949    -0.697049439319     0.928212378102     1.007825032230
         H            4.477859618949     0.664063560681    -0.062501621898     1.007825032230

  Basis Set: AUG-CC-PVTZ
    Blend: AUG-CC-PVTZ
  Basis Set: (AUG-CC-PVTZ AUX)
    Blend: AUG-CC-PVTZ-JKFIT
	 Reference Energy          =    -551.5983865247095537 [Eh]
	 Singles Energy            =      -0.0000000000000000 [Eh]
	 Same-Spin Energy          =      -0.5788602715601030 [Eh]
	 Opposite-Spin Energy      =      -1.8000335604902129 [Eh]
	 Correlation Energy        =      -2.3788938320503159 [Eh]
	 Total Energy              =    -553.9772803567598203 [Eh]

	 ================> DF-SCS-MP2 Energies <==================
	-----------------------------------------------------------
	 SCS Same-Spin Scale       =       0.3333333333333333 [-]
	 SCS Opposite-Spin Scale   =       1.2000000000000000 [-]
	 SCS Same-Spin Energy      =      -0.1929534238533677 [Eh]
	 SCS Opposite-Spin Energy  =      -2.1600402725882555 [Eh]
	 SCS Correlation Energy    =      -2.3529936964416232 [Eh]
	 SCS Total Energy          =    -553.9513802211512257 [Eh]
	-----------------------------------------------------------

  Dipole Moment: [D]
     X:    -0.0552      Y:     0.2673      Z:     0.3511     Total:     0.4447

*** Psi4 exiting successfully. Buy a developer a beer!
