                               Psi4 1.3.2 release

  ==> Input File <==

--------------------------------------------------------------------------
#psi4
#
memory 32 gb

molecule  {
0 1
  O        2.4822540     0.5405090    -0.0540980
  O        1.5746620    -1.5220150     0.0896580
  N       -1.1191790    -1.6921850    -0.1509940
  C       -1.0966210    -0.3229200    -0.0500550
  C        0.1267050     0.4076130    -0.0279230
  C       -2.3003260     0.4165330    -0.0467730
  C        0.1050810     1.8109880     0.0359760
  C       -2.2954060     1.8037730     0.0119910
  C       -1.0915490     2.5140600     0.0407670
  C        1.4212810    -0.3016580     0.0102200
  C       -2.3528683    -2.4186283     0.0586715
  C        3.7618060    -0.1198990    -0.0066490
  H       -3.2501560    -0.1077310    -0.0690300
  H        1.0507040     2.3420820     0.0640380
  H       -0.2300450    -2.1418000     0.0381510
  H       -3.2442430     2.3364260     0.0191250
  H       -1.0894800     3.5992760     0.0899090
  H       -2.7979590    -2.2384410     1.0412790
  H       -2.0612830    -3.5169920     0.0485590
  H       -3.0612710    -2.2783540    -0.7172980
  H        3.8686140    -0.8046650    -0.8491430
  H        3.8704280    -0.6765840     0.9253170
  H        4.4925120     0.6845290    -0.0653970
units angstrom
no_reorient  #important for SAPT in psi4, default
symmetry c1  #important for SAPT in psi4, default
}

set PROPERTIES_ORIGIN ["COM"]
properties('MP2/aug-cc-pvtz', properties = ['dipole'])
--------------------------------------------------------------------------

    Molecular point group: c1
  Charge       = 0
  Multiplicity = 1
  Basis Set: AUG-CC-PVTZ
    Blend: AUG-CC-PVTZ
  Basis Set: (AUG-CC-PVTZ AUX)
    Blend: AUG-CC-PVTZ-JKFIT

    Orbital Energies [Eh]
    ---------------------

    Doubly Occupied:

       1A    -20.602804     2A    -20.542016     3A    -15.563607
       4A    -11.385694     5A    -11.297549     6A    -11.284334
       7A    -11.258763     8A    -11.251804     9A    -11.249922
      10A    -11.239430    11A    -11.227461    12A    -11.223307
      13A     -1.454148    14A     -1.350150    15A     -1.246207
      16A     -1.141898    17A     -1.046122    18A     -1.008709
      19A     -0.968451    20A     -0.923900    21A     -0.864446
      22A     -0.809330    23A     -0.784059    24A     -0.728760
      25A     -0.699640    26A     -0.673445    27A     -0.668716
      28A     -0.661124    29A     -0.629345    30A     -0.620607
      31A     -0.614167    32A     -0.584478    33A     -0.576549
      34A     -0.557084    35A     -0.535876    36A     -0.530889
      37A     -0.523579    38A     -0.506735    39A     -0.501120
      40A     -0.465457    41A     -0.445151    42A     -0.429392
      43A     -0.349418    44A     -0.291817

  @DF-RHF Final Energy:  -551.59871349821674

   => Energetics <=

    Nuclear Repulsion Energy =            688.2211110018770341
    One-Electron Energy =               -2117.0047293388893195
    Two-Electron Energy =                 877.1849048387955463
    Total Energy =                       -551.5987134982167390
  Basis Set: (AUG-CC-PVTZ AUX)
    Blend: AUG-CC-PVTZ-RI
    Molecular point group: c1

    Geometry (in Angstrom), charge = 0, multiplicity = 1:

       Center              X                  Y                   Z               Mass
    ------------   -----------------  -----------------  -----------------  -----------------
         O            2.469630080737     0.520765346102    -0.049849894847    15.994914619570
         O            1.562038080737    -1.541758653898     0.093906105153    15.994914619570
         N           -1.131802919263    -1.711928653898    -0.146745894847    14.003074004430
         C           -1.109244919263    -0.342663653898    -0.045806894847    12.000000000000
         C            0.114081080737     0.387869346102    -0.023674894847    12.000000000000
         C           -2.312949919263     0.396789346102    -0.042524894847    12.000000000000
         C            0.092457080737     1.791244346102     0.040224105153    12.000000000000
         C           -2.308029919263     1.784029346102     0.016239105153    12.000000000000
         C           -1.104172919263     2.494316346102     0.045015105153    12.000000000000
         C            1.408657080737    -0.321401653898     0.014468105153    12.000000000000
         C           -2.365492219263    -2.438371953898     0.062919605153    12.000000000000
         C            3.749182080737    -0.139642653898    -0.002400894847    12.000000000000
         H           -3.262779919263    -0.127474653898    -0.064781894847     1.007825032230
         H            1.038080080737     2.322338346102     0.068286105153     1.007825032230
         H           -0.242668919263    -2.161543653898     0.042399105153     1.007825032230
         H           -3.256866919263     2.316682346102     0.023373105153     1.007825032230
         H           -1.102103919263     3.579532346102     0.094157105153     1.007825032230
         H           -2.810582919263    -2.258184653898     1.045527105153     1.007825032230
         H           -2.073906919263    -3.536735653898     0.052807105153     1.007825032230
         H           -3.073894919263    -2.298097653898    -0.713049894847     1.007825032230
         H            3.855990080737    -0.824408653898    -0.844894894847     1.007825032230
         H            3.857804080737    -0.696327653898     0.929565105153     1.007825032230
         H            4.479888080737     0.664785346102    -0.061148894847     1.007825032230

  Basis Set: AUG-CC-PVTZ
    Blend: AUG-CC-PVTZ
  Basis Set: (AUG-CC-PVTZ AUX)
    Blend: AUG-CC-PVTZ-JKFIT
	 Reference Energy          =    -551.5987134982167390 [Eh]
	 Singles Energy            =      -0.0000000000000000 [Eh]
	 Same-Spin Energy          =      -0.5790415740588889 [Eh]
	 Opposite-Spin Energy      =      -1.8001203005025790 [Eh]
	 Correlation Energy        =      -2.3791618745614680 [Eh]
	 Total Energy              =    -553.9778753727781577 [Eh]

	 ================> DF-SCS-MP2 Energies <==================
	-----------------------------------------------------------
	 SCS Same-Spin Scale       =       0.3333333333333333 [-]
	 SCS Opposite-Spin Scale   =       1.2000000000000000 [-]
	 SCS Same-Spin Energy      =      -0.1930138580196296 [Eh]
	 SCS Opposite-Spin Energy  =      -2.1601443606030948 [Eh]
	 SCS Correlation Energy    =      -2.3531582186227245 [Eh]
	 SCS Total Energy          =    -553.9518717168394915 [Eh]
	-----------------------------------------------------------

  Dipole Moment: [D]
     X:    -0.1963      Y:    -0.0731      Z:     0.3134     Total:     0.3770

*** Psi4 exiting successfully. Buy a developer a beer!
