                               Psi4 1.3.2 release

  ==> Input File <==

--------------------------------------------------------------------------
#psi4
#
memory 32 gb

molecule  {
0 1
  O        2.4822540     0.5405090    -0.0540980
  O        1.5746620    -1.5220150     0.0896580
  N       -1.1191790    -1.6921850    -0.1509940
  C       -1.0966210    -0.3229200    -0.0500550
  C        0.1267050     0.4076130    -0.0279230
  C       -2.3003260     0.4165330    -0.0467730
  C        0.1050810     1.8109880     0.0359760
  C       -2.2954060     1.8037730     0.0119910
  C       -1.0915490     2.5140600     0.0407670
  C        1.4461700    -0.4996842     0.0231103
  C       -2.3257850    -2.4585570     0.0736050
  C        3.7618060    -0.1198990    -0.0066490
  H       -3.2501560    -0.1077310    -0.0690300
  H        1.0507040     2.3420820     0.0640380
  H       -0.2300450    -2.1418000     0.0381510
  H       -3.2442430     2.3364260     0.0191250
  H       -1.0894800     3.5992760     0.0899090
  H       -2.7979590    -2.2384410     1.0412790
  H       -2.0612830    -3.5169920     0.0485590
  H       -3.0612710    -2.2783540    -0.7172980
  H        3.8686140    -0.8046650    -0.8491430
  H        3.8704280    -0.6765840     0.9253170
  H        4.4925120     0.6845290    -0.0653970
units angstrom
no_reorient  #important for SAPT in psi4, default
symmetry c1  #important for SAPT in psi4, default
}

set PROPERTIES_ORIGIN ["COM"]
properties('MP2/aug-cc-pvtz', properties = ['dipole'])
--------------------------------------------------------------------------

    Molecular point group: c1
  Charge       = 0
  Multiplicity = 1
  Basis Set: AUG-CC-PVTZ
    Blend: AUG-CC-PVTZ
  Basis Set: (AUG-CC-PVTZ AUX)
    Blend: AUG-CC-PVTZ-JKFIT

    Orbital Energies [Eh]
    ---------------------

    Doubly Occupied:

       1A    -20.587964     2A    -20.573120     3A    -15.565212
       4A    -11.376887     5A    -11.287626     6A    -11.272479
       7A    -11.260374     8A    -11.242216     9A    -11.241604
      10A    -11.239988    11A    -11.221960    12A    -11.218197
      13A     -1.571693    14A     -1.361755    15A     -1.247116
      16A     -1.132694    17A     -1.024766    18A     -1.004374
      19A     -0.943689    20A     -0.919423    21A     -0.850399
      22A     -0.804994    23A     -0.785529    24A     -0.743678
      25A     -0.724010    26A     -0.698958    27A     -0.692881
      28A     -0.656985    29A     -0.624760    30A     -0.614058
      31A     -0.609514    32A     -0.603601    33A     -0.584356
      34A     -0.578299    35A     -0.543455    36A     -0.535341
      37A     -0.522640    38A     -0.510837    39A     -0.499585
      40A     -0.463021    41A     -0.427426    42A     -0.423962
      43A     -0.340281    44A     -0.287405

  @DF-RHF Final Energy:  -551.52496756632945

   => Energetics <=

    Nuclear Repulsion Energy =            688.7399766813398401
    One-Electron Energy =               -2117.6916630247073954
    Two-Electron Energy =                 877.4267187770381042
    Total Energy =                       -551.5249675663294511
  Basis Set: (AUG-CC-PVTZ AUX)
    Blend: AUG-CC-PVTZ-RI
    Molecular point group: c1

    Geometry (in Angstrom), charge = 0, multiplicity = 1:

       Center              X                  Y                   Z               Mass
    ------------   -----------------  -----------------  -----------------  -----------------
         O            2.465852085469     0.538062877406    -0.051872475813    15.994914619570
         O            1.558260085469    -1.524461122594     0.091883524187    15.994914619570
         N           -1.135580914531    -1.694631122594    -0.148768475813    14.003074004430
         C           -1.113022914531    -0.325366122594    -0.047829475813    12.000000000000
         C            0.110303085469     0.405166877406    -0.025697475813    12.000000000000
         C           -2.316727914531     0.414086877406    -0.044547475813    12.000000000000
         C            0.088679085469     1.808541877406     0.038201524187    12.000000000000
         C           -2.311807914531     1.801326877406     0.014216524187    12.000000000000
         C           -1.107950914531     2.511613877406     0.042992524187    12.000000000000
         C            1.429768085469    -0.502130322594     0.025335824187    12.000000000000
         C           -2.342186914531    -2.461003122594     0.075830524187    12.000000000000
         C            3.745404085469    -0.122345122594    -0.004423475813    12.000000000000
         H           -3.266557914531    -0.110177122594    -0.066804475813     1.007825032230
         H            1.034302085469     2.339635877406     0.066263524187     1.007825032230
         H           -0.246446914531    -2.144246122594     0.040376524187     1.007825032230
         H           -3.260644914531     2.333979877406     0.021350524187     1.007825032230
         H           -1.105881914531     3.596829877406     0.092134524187     1.007825032230
         H           -2.814360914531    -2.240887122594     1.043504524187     1.007825032230
         H           -2.077684914531    -3.519438122594     0.050784524187     1.007825032230
         H           -3.077672914531    -2.280800122594    -0.715072475813     1.007825032230
         H            3.852212085469    -0.807111122594    -0.846917475813     1.007825032230
         H            3.854026085469    -0.679030122594     0.927542524187     1.007825032230
         H            4.476110085469     0.682082877406    -0.063171475813     1.007825032230

  Basis Set: AUG-CC-PVTZ
    Blend: AUG-CC-PVTZ
  Basis Set: (AUG-CC-PVTZ AUX)
    Blend: AUG-CC-PVTZ-JKFIT
	 Reference Energy          =    -551.5249675663294511 [Eh]
	 Singles Energy            =      -0.0000000000000000 [Eh]
	 Same-Spin Energy          =      -0.5761131340226519 [Eh]
	 Opposite-Spin Energy      =      -1.7951372447259399 [Eh]
	 Correlation Energy        =      -2.3712503787485919 [Eh]
	 Total Energy              =    -553.8962179450780923 [Eh]

	 ================> DF-SCS-MP2 Energies <==================
	-----------------------------------------------------------
	 SCS Same-Spin Scale       =       0.3333333333333333 [-]
	 SCS Opposite-Spin Scale   =       1.2000000000000000 [-]
	 SCS Same-Spin Energy      =      -0.1920377113408839 [Eh]
	 SCS Opposite-Spin Energy  =      -2.1541646936711278 [Eh]
	 SCS Correlation Energy    =      -2.3462024050120118 [Eh]
	 SCS Total Energy          =    -553.8711699713414873 [Eh]
	-----------------------------------------------------------

  Dipole Moment: [D]
     X:    -0.0954      Y:    -1.4197      Z:     0.4338     Total:     1.4876

*** Psi4 exiting successfully. Buy a developer a beer!
