                               Psi4 1.3.2 release

  ==> Input File <==

--------------------------------------------------------------------------
#psi4
#
memory 32 gb

molecule  {
0 1
  O        2.4822540     0.5405090    -0.0540980
  O        1.5746620    -1.5220150     0.0896580
  N       -1.1191790    -1.6921850    -0.1509940
  C       -1.0933355    -0.1234881    -0.0353534
  C        0.1267050     0.4076130    -0.0279230
  C       -2.3003260     0.4165330    -0.0467730
  C        0.1050810     1.8109880     0.0359760
  C       -2.2954060     1.8037730     0.0119910
  C       -1.0915490     2.5140600     0.0407670
  C        1.4212810    -0.3016580     0.0102200
  C       -2.3257850    -2.4585570     0.0736050
  C        3.7618060    -0.1198990    -0.0066490
  H       -3.2501560    -0.1077310    -0.0690300
  H        1.0507040     2.3420820     0.0640380
  H       -0.2300450    -2.1418000     0.0381510
  H       -3.2442430     2.3364260     0.0191250
  H       -1.0894800     3.5992760     0.0899090
  H       -2.7979590    -2.2384410     1.0412790
  H       -2.0612830    -3.5169920     0.0485590
  H       -3.0612710    -2.2783540    -0.7172980
  H        3.8686140    -0.8046650    -0.8491430
  H        3.8704280    -0.6765840     0.9253170
  H        4.4925120     0.6845290    -0.0653970
units angstrom
no_reorient  #important for SAPT in psi4, default
symmetry c1  #important for SAPT in psi4, default
}

set PROPERTIES_ORIGIN ["COM"]
properties('MP2/aug-cc-pvtz', properties = ['dipole'])
--------------------------------------------------------------------------

    Molecular point group: c1
  Charge       = 0
  Multiplicity = 1
  Basis Set: AUG-CC-PVTZ
    Blend: AUG-CC-PVTZ
  Basis Set: (AUG-CC-PVTZ AUX)
    Blend: AUG-CC-PVTZ-JKFIT

    Orbital Energies [Eh]
    ---------------------

    Doubly Occupied:

       1A    -20.610179     2A    -20.547380     3A    -15.534357
       4A    -11.395639     5A    -11.288808     6A    -11.286027
       7A    -11.257264     8A    -11.255652     9A    -11.243638
      10A    -11.240920    11A    -11.234525    12A    -11.229106
      13A     -1.460322    14A     -1.354385    15A     -1.209094
      16A     -1.141985    17A     -1.063065    18A     -1.020936
      19A     -0.975455    20A     -0.893730    21A     -0.873532
      22A     -0.820456    23A     -0.790032    24A     -0.737812
      25A     -0.684329    26A     -0.683721    27A     -0.674235
      28A     -0.657511    29A     -0.629906    30A     -0.610149
      31A     -0.592234    32A     -0.587584    33A     -0.574017
      34A     -0.559670    35A     -0.540899    36A     -0.536240
      37A     -0.522347    38A     -0.519277    39A     -0.485639
      40A     -0.468722    41A     -0.446128    42A     -0.397726
      43A     -0.357757    44A     -0.308787

  @DF-RHF Final Energy:  -551.55622317436303

   => Energetics <=

    Nuclear Repulsion Energy =            688.6614565154701495
    One-Electron Energy =               -2117.8330057409589244
    Two-Electron Energy =                 877.6153260511258623
    Total Energy =                       -551.5562231743630264
  Basis Set: (AUG-CC-PVTZ AUX)
    Blend: AUG-CC-PVTZ-RI
    Molecular point group: c1

    Geometry (in Angstrom), charge = 0, multiplicity = 1:

       Center              X                  Y                   Z               Mass
    ------------   -----------------  -----------------  -----------------  -----------------
         O            2.467422497415     0.509170663264    -0.052004143698    15.994914619570
         O            1.559830497415    -1.553353336736     0.091751856302    15.994914619570
         N           -1.134010502585    -1.723523336736    -0.148900143698    14.003074004430
         C           -1.108167002585    -0.154826436736    -0.033259543698    12.000000000000
         C            0.111873497415     0.376274663264    -0.025829143698    12.000000000000
         C           -2.315157502585     0.385194663264    -0.044679143698    12.000000000000
         C            0.090249497415     1.779649663264     0.038069856302    12.000000000000
         C           -2.310237502585     1.772434663264     0.014084856302    12.000000000000
         C           -1.106380502585     2.482721663264     0.042860856302    12.000000000000
         C            1.406449497415    -0.332996336736     0.012313856302    12.000000000000
         C           -2.340616502585    -2.489895336736     0.075698856302    12.000000000000
         C            3.746974497415    -0.151237336736    -0.004555143698    12.000000000000
         H           -3.264987502585    -0.139069336736    -0.066936143698     1.007825032230
         H            1.035872497415     2.310743663264     0.066131856302     1.007825032230
         H           -0.244876502585    -2.173138336736     0.040244856302     1.007825032230
         H           -3.259074502585     2.305087663264     0.021218856302     1.007825032230
         H           -1.104311502585     3.567937663264     0.092002856302     1.007825032230
         H           -2.812790502585    -2.269779336736     1.043372856302     1.007825032230
         H           -2.076114502585    -3.548330336736     0.050652856302     1.007825032230
         H           -3.076102502585    -2.309692336736    -0.715204143698     1.007825032230
         H            3.853782497415    -0.836003336736    -0.847049143698     1.007825032230
         H            3.855596497415    -0.707922336736     0.927410856302     1.007825032230
         H            4.477680497415     0.653190663264    -0.063303143698     1.007825032230

  Basis Set: AUG-CC-PVTZ
    Blend: AUG-CC-PVTZ
  Basis Set: (AUG-CC-PVTZ AUX)
    Blend: AUG-CC-PVTZ-JKFIT
	 Reference Energy          =    -551.5562231743630264 [Eh]
	 Singles Energy            =      -0.0000000000000000 [Eh]
	 Same-Spin Energy          =      -0.5795587857494929 [Eh]
	 Opposite-Spin Energy      =      -1.8023210991445933 [Eh]
	 Correlation Energy        =      -2.3818798848940861 [Eh]
	 Total Energy              =    -553.9381030592570596 [Eh]

	 ================> DF-SCS-MP2 Energies <==================
	-----------------------------------------------------------
	 SCS Same-Spin Scale       =       0.3333333333333333 [-]
	 SCS Opposite-Spin Scale   =       1.2000000000000000 [-]
	 SCS Same-Spin Energy      =      -0.1931862619164976 [Eh]
	 SCS Opposite-Spin Energy  =      -2.1627853189735120 [Eh]
	 SCS Correlation Energy    =      -2.3559715808900097 [Eh]
	 SCS Total Energy          =    -553.9121947552530401 [Eh]
	-----------------------------------------------------------

  Dipole Moment: [D]
     X:     0.2530      Y:     1.2337      Z:     0.4180     Total:     1.3269

*** Psi4 exiting successfully. Buy a developer a beer!
