                               Psi4 1.3.2 release

  ==> Input File <==

--------------------------------------------------------------------------
#psi4
#
memory 32 gb

molecule  {
0 1
  O        2.5647211     0.4251843    -0.0471443
  O        1.5746620    -1.5220150     0.0896580
  N       -1.1191790    -1.6921850    -0.1509940
  C       -1.0966210    -0.3229200    -0.0500550
  C        0.1267050     0.4076130    -0.0279230
  C       -2.3003260     0.4165330    -0.0467730
  C        0.1050810     1.8109880     0.0359760
  C       -2.2954060     1.8037730     0.0119910
  C       -1.0915490     2.5140600     0.0407670
  C        1.4212810    -0.3016580     0.0102200
  C       -2.3257850    -2.4585570     0.0736050
  C        3.7618060    -0.1198990    -0.0066490
  H       -3.2501560    -0.1077310    -0.0690300
  H        1.0507040     2.3420820     0.0640380
  H       -0.2300450    -2.1418000     0.0381510
  H       -3.2442430     2.3364260     0.0191250
  H       -1.0894800     3.5992760     0.0899090
  H       -2.7979590    -2.2384410     1.0412790
  H       -2.0612830    -3.5169920     0.0485590
  H       -3.0612710    -2.2783540    -0.7172980
  H        3.8686140    -0.8046650    -0.8491430
  H        3.8704280    -0.6765840     0.9253170
  H        4.4925120     0.6845290    -0.0653970
units angstrom
no_reorient  #important for SAPT in psi4, default
symmetry c1  #important for SAPT in psi4, default
}

set PROPERTIES_ORIGIN ["COM"]
properties('MP2/aug-cc-pvtz', properties = ['dipole'])
--------------------------------------------------------------------------

    Molecular point group: c1
  Charge       = 0
  Multiplicity = 1
  Basis Set: AUG-CC-PVTZ
    Blend: AUG-CC-PVTZ
  Basis Set: (AUG-CC-PVTZ AUX)
    Blend: AUG-CC-PVTZ-JKFIT

    Orbital Energies [Eh]
    ---------------------

    Doubly Occupied:

       1A    -20.592846     2A    -20.538629     3A    -15.566084
       4A    -11.389931     5A    -11.303816     6A    -11.269756
       7A    -11.260439     8A    -11.255968     9A    -11.255659
      10A    -11.247979    11A    -11.231649    12A    -11.227485
      13A     -1.477710    14A     -1.356378    15A     -1.248811
      16A     -1.147027    17A     -1.053251    18A     -1.013699
      19A     -0.980239    20A     -0.925897    21A     -0.866765
      22A     -0.813000    23A     -0.785508    24A     -0.738712
      25A     -0.703589    26A     -0.686843    27A     -0.681100
      28A     -0.665946    29A     -0.639435    30A     -0.620728
      31A     -0.614898    32A     -0.593761    33A     -0.585936
      34A     -0.553772    35A     -0.545029    36A     -0.535398
      37A     -0.509184    38A     -0.506471    39A     -0.498966
      40A     -0.449471    41A     -0.444539    42A     -0.430098
      43A     -0.354150    44A     -0.295290

  @DF-RHF Final Energy:  -551.59095307532959

   => Energetics <=

    Nuclear Repulsion Energy =            689.0220712459851029
    One-Electron Energy =               -2118.3023662151426834
    Two-Electron Energy =                 877.6893418938281002
    Total Energy =                       -551.5909530753295940
  Basis Set: (AUG-CC-PVTZ AUX)
    Blend: AUG-CC-PVTZ-RI
    Molecular point group: c1

    Geometry (in Angstrom), charge = 0, multiplicity = 1:

       Center              X                  Y                   Z               Mass
    ------------   -----------------  -----------------  -----------------  -----------------
         O            2.542137985221     0.419517260518    -0.044655509329    15.994914619570
         O            1.552078885221    -1.527682039482     0.092146790671    15.994914619570
         N           -1.141762114779    -1.697852039482    -0.148505209329    14.003074004430
         C           -1.119204114779    -0.328587039482    -0.047566209329    12.000000000000
         C            0.104121885221     0.401945960518    -0.025434209329    12.000000000000
         C           -2.322909114779     0.410865960518    -0.044284209329    12.000000000000
         C            0.082497885221     1.805320960518     0.038464790671    12.000000000000
         C           -2.317989114779     1.798105960518     0.014479790671    12.000000000000
         C           -1.114132114779     2.508392960518     0.043255790671    12.000000000000
         C            1.398697885221    -0.307325039482     0.012708790671    12.000000000000
         C           -2.348368114779    -2.464224039482     0.076093790671    12.000000000000
         C            3.739222885221    -0.125566039482    -0.004160209329    12.000000000000
         H           -3.272739114779    -0.113398039482    -0.066541209329     1.007825032230
         H            1.028120885221     2.336414960518     0.066526790671     1.007825032230
         H           -0.252628114779    -2.147467039482     0.040639790671     1.007825032230
         H           -3.266826114779     2.330758960518     0.021613790671     1.007825032230
         H           -1.112063114779     3.593608960518     0.092397790671     1.007825032230
         H           -2.820542114779    -2.244108039482     1.043767790671     1.007825032230
         H           -2.083866114779    -3.522659039482     0.051047790671     1.007825032230
         H           -3.083854114779    -2.284021039482    -0.714809209329     1.007825032230
         H            3.846030885221    -0.810332039482    -0.846654209329     1.007825032230
         H            3.847844885221    -0.682251039482     0.927805790671     1.007825032230
         H            4.469928885221     0.678861960518    -0.062908209329     1.007825032230

  Basis Set: AUG-CC-PVTZ
    Blend: AUG-CC-PVTZ
  Basis Set: (AUG-CC-PVTZ AUX)
    Blend: AUG-CC-PVTZ-JKFIT
	 Reference Energy          =    -551.5909530753295940 [Eh]
	 Singles Energy            =      -0.0000000000000000 [Eh]
	 Same-Spin Energy          =      -0.5781936805965795 [Eh]
	 Opposite-Spin Energy      =      -1.7967128743893501 [Eh]
	 Correlation Energy        =      -2.3749065549859294 [Eh]
	 Total Energy              =    -553.9658596303155491 [Eh]

	 ================> DF-SCS-MP2 Energies <==================
	-----------------------------------------------------------
	 SCS Same-Spin Scale       =       0.3333333333333333 [-]
	 SCS Opposite-Spin Scale   =       1.2000000000000000 [-]
	 SCS Same-Spin Energy      =      -0.1927312268655265 [Eh]
	 SCS Opposite-Spin Energy  =      -2.1560554492672201 [Eh]
	 SCS Correlation Energy    =      -2.3487866761327467 [Eh]
	 SCS Total Energy          =    -553.9397397514622980 [Eh]
	-----------------------------------------------------------

  Dipole Moment: [D]
     X:    -0.8163      Y:     0.1922      Z:     0.3116     Total:     0.8946

*** Psi4 exiting successfully. Buy a developer a beer!
