                               Psi4 1.3.2 release

  ==> Input File <==

--------------------------------------------------------------------------
#psi4
#
memory 32 gb

molecule  {
0 1
  O        2.4822540     0.5405090    -0.0540980
  O        1.5746620    -1.5220150     0.0896580
  N       -1.1859222    -1.6386991    -0.2759871
  C       -1.0966210    -0.3229200    -0.0500550
  C        0.1267050     0.4076130    -0.0279230
  C       -2.3003260     0.4165330    -0.0467730
  C        0.1050810     1.8109880     0.0359760
  C       -2.2954060     1.8037730     0.0119910
  C       -1.0915490     2.5140600     0.0407670
  C        1.4212810    -0.3016580     0.0102200
  C       -2.3257850    -2.4585570     0.0736050
  C        3.7618060    -0.1198990    -0.0066490
  H       -3.2501560    -0.1077310    -0.0690300
  H        1.0507040     2.3420820     0.0640380
  H       -0.2300450    -2.1418000     0.0381510
  H       -3.2442430     2.3364260     0.0191250
  H       -1.0894800     3.5992760     0.0899090
  H       -2.7979590    -2.2384410     1.0412790
  H       -2.0612830    -3.5169920     0.0485590
  H       -3.0612710    -2.2783540    -0.7172980
  H        3.8686140    -0.8046650    -0.8491430
  H        3.8704280    -0.6765840     0.9253170
  H        4.4925120     0.6845290    -0.0653970
units angstrom
no_reorient  #important for SAPT in psi4, default
symmetry c1  #important for SAPT in psi4, default
}

set PROPERTIES_ORIGIN ["COM"]
properties('MP2/aug-cc-pvtz', properties = ['dipole'])
--------------------------------------------------------------------------

    Molecular point group: c1
  Charge       = 0
  Multiplicity = 1
  Basis Set: AUG-CC-PVTZ
    Blend: AUG-CC-PVTZ
  Basis Set: (AUG-CC-PVTZ AUX)
    Blend: AUG-CC-PVTZ-JKFIT

    Orbital Energies [Eh]
    ---------------------

    Doubly Occupied:

       1A    -20.603289     2A    -20.543021     3A    -15.570854
       4A    -11.386424     5A    -11.295108     6A    -11.284652
       7A    -11.259132     8A    -11.250249     9A    -11.249743
      10A    -11.239754    11A    -11.224867    12A    -11.222490
      13A     -1.454691    14A     -1.350741    15A     -1.252634
      16A     -1.140276    17A     -1.045756    18A     -1.009482
      19A     -0.968863    20A     -0.922214    21A     -0.863269
      22A     -0.803525    23A     -0.783375    24A     -0.726726
      25A     -0.692631    26A     -0.673219    27A     -0.669135
      28A     -0.662368    29A     -0.631738    30A     -0.615120
      31A     -0.614439    32A     -0.578647    33A     -0.575916
      34A     -0.555399    35A     -0.536491    36A     -0.535168
      37A     -0.522275    38A     -0.507226    39A     -0.499786
      40A     -0.466017    41A     -0.439897    42A     -0.431982
      43A     -0.349075    44A     -0.290979

  @DF-RHF Final Energy:  -551.58338068104104

   => Energetics <=

    Nuclear Repulsion Energy =            688.0571974809710127
    One-Electron Energy =               -2116.6838673075162660
    Two-Electron Energy =                 877.0432891455043318
    Total Energy =                       -551.5833806810410351
  Basis Set: (AUG-CC-PVTZ AUX)
    Blend: AUG-CC-PVTZ-RI
    Molecular point group: c1

    Geometry (in Angstrom), charge = 0, multiplicity = 1:

       Center              X                  Y                   Z               Mass
    ------------   -----------------  -----------------  -----------------  -----------------
         O            2.473322921425     0.519130839890    -0.040332719234    15.994914619570
         O            1.565730921425    -1.543393160110     0.103423280766    15.994914619570
         N           -1.194853278575    -1.660077260110    -0.262221819234    14.003074004430
         C           -1.105552078575    -0.344298160110    -0.036289719234    12.000000000000
         C            0.117773921425     0.386234839890    -0.014157719234    12.000000000000
         C           -2.309257078575     0.395154839890    -0.033007719234    12.000000000000
         C            0.096149921425     1.789609839890     0.049741280766    12.000000000000
         C           -2.304337078575     1.782394839890     0.025756280766    12.000000000000
         C           -1.100480078575     2.492681839890     0.054532280766    12.000000000000
         C            1.412349921425    -0.323036160110     0.023985280766    12.000000000000
         C           -2.334716078575    -2.479935160110     0.087370280766    12.000000000000
         C            3.752874921425    -0.141277160110     0.007116280766    12.000000000000
         H           -3.259087078575    -0.129109160110    -0.055264719234     1.007825032230
         H            1.041772921425     2.320703839890     0.077803280766     1.007825032230
         H           -0.238976078575    -2.163178160110     0.051916280766     1.007825032230
         H           -3.253174078575     2.315047839890     0.032890280766     1.007825032230
         H           -1.098411078575     3.577897839890     0.103674280766     1.007825032230
         H           -2.806890078575    -2.259819160110     1.055044280766     1.007825032230
         H           -2.070214078575    -3.538370160110     0.062324280766     1.007825032230
         H           -3.070202078575    -2.299732160110    -0.703532719234     1.007825032230
         H            3.859682921425    -0.826043160110    -0.835377719234     1.007825032230
         H            3.861496921425    -0.697962160110     0.939082280766     1.007825032230
         H            4.483580921425     0.663150839890    -0.051631719234     1.007825032230

  Basis Set: AUG-CC-PVTZ
    Blend: AUG-CC-PVTZ
  Basis Set: (AUG-CC-PVTZ AUX)
    Blend: AUG-CC-PVTZ-JKFIT
	 Reference Energy          =    -551.5833806810410351 [Eh]
	 Singles Energy            =      -0.0000000000000000 [Eh]
	 Same-Spin Energy          =      -0.5801721310608311 [Eh]
	 Opposite-Spin Energy      =      -1.8023112368640759 [Eh]
	 Correlation Energy        =      -2.3824833679249071 [Eh]
	 Total Energy              =    -553.9658640489659547 [Eh]

	 ================> DF-SCS-MP2 Energies <==================
	-----------------------------------------------------------
	 SCS Same-Spin Scale       =       0.3333333333333333 [-]
	 SCS Opposite-Spin Scale   =       1.2000000000000000 [-]
	 SCS Same-Spin Energy      =      -0.1933907103536104 [Eh]
	 SCS Opposite-Spin Energy  =      -2.1627734842368911 [Eh]
	 SCS Correlation Energy    =      -2.3561641945905016 [Eh]
	 SCS Total Energy          =    -553.9395448756315545 [Eh]
	-----------------------------------------------------------

  Dipole Moment: [D]
     X:    -0.0929      Y:    -0.1585      Z:     0.5033     Total:     0.5358

*** Psi4 exiting successfully. Buy a developer a beer!
