                               Psi4 1.3.2 release

  ==> Input File <==

--------------------------------------------------------------------------
#psi4
#
memory 32 gb

molecule  {
0 1
  O        2.4822540     0.5405090    -0.0540980
  O        1.5746620    -1.5220150     0.0896580
  N       -1.1431292    -1.6916300    -0.1503256
  C       -1.0966210    -0.3229200    -0.0500550
  C        0.1267050     0.4076130    -0.0279230
  C       -2.3003260     0.4165330    -0.0467730
  C        0.1050810     1.8109880     0.0359760
  C       -2.2954060     1.8037730     0.0119910
  C       -1.0915490     2.5140600     0.0407670
  C        1.4212810    -0.3016580     0.0102200
  C       -2.3257850    -2.4585570     0.0736050
  C        3.7618060    -0.1198990    -0.0066490
  H       -3.2501560    -0.1077310    -0.0690300
  H        1.0507040     2.3420820     0.0640380
  H       -0.2300450    -2.1418000     0.0381510
  H       -3.2442430     2.3364260     0.0191250
  H       -1.0894800     3.5992760     0.0899090
  H       -2.7979590    -2.2384410     1.0412790
  H       -2.0612830    -3.5169920     0.0485590
  H       -3.0612710    -2.2783540    -0.7172980
  H        3.8686140    -0.8046650    -0.8491430
  H        3.8704280    -0.6765840     0.9253170
  H        4.4925120     0.6845290    -0.0653970
units angstrom
no_reorient  #important for SAPT in psi4, default
symmetry c1  #important for SAPT in psi4, default
}

set PROPERTIES_ORIGIN ["COM"]
properties('MP2/aug-cc-pvtz', properties = ['dipole'])
--------------------------------------------------------------------------

    Molecular point group: c1
  Charge       = 0
  Multiplicity = 1
  Basis Set: AUG-CC-PVTZ
    Blend: AUG-CC-PVTZ
  Basis Set: (AUG-CC-PVTZ AUX)
    Blend: AUG-CC-PVTZ-JKFIT

    Orbital Energies [Eh]
    ---------------------

    Doubly Occupied:

       1A    -20.603125     2A    -20.542457     3A    -15.563750
       4A    -11.386113     5A    -11.298604     6A    -11.284570
       7A    -11.256855     8A    -11.251592     9A    -11.250276
      10A    -11.240405    11A    -11.227144    12A    -11.223481
      13A     -1.454475    14A     -1.350445    15A     -1.247400
      16A     -1.142790    17A     -1.046320    18A     -1.011035
      19A     -0.968764    20A     -0.922059    21A     -0.864451
      22A     -0.807685    23A     -0.784422    24A     -0.728645
      25A     -0.698292    26A     -0.673451    27A     -0.668981
      28A     -0.662777    29A     -0.630179    30A     -0.616548
      31A     -0.613867    32A     -0.585424    33A     -0.576726
      34A     -0.556181    35A     -0.540304    36A     -0.535000
      37A     -0.524185    38A     -0.506541    39A     -0.501964
      40A     -0.465711    41A     -0.444301    42A     -0.426242
      43A     -0.349579    44A     -0.291095

  @DF-RHF Final Energy:  -551.60038448716159

   => Energetics <=

    Nuclear Repulsion Energy =            687.9724834074379487
    One-Electron Energy =               -2116.4973165397368575
    Two-Electron Energy =                 876.9244486451373177
    Total Energy =                       -551.6003844871615911
  Basis Set: (AUG-CC-PVTZ AUX)
    Blend: AUG-CC-PVTZ-RI
    Molecular point group: c1

    Geometry (in Angstrom), charge = 0, multiplicity = 1:

       Center              X                  Y                   Z               Mass
    ------------   -----------------  -----------------  -----------------  -----------------
         O            2.469692940485     0.523620783529    -0.050992146006    15.994914619570
         O            1.562100940485    -1.538903216471     0.092763853994    15.994914619570
         N           -1.155690259515    -1.708518216471    -0.147219746006    14.003074004430
         C           -1.109182059515    -0.339808216471    -0.046949146006    12.000000000000
         C            0.114143940485     0.390724783529    -0.024817146006    12.000000000000
         C           -2.312887059515     0.399644783529    -0.043667146006    12.000000000000
         C            0.092519940485     1.794099783529     0.039081853994    12.000000000000
         C           -2.307967059515     1.786884783529     0.015096853994    12.000000000000
         C           -1.104110059515     2.497171783529     0.043872853994    12.000000000000
         C            1.408719940485    -0.318546216471     0.013325853994    12.000000000000
         C           -2.338346059515    -2.475445216471     0.076710853994    12.000000000000
         C            3.749244940485    -0.136787216471    -0.003543146006    12.000000000000
         H           -3.262717059515    -0.124619216471    -0.065924146006     1.007825032230
         H            1.038142940485     2.325193783529     0.067143853994     1.007825032230
         H           -0.242606059515    -2.158688216471     0.041256853994     1.007825032230
         H           -3.256804059515     2.319537783529     0.022230853994     1.007825032230
         H           -1.102041059515     3.582387783529     0.093014853994     1.007825032230
         H           -2.810520059515    -2.255329216471     1.044384853994     1.007825032230
         H           -2.073844059515    -3.533880216471     0.051664853994     1.007825032230
         H           -3.073832059515    -2.295242216471    -0.714192146006     1.007825032230
         H            3.856052940485    -0.821553216471    -0.846037146006     1.007825032230
         H            3.857866940485    -0.693472216471     0.928422853994     1.007825032230
         H            4.479950940485     0.667640783529    -0.062291146006     1.007825032230

  Basis Set: AUG-CC-PVTZ
    Blend: AUG-CC-PVTZ
  Basis Set: (AUG-CC-PVTZ AUX)
    Blend: AUG-CC-PVTZ-JKFIT
	 Reference Energy          =    -551.6003844871615911 [Eh]
	 Singles Energy            =      -0.0000000000000000 [Eh]
	 Same-Spin Energy          =      -0.5791734193236171 [Eh]
	 Opposite-Spin Energy      =      -1.8001173152540431 [Eh]
	 Correlation Energy        =      -2.3792907345776602 [Eh]
	 Total Energy              =    -553.9796752217392850 [Eh]

	 ================> DF-SCS-MP2 Energies <==================
	-----------------------------------------------------------
	 SCS Same-Spin Scale       =       0.3333333333333333 [-]
	 SCS Opposite-Spin Scale   =       1.2000000000000000 [-]
	 SCS Same-Spin Energy      =      -0.1930578064412057 [Eh]
	 SCS Opposite-Spin Energy  =      -2.1601407783048514 [Eh]
	 SCS Correlation Energy    =      -2.3531985847460573 [Eh]
	 SCS Total Energy          =    -553.9535830719077012 [Eh]
	-----------------------------------------------------------

  Dipole Moment: [D]
     X:    -0.1167      Y:    -0.0889      Z:     0.3187     Total:     0.3508

*** Psi4 exiting successfully. Buy a developer a beer!
