                               Psi4 1.3.2 release

  ==> Input File <==

--------------------------------------------------------------------------
#psi4
#
memory 32 gb

molecule  {
0 1
  O        2.4673528     0.5588634    -0.0552213
  O        1.5746620    -1.5220150     0.0896580
  N       -1.1191790    -1.6921850    -0.1509940
  C       -1.0966210    -0.3229200    -0.0500550
  C        0.1267050     0.4076130    -0.0279230
  C       -2.3003260     0.4165330    -0.0467730
  C        0.1050810     1.8109880     0.0359760
  C       -2.2954060     1.8037730     0.0119910
  C       -1.0915490     2.5140600     0.0407670
  C        1.4212810    -0.3016580     0.0102200
  C       -2.3257850    -2.4585570     0.0736050
  C        3.7618060    -0.1198990    -0.0066490
  H       -3.2501560    -0.1077310    -0.0690300
  H        1.0507040     2.3420820     0.0640380
  H       -0.2300450    -2.1418000     0.0381510
  H       -3.2442430     2.3364260     0.0191250
  H       -1.0894800     3.5992760     0.0899090
  H       -2.7979590    -2.2384410     1.0412790
  H       -2.0612830    -3.5169920     0.0485590
  H       -3.0612710    -2.2783540    -0.7172980
  H        3.8686140    -0.8046650    -0.8491430
  H        3.8704280    -0.6765840     0.9253170
  H        4.4925120     0.6845290    -0.0653970
units angstrom
no_reorient  #important for SAPT in psi4, default
symmetry c1  #important for SAPT in psi4, default
}

set PROPERTIES_ORIGIN ["COM"]
properties('MP2/aug-cc-pvtz', properties = ['dipole'])
--------------------------------------------------------------------------

    Molecular point group: c1
  Charge       = 0
  Multiplicity = 1
  Basis Set: AUG-CC-PVTZ
    Blend: AUG-CC-PVTZ
  Basis Set: (AUG-CC-PVTZ AUX)
    Blend: AUG-CC-PVTZ-JKFIT

    Orbital Energies [Eh]
    ---------------------

    Doubly Occupied:

       1A    -20.604040     2A    -20.542354     3A    -15.562646
       4A    -11.385160     5A    -11.297453     6A    -11.286935
       7A    -11.258039     8A    -11.251061     9A    -11.249039
      10A    -11.238398    11A    -11.226891    12A    -11.222736
      13A     -1.450999    14A     -1.349199    15A     -1.245062
      16A     -1.141257    17A     -1.044910    18A     -1.008962
      19A     -0.966957    20A     -0.922787    21A     -0.864310
      22A     -0.808446    23A     -0.783776    24A     -0.727170
      25A     -0.699477    26A     -0.672508    27A     -0.666198
      28A     -0.660022    29A     -0.627973    30A     -0.615658
      31A     -0.611414    32A     -0.582672    33A     -0.573588
      34A     -0.556667    35A     -0.541657    36A     -0.536005
      37A     -0.526613    38A     -0.506627    39A     -0.500635
      40A     -0.467303    41A     -0.444354    42A     -0.427015
      43A     -0.348612    44A     -0.290881

  @DF-RHF Final Energy:  -551.60012897411366

   => Energetics <=

    Nuclear Repulsion Energy =            687.8602797906808064
    One-Electron Energy =               -2116.3318928706880797
    Two-Electron Energy =                 876.8714841058936145
    Total Energy =                       -551.6001289741136588
  Basis Set: (AUG-CC-PVTZ AUX)
    Blend: AUG-CC-PVTZ-RI
    Molecular point group: c1

    Geometry (in Angstrom), charge = 0, multiplicity = 1:

       Center              X                  Y                   Z               Mass
    ------------   -----------------  -----------------  -----------------  -----------------
         O            2.454203943043     0.540243858576    -0.051949908622    15.994914619570
         O            1.561513143043    -1.540634541424     0.092929391378    15.994914619570
         N           -1.132327856957    -1.710804541424    -0.147722608622    14.003074004430
         C           -1.109769856957    -0.341539541424    -0.046783608622    12.000000000000
         C            0.113556143043     0.388993458576    -0.024651608622    12.000000000000
         C           -2.313474856957     0.397913458576    -0.043501608622    12.000000000000
         C            0.091932143043     1.792368458576     0.039247391378    12.000000000000
         C           -2.308554856957     1.785153458576     0.015262391378    12.000000000000
         C           -1.104697856957     2.495440458576     0.044038391378    12.000000000000
         C            1.408132143043    -0.320277541424     0.013491391378    12.000000000000
         C           -2.338933856957    -2.477176541424     0.076876391378    12.000000000000
         C            3.748657143043    -0.138518541424    -0.003377608622    12.000000000000
         H           -3.263304856957    -0.126350541424    -0.065758608622     1.007825032230
         H            1.037555143043     2.323462458576     0.067309391378     1.007825032230
         H           -0.243193856957    -2.160419541424     0.041422391378     1.007825032230
         H           -3.257391856957     2.317806458576     0.022396391378     1.007825032230
         H           -1.102628856957     3.580656458576     0.093180391378     1.007825032230
         H           -2.811107856957    -2.257060541424     1.044550391378     1.007825032230
         H           -2.074431856957    -3.535611541424     0.051830391378     1.007825032230
         H           -3.074419856957    -2.296973541424    -0.714026608622     1.007825032230
         H            3.855465143043    -0.823284541424    -0.845871608622     1.007825032230
         H            3.857279143043    -0.695203541424     0.928588391378     1.007825032230
         H            4.479363143043     0.665909458576    -0.062125608622     1.007825032230

  Basis Set: AUG-CC-PVTZ
    Blend: AUG-CC-PVTZ
  Basis Set: (AUG-CC-PVTZ AUX)
    Blend: AUG-CC-PVTZ-JKFIT
	 Reference Energy          =    -551.6001289741136588 [Eh]
	 Singles Energy            =      -0.0000000000000000 [Eh]
	 Same-Spin Energy          =      -0.5791453428340236 [Eh]
	 Opposite-Spin Energy      =      -1.8005893836540601 [Eh]
	 Correlation Energy        =      -2.3797347264880839 [Eh]
	 Total Energy              =    -553.9798637006017543 [Eh]

	 ================> DF-SCS-MP2 Energies <==================
	-----------------------------------------------------------
	 SCS Same-Spin Scale       =       0.3333333333333333 [-]
	 SCS Opposite-Spin Scale   =       1.2000000000000000 [-]
	 SCS Same-Spin Energy      =      -0.1930484476113412 [Eh]
	 SCS Opposite-Spin Energy  =      -2.1607072603848718 [Eh]
	 SCS Correlation Energy    =      -2.3537557079962133 [Eh]
	 SCS Total Energy          =    -553.9538846821099014 [Eh]
	-----------------------------------------------------------

  Dipole Moment: [D]
     X:    -0.0715      Y:    -0.1365      Z:     0.3290     Total:     0.3633

*** Psi4 exiting successfully. Buy a developer a beer!
