                               Psi4 1.3.2 release

  ==> Input File <==

--------------------------------------------------------------------------
#psi4
#
memory 32 gb

molecule  {
0 1
  O        2.5081381     0.5890518     0.0300800
  O        1.5746620    -1.5220150     0.0896580
  N       -1.1191790    -1.6921850    -0.1509940
  C       -1.0966210    -0.3229200    -0.0500550
  C        0.1267050     0.4076130    -0.0279230
  C       -2.3003260     0.4165330    -0.0467730
  C        0.1050810     1.8109880     0.0359760
  C       -2.2954060     1.8037730     0.0119910
  C       -1.0915490     2.5140600     0.0407670
  C        1.4212810    -0.3016580     0.0102200
  C       -2.3257850    -2.4585570     0.0736050
  C        3.7618060    -0.1198990    -0.0066490
  H       -3.2501560    -0.1077310    -0.0690300
  H        1.0507040     2.3420820     0.0640380
  H       -0.2300450    -2.1418000     0.0381510
  H       -3.2442430     2.3364260     0.0191250
  H       -1.0894800     3.5992760     0.0899090
  H       -2.7979590    -2.2384410     1.0412790
  H       -2.0612830    -3.5169920     0.0485590
  H       -3.0612710    -2.2783540    -0.7172980
  H        3.8686140    -0.8046650    -0.8491430
  H        3.8704280    -0.6765840     0.9253170
  H        4.4925120     0.6845290    -0.0653970
units angstrom
no_reorient  #important for SAPT in psi4, default
symmetry c1  #important for SAPT in psi4, default
}

set PROPERTIES_ORIGIN ["COM"]
properties('MP2/aug-cc-pvtz', properties = ['dipole'])
--------------------------------------------------------------------------

    Molecular point group: c1
  Charge       = 0
  Multiplicity = 1
  Basis Set: AUG-CC-PVTZ
    Blend: AUG-CC-PVTZ
  Basis Set: (AUG-CC-PVTZ AUX)
    Blend: AUG-CC-PVTZ-JKFIT

    Orbital Energies [Eh]
    ---------------------

    Doubly Occupied:

       1A    -20.600634     2A    -20.549962     3A    -15.565209
       4A    -11.391280     5A    -11.300098     6A    -11.279832
       7A    -11.259689     8A    -11.253138     9A    -11.250893
      10A    -11.241568    11A    -11.228686    12A    -11.224241
      13A     -1.440110    14A     -1.351053    15A     -1.247414
      16A     -1.143267    17A     -1.045895    18A     -1.010857
      19A     -0.959768    20A     -0.923623    21A     -0.866041
      22A     -0.810060    23A     -0.783432    24A     -0.724563
      25A     -0.701862    26A     -0.671870    27A     -0.661206
      28A     -0.660243    29A     -0.628486    30A     -0.617885
      31A     -0.612943    32A     -0.584868    33A     -0.572560
      34A     -0.555100    35A     -0.543736    36A     -0.536030
      37A     -0.526711    38A     -0.506843    39A     -0.501726
      40A     -0.466134    41A     -0.445995    42A     -0.428915
      43A     -0.350569    44A     -0.292981

  @DF-RHF Final Energy:  -551.59490797926014

   => Energetics <=

    Nuclear Repulsion Energy =            686.6339515915692573
    One-Electron Energy =               -2113.8217670821454703
    Two-Electron Energy =                 875.5929075113160707
    Total Energy =                       -551.5949079792601424
  Basis Set: (AUG-CC-PVTZ AUX)
    Blend: AUG-CC-PVTZ-RI
    Molecular point group: c1

    Geometry (in Angstrom), charge = 0, multiplicity = 1:

       Center              X                  Y                   Z               Mass
    ------------   -----------------  -----------------  -----------------  -----------------
         O            2.491037453441     0.567507229086     0.025086335330    15.994914619570
         O            1.557561353441    -1.543559570914     0.084664335330    15.994914619570
         N           -1.136279646559    -1.713729570914    -0.155987664670    14.003074004430
         C           -1.113721646559    -0.344464570914    -0.055048664670    12.000000000000
         C            0.109604353441     0.386068429086    -0.032916664670    12.000000000000
         C           -2.317426646559     0.394988429086    -0.051766664670    12.000000000000
         C            0.087980353441     1.789443429086     0.030982335330    12.000000000000
         C           -2.312506646559     1.782228429086     0.006997335330    12.000000000000
         C           -1.108649646559     2.492515429086     0.035773335330    12.000000000000
         C            1.404180353441    -0.323202570914     0.005226335330    12.000000000000
         C           -2.342885646559    -2.480101570914     0.068611335330    12.000000000000
         C            3.744705353441    -0.141443570914    -0.011642664670    12.000000000000
         H           -3.267256646559    -0.129275570914    -0.074023664670     1.007825032230
         H            1.033603353441     2.320537429086     0.059044335330     1.007825032230
         H           -0.247145646559    -2.163344570914     0.033157335330     1.007825032230
         H           -3.261343646559     2.314881429086     0.014131335330     1.007825032230
         H           -1.106580646559     3.577731429086     0.084915335330     1.007825032230
         H           -2.815059646559    -2.259985570914     1.036285335330     1.007825032230
         H           -2.078383646559    -3.538536570914     0.043565335330     1.007825032230
         H           -3.078371646559    -2.299898570914    -0.722291664670     1.007825032230
         H            3.851513353441    -0.826209570914    -0.854136664670     1.007825032230
         H            3.853327353441    -0.698128570914     0.920323335330     1.007825032230
         H            4.475411353441     0.662984429086    -0.070390664670     1.007825032230

  Basis Set: AUG-CC-PVTZ
    Blend: AUG-CC-PVTZ
  Basis Set: (AUG-CC-PVTZ AUX)
    Blend: AUG-CC-PVTZ-JKFIT
	 Reference Energy          =    -551.5949079792601424 [Eh]
	 Singles Energy            =      -0.0000000000000000 [Eh]
	 Same-Spin Energy          =      -0.5797214054021389 [Eh]
	 Opposite-Spin Energy      =      -1.8021883431054300 [Eh]
	 Correlation Energy        =      -2.3819097485075691 [Eh]
	 Total Energy              =    -553.9768177277677523 [Eh]

	 ================> DF-SCS-MP2 Energies <==================
	-----------------------------------------------------------
	 SCS Same-Spin Scale       =       0.3333333333333333 [-]
	 SCS Opposite-Spin Scale   =       1.2000000000000000 [-]
	 SCS Same-Spin Energy      =      -0.1932404684673796 [Eh]
	 SCS Opposite-Spin Energy  =      -2.1626260117265157 [Eh]
	 SCS Correlation Energy    =      -2.3558664801938951 [Eh]
	 SCS Total Energy          =    -553.9507744594540100 [Eh]
	-----------------------------------------------------------

  Dipole Moment: [D]
     X:    -0.5006      Y:    -0.2486      Z:     0.2294     Total:     0.6042

*** Psi4 exiting successfully. Buy a developer a beer!
