                               Psi4 1.3.2 release

  ==> Input File <==

--------------------------------------------------------------------------
#psi4
#
memory 32 gb

molecule  {
0 1
  O        2.4521329     0.5769556    -0.0563246
  O        1.5746620    -1.5220150     0.0896580
  N       -1.1191790    -1.6921850    -0.1509940
  C       -1.0966210    -0.3229200    -0.0500550
  C        0.1267050     0.4076130    -0.0279230
  C       -2.3003260     0.4165330    -0.0467730
  C        0.1050810     1.8109880     0.0359760
  C       -2.2954060     1.8037730     0.0119910
  C       -1.0915490     2.5140600     0.0407670
  C        1.4212810    -0.3016580     0.0102200
  C       -2.3257850    -2.4585570     0.0736050
  C        3.7618060    -0.1198990    -0.0066490
  H       -3.2501560    -0.1077310    -0.0690300
  H        1.0507040     2.3420820     0.0640380
  H       -0.2300450    -2.1418000     0.0381510
  H       -3.2442430     2.3364260     0.0191250
  H       -1.0894800     3.5992760     0.0899090
  H       -2.7979590    -2.2384410     1.0412790
  H       -2.0612830    -3.5169920     0.0485590
  H       -3.0612710    -2.2783540    -0.7172980
  H        3.8686140    -0.8046650    -0.8491430
  H        3.8704280    -0.6765840     0.9253170
  H        4.4925120     0.6845290    -0.0653970
units angstrom
no_reorient  #important for SAPT in psi4, default
symmetry c1  #important for SAPT in psi4, default
}

set PROPERTIES_ORIGIN ["COM"]
properties('MP2/aug-cc-pvtz', properties = ['dipole'])
--------------------------------------------------------------------------

    Molecular point group: c1
  Charge       = 0
  Multiplicity = 1
  Basis Set: AUG-CC-PVTZ
    Blend: AUG-CC-PVTZ
  Basis Set: (AUG-CC-PVTZ AUX)
    Blend: AUG-CC-PVTZ-JKFIT

    Orbital Energies [Eh]
    ---------------------

    Doubly Occupied:

       1A    -20.605204     2A    -20.542910     3A    -15.562156
       4A    -11.384758     5A    -11.296536     6A    -11.289600
       7A    -11.257697     8A    -11.250355     9A    -11.248070
      10A    -11.237059    11A    -11.226214    12A    -11.222055
      13A     -1.448152    14A     -1.348470    15A     -1.244529
      16A     -1.140418    17A     -1.043721    18A     -1.008289
      19A     -0.965662    20A     -0.922429    21A     -0.864146
      22A     -0.807823    23A     -0.783215    24A     -0.725736
      25A     -0.698898    26A     -0.671753    27A     -0.663930
      28A     -0.659093    29A     -0.626645    30A     -0.614949
      31A     -0.610910    32A     -0.582112    33A     -0.570864
      34A     -0.557608    35A     -0.541170    36A     -0.537142
      37A     -0.527688    38A     -0.506464    39A     -0.500061
      40A     -0.469108    41A     -0.443929    42A     -0.426494
      43A     -0.347797    44A     -0.290249

  @DF-RHF Final Energy:  -551.59774770261708

   => Energetics <=

    Nuclear Repulsion Energy =            687.7478885446469121
    One-Electron Energy =               -2116.1471351702584798
    Two-Electron Energy =                 876.8014989229944831
    Total Energy =                       -551.5977477026170845
  Basis Set: (AUG-CC-PVTZ AUX)
    Blend: AUG-CC-PVTZ-RI
    Molecular point group: c1

    Geometry (in Angstrom), charge = 0, multiplicity = 1:

       Center              X                  Y                   Z               Mass
    ------------   -----------------  -----------------  -----------------  -----------------
         O            2.440458737175     0.556583060122    -0.052946307129    15.994914619570
         O            1.562987837175    -1.542387539878     0.093036292871    15.994914619570
         N           -1.130853162825    -1.712557539878    -0.147615707129    14.003074004430
         C           -1.108295162825    -0.343292539878    -0.046676707129    12.000000000000
         C            0.115030837175     0.387240460122    -0.024544707129    12.000000000000
         C           -2.312000162825     0.396160460122    -0.043394707129    12.000000000000
         C            0.093406837175     1.790615460122     0.039354292871    12.000000000000
         C           -2.307080162825     1.783400460122     0.015369292871    12.000000000000
         C           -1.103223162825     2.493687460122     0.044145292871    12.000000000000
         C            1.409606837175    -0.322030539878     0.013598292871    12.000000000000
         C           -2.337459162825    -2.478929539878     0.076983292871    12.000000000000
         C            3.750131837175    -0.140271539878    -0.003270707129    12.000000000000
         H           -3.261830162825    -0.128103539878    -0.065651707129     1.007825032230
         H            1.039029837175     2.321709460122     0.067416292871     1.007825032230
         H           -0.241719162825    -2.162172539878     0.041529292871     1.007825032230
         H           -3.255917162825     2.316053460122     0.022503292871     1.007825032230
         H           -1.101154162825     3.578903460122     0.093287292871     1.007825032230
         H           -2.809633162825    -2.258813539878     1.044657292871     1.007825032230
         H           -2.072957162825    -3.537364539878     0.051937292871     1.007825032230
         H           -3.072945162825    -2.298726539878    -0.713919707129     1.007825032230
         H            3.856939837175    -0.825037539878    -0.845764707129     1.007825032230
         H            3.858753837175    -0.696956539878     0.928695292871     1.007825032230
         H            4.480837837175     0.664156460122    -0.062018707129     1.007825032230

  Basis Set: AUG-CC-PVTZ
    Blend: AUG-CC-PVTZ
  Basis Set: (AUG-CC-PVTZ AUX)
    Blend: AUG-CC-PVTZ-JKFIT
	 Reference Energy          =    -551.5977477026170845 [Eh]
	 Singles Energy            =      -0.0000000000000000 [Eh]
	 Same-Spin Energy          =      -0.5794129043372274 [Eh]
	 Opposite-Spin Energy      =      -1.8013932394477847 [Eh]
	 Correlation Energy        =      -2.3808061437850121 [Eh]
	 Total Energy              =    -553.9785538464020647 [Eh]

	 ================> DF-SCS-MP2 Energies <==================
	-----------------------------------------------------------
	 SCS Same-Spin Scale       =       0.3333333333333333 [-]
	 SCS Opposite-Spin Scale   =       1.2000000000000000 [-]
	 SCS Same-Spin Energy      =      -0.1931376347790758 [Eh]
	 SCS Opposite-Spin Energy  =      -2.1616718873373415 [Eh]
	 SCS Correlation Energy    =      -2.3548095221164171 [Eh]
	 SCS Total Energy          =    -553.9525572247334821 [Eh]
	-----------------------------------------------------------

  Dipole Moment: [D]
     X:     0.0264      Y:    -0.1772      Z:     0.3311     Total:     0.3765

*** Psi4 exiting successfully. Buy a developer a beer!
