                               Psi4 1.4a3.dev225

  ==> Input File <==

--------------------------------------------------------------------------
#psi4
#
memory 32 gb

molecule  {
0 1
  O        2.4822540     0.5405090    -0.0540980
  O        1.5746620    -1.5220150     0.0896580
  N       -1.1191790    -1.6921850    -0.1509940
  C       -1.0966210    -0.3229200    -0.0500550
  C        0.1267050     0.4076130    -0.0279230
  C       -2.3003260     0.4165330    -0.0467730
  C        0.1050810     1.8109880     0.0359760
  C       -2.2954060     1.8037730     0.0119910
  C       -1.0915490     2.5140600     0.0407670
  C        1.4212810    -0.3016580     0.0102200
  C       -2.3257850    -2.4585570     0.0736050
  C        3.7173990    -0.0969795    -0.0082957
  H       -3.2501560    -0.1077310    -0.0690300
  H        1.0507040     2.3420820     0.0640380
  H       -0.2300450    -2.1418000     0.0381510
  H       -3.2442430     2.3364260     0.0191250
  H       -1.0894800     3.5992760     0.0899090
  H       -2.7979590    -2.2384410     1.0412790
  H       -2.0612830    -3.5169920     0.0485590
  H       -3.0612710    -2.2783540    -0.7172980
  H        3.8686140    -0.8046650    -0.8491430
  H        3.8704280    -0.6765840     0.9253170
  H        4.4925120     0.6845290    -0.0653970
units angstrom
no_reorient  #important for SAPT in psi4, default
symmetry c1  #important for SAPT in psi4, default
}

set PROPERTIES_ORIGIN ["COM"]
properties('MP2/aug-cc-pvtz', properties = ['dipole'])
--------------------------------------------------------------------------

    Molecular point group: c1
  Charge       = 0
  Multiplicity = 1
  Basis Set: AUG-CC-PVTZ
    Blend: AUG-CC-PVTZ
  Basis Set: (AUG-CC-PVTZ AUX)
    Blend: AUG-CC-PVTZ-JKFIT

    Orbital Energies [Eh]
    ---------------------

    Doubly Occupied:

       1A    -20.607153     2A    -20.544495     3A    -15.564331
       4A    -11.388421     5A    -11.299717     6A    -11.283611
       7A    -11.259192     8A    -11.252944     9A    -11.251435
      10A    -11.241341    11A    -11.228699    12A    -11.224586
      13A     -1.466428    14A     -1.357224    15A     -1.246773
      16A     -1.143595    17A     -1.048744    18A     -1.010820
      19A     -0.968600    20A     -0.923415    21A     -0.864333
      22A     -0.810319    23A     -0.788190    24A     -0.732675
      25A     -0.701449    26A     -0.679878    27A     -0.674047
      28A     -0.662637    29A     -0.632815    30A     -0.618343
      31A     -0.612890    32A     -0.584741    33A     -0.578796
      34A     -0.550890    35A     -0.543297    36A     -0.533268
      37A     -0.521454    38A     -0.505929    39A     -0.501322
      40A     -0.463344    41A     -0.447249    42A     -0.428607
      43A     -0.350661    44A     -0.292664

  @DF-RHF Final Energy:  -551.60014446933474

   => Energetics <=

    Nuclear Repulsion Energy =            689.0442800239610506
    One-Electron Energy =               -2118.5062025709758018
    Two-Electron Energy =                 877.8617780776799009
    Total Energy =                       -551.6001444693347366
  Basis Set: (AUG-CC-PVTZ AUX)
    Blend: AUG-CC-PVTZ-RI
    Molecular point group: c1

    Geometry (in Angstrom), charge = 0, multiplicity = 1:

       Center              X                  Y                   Z               Mass
    ------------   -----------------  -----------------  -----------------  -----------------
         O            2.470889383416     0.522001786996    -0.050815745262    15.994914619570
         O            1.563297383416    -1.540522213004     0.092940254738    15.994914619570
         N           -1.130543616584    -1.710692213004    -0.147711745262    14.003074004430
         C           -1.107985616584    -0.341427213004    -0.046772745262    12.000000000000
         C            0.115340383416     0.389105786996    -0.024640745262    12.000000000000
         C           -2.311690616584     0.398025786996    -0.043490745262    12.000000000000
         C            0.093716383416     1.792480786996     0.039258254738    12.000000000000
         C           -2.306770616584     1.785265786996     0.015273254738    12.000000000000
         C           -1.102913616584     2.495552786996     0.044049254738    12.000000000000
         C            1.409916383416    -0.320165213004     0.013502254738    12.000000000000
         C           -2.337149616584    -2.477064213004     0.076887254738    12.000000000000
         C            3.706034383416    -0.115486713004    -0.005013445262    12.000000000000
         H           -3.261520616584    -0.126238213004    -0.065747745262     1.007825032230
         H            1.039339383416     2.323574786996     0.067320254738     1.007825032230
         H           -0.241409616584    -2.160307213004     0.041433254738     1.007825032230
         H           -3.255607616584     2.317918786996     0.022407254738     1.007825032230
         H           -1.100844616584     3.580768786996     0.093191254738     1.007825032230
         H           -2.809323616584    -2.256948213004     1.044561254738     1.007825032230
         H           -2.072647616584    -3.535499213004     0.051841254738     1.007825032230
         H           -3.072635616584    -2.296861213004    -0.714015745262     1.007825032230
         H            3.857249383416    -0.823172213004    -0.845860745262     1.007825032230
         H            3.859063383416    -0.695091213004     0.928599254738     1.007825032230
         H            4.481147383416     0.666021786996    -0.062114745262     1.007825032230

  Basis Set: AUG-CC-PVTZ
    Blend: AUG-CC-PVTZ
  Basis Set: (AUG-CC-PVTZ AUX)
    Blend: AUG-CC-PVTZ-JKFIT
	 Reference Energy          =    -551.6001444693347366 [Eh]
	 Singles Energy            =      -0.0000000000000000 [Eh]
	 Same-Spin Energy          =      -0.5790080504910244 [Eh]
	 Opposite-Spin Energy      =      -1.7994401381244749 [Eh]
	 Correlation Energy        =      -2.3784481886154993 [Eh]
	 Total Energy              =    -553.9785926579502302 [Eh]

	 ================> DF-SCS-MP2 Energies <==================
	-----------------------------------------------------------
	 SCS Same-Spin Scale       =       0.3333333333333333 [-]
	 SCS Opposite-Spin Scale   =       1.2000000000000000 [-]
	 SCS Same-Spin Energy      =      -0.1930026834970081 [Eh]
	 SCS Opposite-Spin Energy  =      -2.1593281657493697 [Eh]
	 SCS Correlation Energy    =      -2.3523308492463779 [Eh]
	 SCS Total Energy          =    -553.9524753185811505 [Eh]
	-----------------------------------------------------------

  Dipole Moment: [D]
     X:    -0.4084      Y:    -0.0520      Z:     0.3243     Total:     0.5241

*** Psi4 exiting successfully. Buy a developer a beer!
