                               Psi4 1.3.2 release

  ==> Input File <==

--------------------------------------------------------------------------
#psi4
#
memory 32 gb

molecule  {
0 1
  O        2.4822540     0.5405090    -0.0540980
  O        1.5746620    -1.5220150     0.0896580
  N       -1.1191790    -1.6921850    -0.1509940
  C       -1.1198851    -0.3223243    -0.0557816
  C        0.1267050     0.4076130    -0.0279230
  C       -2.3003260     0.4165330    -0.0467730
  C        0.1050810     1.8109880     0.0359760
  C       -2.2954060     1.8037730     0.0119910
  C       -1.0915490     2.5140600     0.0407670
  C        1.4212810    -0.3016580     0.0102200
  C       -2.3257850    -2.4585570     0.0736050
  C        3.7618060    -0.1198990    -0.0066490
  H       -3.2501560    -0.1077310    -0.0690300
  H        1.0507040     2.3420820     0.0640380
  H       -0.2300450    -2.1418000     0.0381510
  H       -3.2442430     2.3364260     0.0191250
  H       -1.0894800     3.5992760     0.0899090
  H       -2.7979590    -2.2384410     1.0412790
  H       -2.0612830    -3.5169920     0.0485590
  H       -3.0612710    -2.2783540    -0.7172980
  H        3.8686140    -0.8046650    -0.8491430
  H        3.8704280    -0.6765840     0.9253170
  H        4.4925120     0.6845290    -0.0653970
units angstrom
no_reorient  #important for SAPT in psi4, default
symmetry c1  #important for SAPT in psi4, default
}

set PROPERTIES_ORIGIN ["COM"]
properties('MP2/aug-cc-pvtz', properties = ['dipole'])
--------------------------------------------------------------------------

    Molecular point group: c1
  Charge       = 0
  Multiplicity = 1
  Basis Set: AUG-CC-PVTZ
    Blend: AUG-CC-PVTZ
  Basis Set: (AUG-CC-PVTZ AUX)
    Blend: AUG-CC-PVTZ-JKFIT

    Orbital Energies [Eh]
    ---------------------

    Doubly Occupied:

       1A    -20.602654     2A    -20.541657     3A    -15.562788
       4A    -11.385734     5A    -11.297878     6A    -11.284271
       7A    -11.257537     8A    -11.252788     9A    -11.250510
      10A    -11.241355    11A    -11.225324    12A    -11.223580
      13A     -1.453931    14A     -1.349808    15A     -1.245462
      16A     -1.142063    17A     -1.045502    18A     -1.011063
      19A     -0.967940    20A     -0.922692    21A     -0.866037
      22A     -0.807456    23A     -0.783801    24A     -0.728672
      25A     -0.701482    26A     -0.673960    27A     -0.668516
      28A     -0.659966    29A     -0.629090    30A     -0.617850
      31A     -0.611644    32A     -0.582390    33A     -0.576342
      34A     -0.555434    35A     -0.541891    36A     -0.535666
      37A     -0.525719    38A     -0.507010    39A     -0.498920
      40A     -0.465201    41A     -0.445233    42A     -0.427308
      43A     -0.349480    44A     -0.291753

  @DF-RHF Final Energy:  -551.60110396906384

   => Energetics <=

    Nuclear Repulsion Energy =            687.8529017372890166
    One-Electron Energy =               -2116.2772961625264543
    Two-Electron Energy =                 876.8232904561737087
    Total Energy =                       -551.6011039690638427
  Basis Set: (AUG-CC-PVTZ AUX)
    Blend: AUG-CC-PVTZ-RI
    Molecular point group: c1

    Geometry (in Angstrom), charge = 0, multiplicity = 1:

       Center              X                  Y                   Z               Mass
    ------------   -----------------  -----------------  -----------------  -----------------
         O            2.469352453625     0.523624559334    -0.050519167221    15.994914619570
         O            1.561760453625    -1.538899440666     0.093236832779    15.994914619570
         N           -1.132080546375    -1.709069440666    -0.147415167221    14.003074004430
         C           -1.132786646375    -0.339208740666    -0.052202767221    12.000000000000
         C            0.113803453625     0.390728559334    -0.024344167221    12.000000000000
         C           -2.313227546375     0.399648559334    -0.043194167221    12.000000000000
         C            0.092179453625     1.794103559334     0.039554832779    12.000000000000
         C           -2.308307546375     1.786888559334     0.015569832779    12.000000000000
         C           -1.104450546375     2.497175559334     0.044345832779    12.000000000000
         C            1.408379453625    -0.318542440666     0.013798832779    12.000000000000
         C           -2.338686546375    -2.475441440666     0.077183832779    12.000000000000
         C            3.748904453625    -0.136783440666    -0.003070167221    12.000000000000
         H           -3.263057546375    -0.124615440666    -0.065451167221     1.007825032230
         H            1.037802453625     2.325197559334     0.067616832779     1.007825032230
         H           -0.242946546375    -2.158684440666     0.041729832779     1.007825032230
         H           -3.257144546375     2.319541559334     0.022703832779     1.007825032230
         H           -1.102381546375     3.582391559334     0.093487832779     1.007825032230
         H           -2.810860546375    -2.255325440666     1.044857832779     1.007825032230
         H           -2.074184546375    -3.533876440666     0.052137832779     1.007825032230
         H           -3.074172546375    -2.295238440666    -0.713719167221     1.007825032230
         H            3.855712453625    -0.821549440666    -0.845564167221     1.007825032230
         H            3.857526453625    -0.693468440666     0.928895832779     1.007825032230
         H            4.479610453625     0.667644559334    -0.061818167221     1.007825032230

  Basis Set: AUG-CC-PVTZ
    Blend: AUG-CC-PVTZ
  Basis Set: (AUG-CC-PVTZ AUX)
    Blend: AUG-CC-PVTZ-JKFIT
	 Reference Energy          =    -551.6011039690638427 [Eh]
	 Singles Energy            =      -0.0000000000000000 [Eh]
	 Same-Spin Energy          =      -0.5789350867354642 [Eh]
	 Opposite-Spin Energy      =      -1.7998125736642161 [Eh]
	 Correlation Energy        =      -2.3787476603996804 [Eh]
	 Total Energy              =    -553.9798516294634965 [Eh]

	 ================> DF-SCS-MP2 Energies <==================
	-----------------------------------------------------------
	 SCS Same-Spin Scale       =       0.3333333333333333 [-]
	 SCS Opposite-Spin Scale   =       1.2000000000000000 [-]
	 SCS Same-Spin Energy      =      -0.1929783622451547 [Eh]
	 SCS Opposite-Spin Energy  =      -2.1597750883970592 [Eh]
	 SCS Correlation Energy    =      -2.3527534506422141 [Eh]
	 SCS Total Energy          =    -553.9538574197060825 [Eh]
	-----------------------------------------------------------

  Dipole Moment: [D]
     X:    -0.1577      Y:    -0.0709      Z:     0.3246     Total:     0.3677

*** Psi4 exiting successfully. Buy a developer a beer!
