                               Psi4 1.3.2 release

  ==> Input File <==

--------------------------------------------------------------------------
#psi4
#
memory 32 gb

molecule  {
0 1
  O        2.4521334     0.5769597    -0.0562628
  O        1.5746620    -1.5220150     0.0896580
  N       -1.1191790    -1.6921850    -0.1509940
  C       -1.0966210    -0.3229200    -0.0500550
  C        0.1267050     0.4076130    -0.0279230
  C       -2.3003260     0.4165330    -0.0467730
  C        0.1050810     1.8109880     0.0359760
  C       -2.2954060     1.8037730     0.0119910
  C       -1.0915490     2.5140600     0.0407670
  C        1.4212810    -0.3016580     0.0102200
  C       -2.3257850    -2.4585570     0.0736050
  C        3.7618060    -0.1198990    -0.0066490
  H       -3.2501560    -0.1077310    -0.0690300
  H        1.0507040     2.3420820     0.0640380
  H       -0.2300450    -2.1418000     0.0381510
  H       -3.2442430     2.3364260     0.0191250
  H       -1.0894800     3.5992760     0.0899090
  H       -2.7979590    -2.2384410     1.0412790
  H       -2.0612830    -3.5169920     0.0485590
  H       -3.0612710    -2.2783540    -0.7172980
  H        3.8686140    -0.8046650    -0.8491430
  H        3.8704280    -0.6765840     0.9253170
  H        4.4925120     0.6845290    -0.0653970
units angstrom
no_reorient  #important for SAPT in psi4, default
symmetry c1  #important for SAPT in psi4, default
}

set PROPERTIES_ORIGIN ["COM"]
properties('MP2/aug-cc-pvtz', properties = ['dipole'])
--------------------------------------------------------------------------

    Molecular point group: c1
  Charge       = 0
  Multiplicity = 1
  Basis Set: AUG-CC-PVTZ
    Blend: AUG-CC-PVTZ
  Basis Set: (AUG-CC-PVTZ AUX)
    Blend: AUG-CC-PVTZ-JKFIT

    Orbital Energies [Eh]
    ---------------------

    Doubly Occupied:

       1A    -20.605204     2A    -20.542910     3A    -15.562156
       4A    -11.384758     5A    -11.296536     6A    -11.289600
       7A    -11.257697     8A    -11.250355     9A    -11.248070
      10A    -11.237059    11A    -11.226214    12A    -11.222055
      13A     -1.448152    14A     -1.348470    15A     -1.244529
      16A     -1.140418    17A     -1.043721    18A     -1.008289
      19A     -0.965662    20A     -0.922429    21A     -0.864146
      22A     -0.807823    23A     -0.783215    24A     -0.725736
      25A     -0.698898    26A     -0.671753    27A     -0.663930
      28A     -0.659093    29A     -0.626645    30A     -0.614949
      31A     -0.610909    32A     -0.582112    33A     -0.570864
      34A     -0.557609    35A     -0.541170    36A     -0.537142
      37A     -0.527688    38A     -0.506464    39A     -0.500061
      40A     -0.469108    41A     -0.443929    42A     -0.426494
      43A     -0.347797    44A     -0.290249

  @DF-RHF Final Energy:  -551.59774780510486

   => Energetics <=

    Nuclear Repulsion Energy =            687.7479100887226195
    One-Electron Energy =               -2116.1471784739651412
    Two-Electron Energy =                 876.8015205801376624
    Total Energy =                       -551.5977478051048593
  Basis Set: (AUG-CC-PVTZ AUX)
    Blend: AUG-CC-PVTZ-RI
    Molecular point group: c1

    Geometry (in Angstrom), charge = 0, multiplicity = 1:

       Center              X                  Y                   Z               Mass
    ------------   -----------------  -----------------  -----------------  -----------------
         O            2.440459188729     0.556586762863    -0.052890495085    15.994914619570
         O            1.562987788729    -1.542387937137     0.093030304915    15.994914619570
         N           -1.130853211271    -1.712557937137    -0.147621695085    14.003074004430
         C           -1.108295211271    -0.343292937137    -0.046682695085    12.000000000000
         C            0.115030788729     0.387240062863    -0.024550695085    12.000000000000
         C           -2.312000211271     0.396160062863    -0.043400695085    12.000000000000
         C            0.093406788729     1.790615062863     0.039348304915    12.000000000000
         C           -2.307080211271     1.783400062863     0.015363304915    12.000000000000
         C           -1.103223211271     2.493687062863     0.044139304915    12.000000000000
         C            1.409606788729    -0.322030937137     0.013592304915    12.000000000000
         C           -2.337459211271    -2.478929937137     0.076977304915    12.000000000000
         C            3.750131788729    -0.140271937137    -0.003276695085    12.000000000000
         H           -3.261830211271    -0.128103937137    -0.065657695085     1.007825032230
         H            1.039029788729     2.321709062863     0.067410304915     1.007825032230
         H           -0.241719211271    -2.162172937137     0.041523304915     1.007825032230
         H           -3.255917211271     2.316053062863     0.022497304915     1.007825032230
         H           -1.101154211271     3.578903062863     0.093281304915     1.007825032230
         H           -2.809633211271    -2.258813937137     1.044651304915     1.007825032230
         H           -2.072957211271    -3.537364937137     0.051931304915     1.007825032230
         H           -3.072945211271    -2.298726937137    -0.713925695085     1.007825032230
         H            3.856939788729    -0.825037937137    -0.845770695085     1.007825032230
         H            3.858753788729    -0.696956937137     0.928689304915     1.007825032230
         H            4.480837788729     0.664156062863    -0.062024695085     1.007825032230

  Basis Set: AUG-CC-PVTZ
    Blend: AUG-CC-PVTZ
  Basis Set: (AUG-CC-PVTZ AUX)
    Blend: AUG-CC-PVTZ-JKFIT
	 Reference Energy          =    -551.5977478051048593 [Eh]
	 Singles Energy            =      -0.0000000000000000 [Eh]
	 Same-Spin Energy          =      -0.5794128949334192 [Eh]
	 Opposite-Spin Energy      =      -1.8013932199668283 [Eh]
	 Correlation Energy        =      -2.3808061149002473 [Eh]
	 Total Energy              =    -553.9785539200050835 [Eh]

	 ================> DF-SCS-MP2 Energies <==================
	-----------------------------------------------------------
	 SCS Same-Spin Scale       =       0.3333333333333333 [-]
	 SCS Opposite-Spin Scale   =       1.2000000000000000 [-]
	 SCS Same-Spin Energy      =      -0.1931376316444731 [Eh]
	 SCS Opposite-Spin Energy  =      -2.1616718639601937 [Eh]
	 SCS Correlation Energy    =      -2.3548094956046670 [Eh]
	 SCS Total Energy          =    -553.9525573007094863 [Eh]
	-----------------------------------------------------------

  Dipole Moment: [D]
     X:     0.0264      Y:    -0.1772      Z:     0.3310     Total:     0.3764

*** Psi4 exiting successfully. Buy a developer a beer!
