                               Psi4 1.3.2 release

  ==> Input File <==

--------------------------------------------------------------------------
#psi4
#
memory 32 gb

molecule  {
0 1
  C        0.0000000     0.4225390     0.0000000
  H       -0.4584299     1.4277354     0.0000000
  O        1.2082730     0.2220110     0.0000000
  N       -0.9482900    -0.5548660     0.0000000
  H       -0.6534580    -1.5217170     0.0000000
  H       -1.9338820    -0.3411310     0.0000000
units angstrom
no_reorient  #important for SAPT in psi4, default
symmetry c1  #important for SAPT in psi4, default
}

set PROPERTIES_ORIGIN ["COM"]
properties('MP2/aug-cc-pvtz', properties = ['dipole'])
--------------------------------------------------------------------------

    Molecular point group: c1
  Charge       = 0
  Multiplicity = 1
  Basis Set: AUG-CC-PVTZ
    Blend: AUG-CC-PVTZ
  Basis Set: (AUG-CC-PVTZ AUX)
    Blend: AUG-CC-PVTZ-JKFIT

    Orbital Energies [Eh]
    ---------------------

    Doubly Occupied:

       1A    -20.532247     2A    -15.599391     3A    -11.361356
       4A     -1.380045     5A     -1.220289     6A     -0.854447
       7A     -0.751238     8A     -0.672735     9A     -0.608430
      10A     -0.569807    11A     -0.438516    12A     -0.422630

  @DF-RHF Final Energy:  -169.00292405851951

   => Energetics <=

    Nuclear Repulsion Energy =             70.8435507612012714
    One-Electron Energy =                -370.8706869537032844
    Two-Electron Energy =                 131.0242121339824735
    Total Energy =                       -169.0029240585195112
  Basis Set: (AUG-CC-PVTZ AUX)
    Blend: AUG-CC-PVTZ-RI
    Molecular point group: c1

    Geometry (in Angstrom), charge = 0, multiplicity = 1:

       Center              X                  Y                   Z               Mass
    ------------   -----------------  -----------------  -----------------  -----------------
         C           -0.066138348929     0.413361867033     0.000000000000    12.000000000000
         H           -0.524568248929     1.418558267033     0.000000000000     1.007825032230
         O            1.142134651071     0.212833867033     0.000000000000    15.994914619570
         N           -1.014428348929    -0.564043132967     0.000000000000    14.003074004430
         H           -0.719596348929    -1.530894132967     0.000000000000     1.007825032230
         H           -2.000020348929    -0.350308132967     0.000000000000     1.007825032230

  Basis Set: AUG-CC-PVTZ
    Blend: AUG-CC-PVTZ
  Basis Set: (AUG-CC-PVTZ AUX)
    Blend: AUG-CC-PVTZ-JKFIT
	 Reference Energy          =    -169.0029240585195112 [Eh]
	 Singles Energy            =      -0.0000000000000000 [Eh]
	 Same-Spin Energy          =      -0.1623977013129850 [Eh]
	 Opposite-Spin Energy      =      -0.5045639299227034 [Eh]
	 Correlation Energy        =      -0.6669616312356884 [Eh]
	 Total Energy              =    -169.6698856897552048 [Eh]

	 ================> DF-SCS-MP2 Energies <==================
	-----------------------------------------------------------
	 SCS Same-Spin Scale       =       0.3333333333333333 [-]
	 SCS Opposite-Spin Scale   =       1.2000000000000000 [-]
	 SCS Same-Spin Energy      =      -0.0541325671043283 [Eh]
	 SCS Opposite-Spin Energy  =      -0.6054767159072441 [Eh]
	 SCS Correlation Energy    =      -0.6596092830115724 [Eh]
	 SCS Total Energy          =    -169.6625333415310877 [Eh]
	-----------------------------------------------------------

  Dipole Moment: [D]
     X:    -3.8644      Y:    -0.6034      Z:    -0.0000     Total:     3.9112

*** Psi4 exiting successfully. Buy a developer a beer!
