                               Psi4 1.3.2 release

  ==> Input File <==

--------------------------------------------------------------------------
#psi4
#
memory 32 gb

molecule  {
0 1
  C        0.0000000     0.4225390     0.0000000
  H       -0.4408170     1.4355830     0.0000000
  O        1.1096224     0.2383833     0.0000000
  N       -0.9482900    -0.5548660     0.0000000
  H       -0.6534580    -1.5217170     0.0000000
  H       -1.9338820    -0.3411310     0.0000000
units angstrom
no_reorient  #important for SAPT in psi4, default
symmetry c1  #important for SAPT in psi4, default
}

set PROPERTIES_ORIGIN ["COM"]
properties('MP2/aug-cc-pvtz', properties = ['dipole'])
--------------------------------------------------------------------------

    Molecular point group: c1
  Charge       = 0
  Multiplicity = 1
  Basis Set: AUG-CC-PVTZ
    Blend: AUG-CC-PVTZ
  Basis Set: (AUG-CC-PVTZ AUX)
    Blend: AUG-CC-PVTZ-JKFIT

    Orbital Energies [Eh]
    ---------------------

    Doubly Occupied:

       1A    -20.531546     2A    -15.582533     3A    -11.339765
       4A     -1.448881     5A     -1.211862     6A     -0.839037
       7A     -0.752281     8A     -0.682738     9A     -0.630247
      10A     -0.599737    11A     -0.437677    12A     -0.426118

  @DF-RHF Final Energy:  -168.99814370354105

   => Energetics <=

    Nuclear Repulsion Energy =             73.3659969611018710
    One-Electron Energy =                -375.7634399323335401
    Two-Electron Energy =                 133.3992992676906226
    Total Energy =                       -168.9981437035410465
  Basis Set: (AUG-CC-PVTZ AUX)
    Blend: AUG-CC-PVTZ-RI
    Molecular point group: c1

    Geometry (in Angstrom), charge = 0, multiplicity = 1:

       Center              X                  Y                   Z               Mass
    ------------   -----------------  -----------------  -----------------  -----------------
         C           -0.031484717667     0.407369557453     0.000000000000    12.000000000000
         H           -0.472301717667     1.420413557453     0.000000000000     1.007825032230
         O            1.078137682333     0.223213857453     0.000000000000    15.994914619570
         N           -0.979774717667    -0.570035442547     0.000000000000    14.003074004430
         H           -0.684942717667    -1.536886442547     0.000000000000     1.007825032230
         H           -1.965366717667    -0.356300442547     0.000000000000     1.007825032230

  Basis Set: AUG-CC-PVTZ
    Blend: AUG-CC-PVTZ
  Basis Set: (AUG-CC-PVTZ AUX)
    Blend: AUG-CC-PVTZ-JKFIT
	 Reference Energy          =    -168.9981437035410465 [Eh]
	 Singles Energy            =      -0.0000000000000000 [Eh]
	 Same-Spin Energy          =      -0.1599931222157463 [Eh]
	 Opposite-Spin Energy      =      -0.4983713709395702 [Eh]
	 Correlation Energy        =      -0.6583644931553165 [Eh]
	 Total Energy              =    -169.6565081966963646 [Eh]

	 ================> DF-SCS-MP2 Energies <==================
	-----------------------------------------------------------
	 SCS Same-Spin Scale       =       0.3333333333333333 [-]
	 SCS Opposite-Spin Scale   =       1.2000000000000000 [-]
	 SCS Same-Spin Energy      =      -0.0533310407385821 [Eh]
	 SCS Opposite-Spin Energy  =      -0.5980456451274841 [Eh]
	 SCS Correlation Energy    =      -0.6513766858660662 [Eh]
	 SCS Total Energy          =    -169.6495203894071153 [Eh]
	-----------------------------------------------------------

  Dipole Moment: [D]
     X:    -3.2130      Y:    -0.5534      Z:     0.0000     Total:     3.2604

*** Psi4 exiting successfully. Buy a developer a beer!
