                               Psi4 1.3.2 release

  ==> Input File <==

--------------------------------------------------------------------------
#psi4
#
memory 32 gb

molecule  {
0 1
  C        0.0000000     0.4225390     0.0000000
  H       -0.4408170     1.4355830     0.0000000
  O        1.2082730     0.2220110     0.0000000
  N       -0.8786564    -0.4830944     0.0000000
  H       -0.6534580    -1.5217170     0.0000000
  H       -1.9338820    -0.3411310     0.0000000
units angstrom
no_reorient  #important for SAPT in psi4, default
symmetry c1  #important for SAPT in psi4, default
}

set PROPERTIES_ORIGIN ["COM"]
properties('MP2/aug-cc-pvtz', properties = ['dipole'])
--------------------------------------------------------------------------

    Molecular point group: c1
  Charge       = 0
  Multiplicity = 1
  Basis Set: AUG-CC-PVTZ
    Blend: AUG-CC-PVTZ
  Basis Set: (AUG-CC-PVTZ AUX)
    Blend: AUG-CC-PVTZ-JKFIT

    Orbital Energies [Eh]
    ---------------------

    Doubly Occupied:

       1A    -20.512088     2A    -15.612644     3A    -11.344120
       4A     -1.379010     5A     -1.237851     6A     -0.862455
       7A     -0.753524     8A     -0.665992     9A     -0.586999
      10A     -0.582447    11A     -0.427127    12A     -0.417879

  @DF-RHF Final Energy:  -168.98730974372936

   => Energetics <=

    Nuclear Repulsion Energy =             72.3642804288576684
    One-Electron Energy =                -373.9389078898628895
    Two-Electron Energy =                 132.5873177172758517
    Total Energy =                       -168.9873097437293552
  Basis Set: (AUG-CC-PVTZ AUX)
    Blend: AUG-CC-PVTZ-RI
    Molecular point group: c1

    Geometry (in Angstrom), charge = 0, multiplicity = 1:

       Center              X                  Y                   Z               Mass
    ------------   -----------------  -----------------  -----------------  -----------------
         C           -0.088190834420     0.390862997600     0.000000000000    12.000000000000
         H           -0.529007834420     1.403906997600     0.000000000000     1.007825032230
         O            1.120082165580     0.190334997600     0.000000000000    15.994914619570
         N           -0.966847234420    -0.514770402400     0.000000000000    14.003074004430
         H           -0.741648834420    -1.553393002400     0.000000000000     1.007825032230
         H           -2.022072834420    -0.372807002400     0.000000000000     1.007825032230

  Basis Set: AUG-CC-PVTZ
    Blend: AUG-CC-PVTZ
  Basis Set: (AUG-CC-PVTZ AUX)
    Blend: AUG-CC-PVTZ-JKFIT
	 Reference Energy          =    -168.9873097437293552 [Eh]
	 Singles Energy            =      -0.0000000000000000 [Eh]
	 Same-Spin Energy          =      -0.1630136300848278 [Eh]
	 Opposite-Spin Energy      =      -0.5044591868489995 [Eh]
	 Correlation Energy        =      -0.6674728169338273 [Eh]
	 Total Energy              =    -169.6547825606631932 [Eh]

	 ================> DF-SCS-MP2 Energies <==================
	-----------------------------------------------------------
	 SCS Same-Spin Scale       =       0.3333333333333333 [-]
	 SCS Opposite-Spin Scale   =       1.2000000000000000 [-]
	 SCS Same-Spin Energy      =      -0.0543378766949426 [Eh]
	 SCS Opposite-Spin Energy  =      -0.6053510242187994 [Eh]
	 SCS Correlation Energy    =      -0.6596889009137420 [Eh]
	 SCS Total Energy          =    -169.6469986446431051 [Eh]
	-----------------------------------------------------------

  Dipole Moment: [D]
     X:    -4.4003      Y:    -0.9535      Z:     0.0000     Total:     4.5024

*** Psi4 exiting successfully. Buy a developer a beer!
