                               Psi4 1.3.2 release

  ==> Input File <==

--------------------------------------------------------------------------
#psi4
#
memory 32 gb

molecule  {
0 1
  C        0.0000000     0.4225390     0.0000000
  H       -0.4807172     1.5272780     0.0000000
  O        1.2082730     0.2220110     0.0000000
  N       -0.9482900    -0.5548660     0.0000000
  H       -0.6534580    -1.5217170     0.0000000
  H       -1.9338820    -0.3411310     0.0000000
units angstrom
no_reorient  #important for SAPT in psi4, default
symmetry c1  #important for SAPT in psi4, default
}

set PROPERTIES_ORIGIN ["COM"]
properties('MP2/aug-cc-pvtz', properties = ['dipole'])
--------------------------------------------------------------------------

    Molecular point group: c1
  Charge       = 0
  Multiplicity = 1
  Basis Set: AUG-CC-PVTZ
    Blend: AUG-CC-PVTZ
  Basis Set: (AUG-CC-PVTZ AUX)
    Blend: AUG-CC-PVTZ-JKFIT

    Orbital Energies [Eh]
    ---------------------

    Doubly Occupied:

       1A    -20.535014     2A    -15.601760     3A    -11.372304
       4A     -1.381730     5A     -1.221355     6A     -0.841089
       7A     -0.748368     8A     -0.667914     9A     -0.602475
      10A     -0.571521    11A     -0.435022    12A     -0.424636

  @DF-RHF Final Energy:  -168.99605701133373

   => Energetics <=

    Nuclear Repulsion Energy =             70.4404035829382735
    One-Electron Energy =                -370.0665442213231699
    Two-Electron Energy =                 130.6300836270511354
    Total Energy =                       -168.9960570113337326
  Basis Set: (AUG-CC-PVTZ AUX)
    Blend: AUG-CC-PVTZ-RI
    Molecular point group: c1

    Geometry (in Angstrom), charge = 0, multiplicity = 1:

       Center              X                  Y                   Z               Mass
    ------------   -----------------  -----------------  -----------------  -----------------
         C           -0.065639438032     0.411133562669     0.000000000000    12.000000000000
         H           -0.546356638032     1.515872562669     0.000000000000     1.007825032230
         O            1.142633561968     0.210605562669     0.000000000000    15.994914619570
         N           -1.013929438032    -0.566271437331     0.000000000000    14.003074004430
         H           -0.719097438032    -1.533122437331     0.000000000000     1.007825032230
         H           -1.999521438032    -0.352536437331     0.000000000000     1.007825032230

  Basis Set: AUG-CC-PVTZ
    Blend: AUG-CC-PVTZ
  Basis Set: (AUG-CC-PVTZ AUX)
    Blend: AUG-CC-PVTZ-JKFIT
	 Reference Energy          =    -168.9960570113337326 [Eh]
	 Singles Energy            =      -0.0000000000000000 [Eh]
	 Same-Spin Energy          =      -0.1627296785959143 [Eh]
	 Opposite-Spin Energy      =      -0.5053634593885616 [Eh]
	 Correlation Energy        =      -0.6680931379844759 [Eh]
	 Total Energy              =    -169.6641501493182034 [Eh]

	 ================> DF-SCS-MP2 Energies <==================
	-----------------------------------------------------------
	 SCS Same-Spin Scale       =       0.3333333333333333 [-]
	 SCS Opposite-Spin Scale   =       1.2000000000000000 [-]
	 SCS Same-Spin Energy      =      -0.0542432261986381 [Eh]
	 SCS Opposite-Spin Energy  =      -0.6064361512662739 [Eh]
	 SCS Correlation Energy    =      -0.6606793774649120 [Eh]
	 SCS Total Energy          =    -169.6567363887986346 [Eh]
	-----------------------------------------------------------

  Dipole Moment: [D]
     X:    -3.7935      Y:    -0.6964      Z:    -0.0000     Total:     3.8569

*** Psi4 exiting successfully. Buy a developer a beer!
