                               Psi4 1.4a3.dev225

  ==> Input File <==

--------------------------------------------------------------------------
#psi4
#
memory 32 gb

molecule  {
0 1
  C       -0.1579540     0.3921460     0.0013640
  H       -0.1292430     1.4965190    -0.0005320
  O       -1.2030400    -0.2462730     0.0044980
  N        1.1340989    -0.1802438    -0.0310371
  H        1.9134840     0.4048590     0.1056440
  H        1.1690290    -1.1640930     0.0599600
units angstrom
no_reorient  #important for SAPT in psi4, default
symmetry c1  #important for SAPT in psi4, default
}

set PROPERTIES_ORIGIN ["COM"]
properties('MP2/aug-cc-pvtz', properties = ['dipole'])
--------------------------------------------------------------------------

    Molecular point group: c1
  Charge       = 0
  Multiplicity = 1
  Basis Set: AUG-CC-PVTZ
    Blend: AUG-CC-PVTZ
  Basis Set: (AUG-CC-PVTZ AUX)
    Blend: AUG-CC-PVTZ-JKFIT

    Orbital Energies [Eh]
    ---------------------

    Doubly Occupied:

       1A    -20.541920     2A    -15.593322     3A    -11.368611
       4A     -1.383337     5A     -1.212717     6A     -0.849343
       7A     -0.752582     8A     -0.672719     9A     -0.618589
      10A     -0.564178    11A     -0.443223    12A     -0.424866

  @DF-RHF Final Energy:  -168.99946767710131

   => Energetics <=

    Nuclear Repulsion Energy =             70.1415285916442599
    One-Electron Energy =                -369.4311786248106273
    Two-Electron Energy =                 130.2901823560650598
    Total Energy =                       -168.9994676771013076
  Basis Set: (AUG-CC-PVTZ AUX)
    Blend: AUG-CC-PVTZ-RI
    Molecular point group: c1

    Geometry (in Angstrom), charge = 0, multiplicity = 1:

       Center              X                  Y                   Z               Mass
    ------------   -----------------  -----------------  -----------------  -----------------
         C           -0.107295499865     0.414674734422     0.005360715647    12.000000000000
         H           -0.078584499865     1.519047734422     0.003464715647     1.007825032230
         O           -1.152381499865    -0.223744265578     0.008494715647    15.994914619570
         N            1.184757400135    -0.157715065578    -0.027040384353    14.003074004430
         H            1.964142500135     0.427387734422     0.109640715647     1.007825032230
         H            1.219687500135    -1.141564265578     0.063956715647     1.007825032230

  Basis Set: AUG-CC-PVTZ
    Blend: AUG-CC-PVTZ
  Basis Set: (AUG-CC-PVTZ AUX)
    Blend: AUG-CC-PVTZ-JKFIT
	 Reference Energy          =    -168.9994676771013076 [Eh]
	 Singles Energy            =      -0.0000000000000000 [Eh]
	 Same-Spin Energy          =      -0.1622046162063151 [Eh]
	 Opposite-Spin Energy      =      -0.5049825519881717 [Eh]
	 Correlation Energy        =      -0.6671871681944868 [Eh]
	 Total Energy              =    -169.6666548452957954 [Eh]

	 ================> DF-SCS-MP2 Energies <==================
	-----------------------------------------------------------
	 SCS Same-Spin Scale       =       0.3333333333333333 [-]
	 SCS Opposite-Spin Scale   =       1.2000000000000000 [-]
	 SCS Same-Spin Energy      =      -0.0540682054021050 [Eh]
	 SCS Opposite-Spin Energy  =      -0.6059790623858060 [Eh]
	 SCS Correlation Energy    =      -0.6600472677879110 [Eh]
	 SCS Total Energy          =    -169.6595149448892244 [Eh]
	-----------------------------------------------------------

  Dipole Moment: [D]
     X:     3.4428      Y:     0.9683      Z:     0.3410     Total:     3.5925

*** Psi4 exiting successfully. Buy a developer a beer!
