                               Psi4 1.3.2 release

  ==> Input File <==

--------------------------------------------------------------------------
#psi4
#
memory 32 gb

molecule  {
0 1
  C        0.0000000     0.4225390     0.0000000
  H       -0.4408170     1.4355830     0.0000000
  O        1.2045893     0.2009543     0.0000000
  N       -0.9482900    -0.5548660     0.0000000
  H       -0.6534580    -1.5217170     0.0000000
  H       -1.9338820    -0.3411310     0.0000000
units angstrom
no_reorient  #important for SAPT in psi4, default
symmetry c1  #important for SAPT in psi4, default
}

set PROPERTIES_ORIGIN ["COM"]
properties('MP2/aug-cc-pvtz', properties = ['dipole'])
--------------------------------------------------------------------------

    Molecular point group: c1
  Charge       = 0
  Multiplicity = 1
  Basis Set: AUG-CC-PVTZ
    Blend: AUG-CC-PVTZ
  Basis Set: (AUG-CC-PVTZ AUX)
    Blend: AUG-CC-PVTZ-JKFIT

    Orbital Energies [Eh]
    ---------------------

    Doubly Occupied:

       1A    -20.531465     2A    -15.598672     3A    -11.361146
       4A     -1.380216     5A     -1.218935     6A     -0.853999
       7A     -0.750820     8A     -0.673233     9A     -0.608039
      10A     -0.569616    11A     -0.438567    12A     -0.421704

  @DF-RHF Final Energy:  -169.00300923560141

   => Energetics <=

    Nuclear Repulsion Energy =             70.9046240533272538
    One-Electron Energy =                -371.0024436017798166
    Two-Electron Energy =                 131.0948103128511377
    Total Energy =                       -169.0030092356014109
  Basis Set: (AUG-CC-PVTZ AUX)
    Blend: AUG-CC-PVTZ-RI
    Molecular point group: c1

    Geometry (in Angstrom), charge = 0, multiplicity = 1:

       Center              X                  Y                   Z               Mass
    ------------   -----------------  -----------------  -----------------  -----------------
         C           -0.065223901861     0.420667074011     0.000000000000    12.000000000000
         H           -0.506040901861     1.433711074011     0.000000000000     1.007825032230
         O            1.139365398139     0.199082374011     0.000000000000    15.994914619570
         N           -1.013513901861    -0.556737925989     0.000000000000    14.003074004430
         H           -0.718681901861    -1.523588925989     0.000000000000     1.007825032230
         H           -1.999105901861    -0.343002925989     0.000000000000     1.007825032230

  Basis Set: AUG-CC-PVTZ
    Blend: AUG-CC-PVTZ
  Basis Set: (AUG-CC-PVTZ AUX)
    Blend: AUG-CC-PVTZ-JKFIT
	 Reference Energy          =    -169.0030092356014109 [Eh]
	 Singles Energy            =      -0.0000000000000000 [Eh]
	 Same-Spin Energy          =      -0.1623798948180997 [Eh]
	 Opposite-Spin Energy      =      -0.5045002587826436 [Eh]
	 Correlation Energy        =      -0.6668801536007434 [Eh]
	 Total Energy              =    -169.6698893892021545 [Eh]

	 ================> DF-SCS-MP2 Energies <==================
	-----------------------------------------------------------
	 SCS Same-Spin Scale       =       0.3333333333333333 [-]
	 SCS Opposite-Spin Scale   =       1.2000000000000000 [-]
	 SCS Same-Spin Energy      =      -0.0541266316060332 [Eh]
	 SCS Opposite-Spin Energy  =      -0.6054003105391723 [Eh]
	 SCS Correlation Energy    =      -0.6595269421452056 [Eh]
	 SCS Total Energy          =    -169.6625361777466026 [Eh]
	-----------------------------------------------------------

  Dipole Moment: [D]
     X:    -3.8544      Y:    -0.5435      Z:    -0.0000     Total:     3.8925

*** Psi4 exiting successfully. Buy a developer a beer!
