                               Psi4 1.3.2 release

  ==> Input File <==

--------------------------------------------------------------------------
#psi4
#
memory 32 gb

molecule  {
0 1
  C        0.0000000     0.4225390     0.0000000
  H       -0.4408170     1.4355830     0.0000000
  O        1.2082730     0.2220110     0.0000000
  N       -0.9482900    -0.5548660     0.0000000
  H       -0.6826260    -1.4260654     0.0000000
  H       -1.9338820    -0.3411310     0.0000000
units angstrom
no_reorient  #important for SAPT in psi4, default
symmetry c1  #important for SAPT in psi4, default
}

set PROPERTIES_ORIGIN ["COM"]
properties('MP2/aug-cc-pvtz', properties = ['dipole'])
--------------------------------------------------------------------------

    Molecular point group: c1
  Charge       = 0
  Multiplicity = 1
  Basis Set: AUG-CC-PVTZ
    Blend: AUG-CC-PVTZ
  Basis Set: (AUG-CC-PVTZ AUX)
    Blend: AUG-CC-PVTZ-JKFIT

    Orbital Energies [Eh]
    ---------------------

    Doubly Occupied:

       1A    -20.532985     2A    -15.590386     3A    -11.361798
       4A     -1.382108     5A     -1.235193     6A     -0.869553
       7A     -0.758958     8A     -0.687282     9A     -0.611660
      10A     -0.571289    11A     -0.439147    12A     -0.424942

  @DF-RHF Final Energy:  -168.99595693548588

   => Energetics <=

    Nuclear Repulsion Energy =             71.3556235498907370
    One-Electron Energy =                -371.7725598430208152
    Two-Electron Energy =                 131.4209793576442280
    Total Energy =                       -168.9959569354858786
  Basis Set: (AUG-CC-PVTZ AUX)
    Blend: AUG-CC-PVTZ-RI
    Molecular point group: c1

    Geometry (in Angstrom), charge = 0, multiplicity = 1:

       Center              X                  Y                   Z               Mass
    ------------   -----------------  -----------------  -----------------  -----------------
         C           -0.065879682993     0.411044992459     0.000000000000    12.000000000000
         H           -0.506696682993     1.424088992459     0.000000000000     1.007825032230
         O            1.142393317007     0.210516992459     0.000000000000    15.994914619570
         N           -1.014169682993    -0.566360007541     0.000000000000    14.003074004430
         H           -0.748505682993    -1.437559407541     0.000000000000     1.007825032230
         H           -1.999761682993    -0.352625007541     0.000000000000     1.007825032230

  Basis Set: AUG-CC-PVTZ
    Blend: AUG-CC-PVTZ
  Basis Set: (AUG-CC-PVTZ AUX)
    Blend: AUG-CC-PVTZ-JKFIT
	 Reference Energy          =    -168.9959569354858786 [Eh]
	 Singles Energy            =      -0.0000000000000000 [Eh]
	 Same-Spin Energy          =      -0.1617996724338675 [Eh]
	 Opposite-Spin Energy      =      -0.5032054128849692 [Eh]
	 Correlation Energy        =      -0.6650050853188367 [Eh]
	 Total Energy              =    -169.6609620208047033 [Eh]

	 ================> DF-SCS-MP2 Energies <==================
	-----------------------------------------------------------
	 SCS Same-Spin Scale       =       0.3333333333333333 [-]
	 SCS Opposite-Spin Scale   =       1.2000000000000000 [-]
	 SCS Same-Spin Energy      =      -0.0539332241446225 [Eh]
	 SCS Opposite-Spin Energy  =      -0.6038464954619630 [Eh]
	 SCS Correlation Energy    =      -0.6577797196065855 [Eh]
	 SCS Total Energy          =    -169.6537366550924730 [Eh]
	-----------------------------------------------------------

  Dipole Moment: [D]
     X:    -3.8848      Y:    -0.4976      Z:     0.0000     Total:     3.9165

*** Psi4 exiting successfully. Buy a developer a beer!
