                               Psi4 1.3.2 release

  ==> Input File <==

--------------------------------------------------------------------------
#psi4
#
memory 32 gb

molecule  {
0 1
  C        0.0000000     0.4225390     0.0000000
  H       -0.4408170     1.4355830     0.0000000
  O        1.2082730     0.2220110     0.0000000
  N       -0.9482900    -0.5548660     0.0000000
  H       -0.6242900    -1.6173686     0.0000000
  H       -1.9338820    -0.3411310     0.0000000
units angstrom
no_reorient  #important for SAPT in psi4, default
symmetry c1  #important for SAPT in psi4, default
}

set PROPERTIES_ORIGIN ["COM"]
properties('MP2/aug-cc-pvtz', properties = ['dipole'])
--------------------------------------------------------------------------

    Molecular point group: c1
  Charge       = 0
  Multiplicity = 1
  Basis Set: AUG-CC-PVTZ
    Blend: AUG-CC-PVTZ
  Basis Set: (AUG-CC-PVTZ AUX)
    Blend: AUG-CC-PVTZ-JKFIT

    Orbital Energies [Eh]
    ---------------------

    Doubly Occupied:

       1A    -20.530590     2A    -15.607246     3A    -11.360490
       4A     -1.378088     5A     -1.209095     6A     -0.842434
       7A     -0.744845     8A     -0.658768     9A     -0.602099
      10A     -0.568213    11A     -0.437169    12A     -0.420368

  @DF-RHF Final Energy:  -168.99278233699951

   => Energetics <=

    Nuclear Repulsion Energy =             70.4018135263126794
    One-Electron Energy =                -370.0703760789974694
    Two-Electron Energy =                 130.6757802156852506
    Total Energy =                       -168.9927823369995110
  Basis Set: (AUG-CC-PVTZ AUX)
    Blend: AUG-CC-PVTZ-RI
    Molecular point group: c1

    Geometry (in Angstrom), charge = 0, multiplicity = 1:

       Center              X                  Y                   Z               Mass
    ------------   -----------------  -----------------  -----------------  -----------------
         C           -0.067185559707     0.415327397733     0.000000000000    12.000000000000
         H           -0.508002559707     1.428371397733     0.000000000000     1.007825032230
         O            1.141087440293     0.214799397733     0.000000000000    15.994914619570
         N           -1.015475559707    -0.562077602267     0.000000000000    14.003074004430
         H           -0.691475559707    -1.624580202267     0.000000000000     1.007825032230
         H           -2.001067559707    -0.348342602267     0.000000000000     1.007825032230

  Basis Set: AUG-CC-PVTZ
    Blend: AUG-CC-PVTZ
  Basis Set: (AUG-CC-PVTZ AUX)
    Blend: AUG-CC-PVTZ-JKFIT
	 Reference Energy          =    -168.9927823369995110 [Eh]
	 Singles Energy            =      -0.0000000000000000 [Eh]
	 Same-Spin Energy          =      -0.1629976838935337 [Eh]
	 Opposite-Spin Energy      =      -0.5061273781533093 [Eh]
	 Correlation Energy        =      -0.6691250620468430 [Eh]
	 Total Energy              =    -169.6619073990463562 [Eh]

	 ================> DF-SCS-MP2 Energies <==================
	-----------------------------------------------------------
	 SCS Same-Spin Scale       =       0.3333333333333333 [-]
	 SCS Opposite-Spin Scale   =       1.2000000000000000 [-]
	 SCS Same-Spin Energy      =      -0.0543325612978446 [Eh]
	 SCS Opposite-Spin Energy  =      -0.6073528537839712 [Eh]
	 SCS Correlation Energy    =      -0.6616854150818158 [Eh]
	 SCS Total Energy          =    -169.6544677520813309 [Eh]
	-----------------------------------------------------------

  Dipole Moment: [D]
     X:    -3.8387      Y:    -0.6982      Z:     0.0000     Total:     3.9017

*** Psi4 exiting successfully. Buy a developer a beer!
