                               Psi4 1.4a3.dev225

  ==> Input File <==

--------------------------------------------------------------------------
#psi4
#
memory 32 gb

molecule  {
0 1
  C       -0.1579540     0.3921460     0.0013640
  H       -0.1292430     1.4965190    -0.0005320
  O       -1.2030400    -0.2462730     0.0044980
  N        1.0701148    -0.1518983    -0.0294326
  H        1.9134840     0.4048590     0.1056440
  H        1.1690290    -1.1640930     0.0599600
units angstrom
no_reorient  #important for SAPT in psi4, default
symmetry c1  #important for SAPT in psi4, default
}

set PROPERTIES_ORIGIN ["COM"]
properties('MP2/aug-cc-pvtz', properties = ['dipole'])
--------------------------------------------------------------------------

    Molecular point group: c1
  Charge       = 0
  Multiplicity = 1
  Basis Set: AUG-CC-PVTZ
    Blend: AUG-CC-PVTZ
  Basis Set: (AUG-CC-PVTZ AUX)
    Blend: AUG-CC-PVTZ-JKFIT

    Orbital Energies [Eh]
    ---------------------

    Doubly Occupied:

       1A    -20.529099     2A    -15.602044     3A    -11.358234
       4A     -1.379917     5A     -1.223581     6A     -0.854799
       7A     -0.750128     8A     -0.672740     9A     -0.603769
      10A     -0.572666    11A     -0.437255    12A     -0.422799

  @DF-RHF Final Energy:  -169.00250185041801

   => Energetics <=

    Nuclear Repulsion Energy =             71.1148591435721187
    One-Electron Energy =                -371.4206635348211876
    Two-Electron Energy =                 131.3033025408310550
    Total Energy =                       -169.0025018504180139
  Basis Set: (AUG-CC-PVTZ AUX)
    Blend: AUG-CC-PVTZ-RI
    Molecular point group: c1

    Geometry (in Angstrom), charge = 0, multiplicity = 1:

       Center              X                  Y                   Z               Mass
    ------------   -----------------  -----------------  -----------------  -----------------
         C           -0.087394456822     0.405858403246     0.004861666296    12.000000000000
         H           -0.058683456822     1.510231403246     0.002965666296     1.007825032230
         O           -1.132480456822    -0.232560596754     0.007995666296    15.994914619570
         N            1.140674343178    -0.138185896754    -0.025934933704    14.003074004430
         H            1.984043543178     0.418571403246     0.109141666296     1.007825032230
         H            1.239588543178    -1.150380596754     0.063457666296     1.007825032230

  Basis Set: AUG-CC-PVTZ
    Blend: AUG-CC-PVTZ
  Basis Set: (AUG-CC-PVTZ AUX)
    Blend: AUG-CC-PVTZ-JKFIT
	 Reference Energy          =    -169.0025018504180139 [Eh]
	 Singles Energy            =      -0.0000000000000000 [Eh]
	 Same-Spin Energy          =      -0.1624252826664211 [Eh]
	 Opposite-Spin Energy      =      -0.5044469597017290 [Eh]
	 Correlation Energy        =      -0.6668722423681501 [Eh]
	 Total Energy              =    -169.6693740927861711 [Eh]

	 ================> DF-SCS-MP2 Energies <==================
	-----------------------------------------------------------
	 SCS Same-Spin Scale       =       0.3333333333333333 [-]
	 SCS Opposite-Spin Scale   =       1.2000000000000000 [-]
	 SCS Same-Spin Energy      =      -0.0541417608888070 [Eh]
	 SCS Opposite-Spin Energy  =      -0.6053363516420748 [Eh]
	 SCS Correlation Energy    =      -0.6594781125308818 [Eh]
	 SCS Total Energy          =    -169.6619799629488909 [Eh]
	-----------------------------------------------------------

  Dipole Moment: [D]
     X:     3.8770      Y:     0.8691      Z:     0.3226     Total:     3.9863

*** Psi4 exiting successfully. Buy a developer a beer!
