                               Psi4 1.4a3.dev225

  ==> Input File <==

--------------------------------------------------------------------------
#psi4
#
memory 32 gb

molecule  {
0 1
  C       -0.1579540     0.3921460     0.0013640
  H       -0.1292430     1.4965190    -0.0005320
  O       -1.2030400    -0.2462730     0.0044980
  N        1.0426931    -0.1397502    -0.0287449
  H        1.9134840     0.4048590     0.1056440
  H        1.1690290    -1.1640930     0.0599600
units angstrom
no_reorient  #important for SAPT in psi4, default
symmetry c1  #important for SAPT in psi4, default
}

set PROPERTIES_ORIGIN ["COM"]
properties('MP2/aug-cc-pvtz', properties = ['dipole'])
--------------------------------------------------------------------------

    Molecular point group: c1
  Charge       = 0
  Multiplicity = 1
  Basis Set: AUG-CC-PVTZ
    Blend: AUG-CC-PVTZ
  Basis Set: (AUG-CC-PVTZ AUX)
    Blend: AUG-CC-PVTZ-JKFIT

    Orbital Energies [Eh]
    ---------------------

    Doubly Occupied:

       1A    -20.523291     2A    -15.605874     3A    -11.353311
       4A     -1.379207     5A     -1.228844     6A     -0.857396
       7A     -0.750674     8A     -0.670877     9A     -0.596517
      10A     -0.577330    11A     -0.434083    12A     -0.421503

  @DF-RHF Final Energy:  -168.99946872657225

   => Energetics <=

    Nuclear Repulsion Energy =             71.5621481882835297
    One-Electron Energy =                -372.3254208448836948
    Two-Electron Energy =                 131.7638039300279331
    Total Energy =                       -168.9994687265722462
  Basis Set: (AUG-CC-PVTZ AUX)
    Blend: AUG-CC-PVTZ-RI
    Molecular point group: c1

    Geometry (in Angstrom), charge = 0, multiplicity = 1:

       Center              X                  Y                   Z               Mass
    ------------   -----------------  -----------------  -----------------  -----------------
         C           -0.078865456147     0.402079966713     0.004647770230    12.000000000000
         H           -0.050154456147     1.506452966713     0.002751770230     1.007825032230
         O           -1.123951456147    -0.236339033287     0.007781770230    15.994914619570
         N            1.121781643853    -0.129816233287    -0.025461129770    14.003074004430
         H            1.992572543853     0.414792966713     0.108927770230     1.007825032230
         H            1.248117543853    -1.154159033287     0.063243770230     1.007825032230

  Basis Set: AUG-CC-PVTZ
    Blend: AUG-CC-PVTZ
  Basis Set: (AUG-CC-PVTZ AUX)
    Blend: AUG-CC-PVTZ-JKFIT
	 Reference Energy          =    -168.9994687265722462 [Eh]
	 Singles Energy            =      -0.0000000000000000 [Eh]
	 Same-Spin Energy          =      -0.1625992929873747 [Eh]
	 Opposite-Spin Energy      =      -0.5043815132846913 [Eh]
	 Correlation Energy        =      -0.6669808062720660 [Eh]
	 Total Energy              =    -169.6664495328443252 [Eh]

	 ================> DF-SCS-MP2 Energies <==================
	-----------------------------------------------------------
	 SCS Same-Spin Scale       =       0.3333333333333333 [-]
	 SCS Opposite-Spin Scale   =       1.2000000000000000 [-]
	 SCS Same-Spin Energy      =      -0.0541997643291249 [Eh]
	 SCS Opposite-Spin Energy  =      -0.6052578159416295 [Eh]
	 SCS Correlation Energy    =      -0.6594575802707544 [Eh]
	 SCS Total Energy          =    -169.6589263068430000 [Eh]
	-----------------------------------------------------------

  Dipole Moment: [D]
     X:     4.0660      Y:     0.8291      Z:     0.3153     Total:     4.1616

*** Psi4 exiting successfully. Buy a developer a beer!
