                               Psi4 1.4a3.dev225

  ==> Input File <==

--------------------------------------------------------------------------
#psi4
#
memory 32 gb

molecule  {
0 1
  C       -0.1579540     0.3921460     0.0013640
  H       -0.1292430     1.4965190    -0.0005320
  O       -1.2030400    -0.2462730     0.0044980
  N        1.1066772    -0.1680957    -0.0303494
  H        1.9134840     0.4048590     0.1056440
  H        1.1690290    -1.1640930     0.0599600
units angstrom
no_reorient  #important for SAPT in psi4, default
symmetry c1  #important for SAPT in psi4, default
}

set PROPERTIES_ORIGIN ["COM"]
properties('MP2/aug-cc-pvtz', properties = ['dipole'])
--------------------------------------------------------------------------

    Molecular point group: c1
  Charge       = 0
  Multiplicity = 1
  Basis Set: AUG-CC-PVTZ
    Blend: AUG-CC-PVTZ
  Basis Set: (AUG-CC-PVTZ AUX)
    Blend: AUG-CC-PVTZ-JKFIT

    Orbital Energies [Eh]
    ---------------------

    Doubly Occupied:

       1A    -20.536557     2A    -15.597002     3A    -11.364358
       4A     -1.381642     5A     -1.217097     6A     -0.851534
       7A     -0.750816     8A     -0.673557     9A     -0.612623
      10A     -0.567412    11A     -0.440933    12A     -0.424136

  @DF-RHF Final Energy:  -169.00236315315709

   => Energetics <=

    Nuclear Repulsion Energy =             70.5474601829228618
    One-Electron Energy =                -370.2643125094110133
    Two-Electron Energy =                 130.7144891733310601
    Total Energy =                       -169.0023631531570913
  Basis Set: (AUG-CC-PVTZ AUX)
    Blend: AUG-CC-PVTZ-RI
    Molecular point group: c1

    Geometry (in Angstrom), charge = 0, multiplicity = 1:

       Center              X                  Y                   Z               Mass
    ------------   -----------------  -----------------  -----------------  -----------------
         C           -0.098766499191     0.410896297889     0.005146819581    12.000000000000
         H           -0.070055499191     1.515269297889     0.003250819581     1.007825032230
         O           -1.143852499191    -0.227522702111     0.008280819581    15.994914619570
         N            1.165864700809    -0.149345402111    -0.026566580419    14.003074004430
         H            1.972671500809     0.423609297889     0.109426819581     1.007825032230
         H            1.228216500809    -1.145342702111     0.063742819581     1.007825032230

  Basis Set: AUG-CC-PVTZ
    Blend: AUG-CC-PVTZ
  Basis Set: (AUG-CC-PVTZ AUX)
    Blend: AUG-CC-PVTZ-JKFIT
	 Reference Energy          =    -169.0023631531570913 [Eh]
	 Singles Energy            =      -0.0000000000000000 [Eh]
	 Same-Spin Energy          =      -0.1622677815389381 [Eh]
	 Opposite-Spin Energy      =      -0.5046890360440063 [Eh]
	 Correlation Energy        =      -0.6669568175829445 [Eh]
	 Total Energy              =    -169.6693199707400481 [Eh]

	 ================> DF-SCS-MP2 Energies <==================
	-----------------------------------------------------------
	 SCS Same-Spin Scale       =       0.3333333333333333 [-]
	 SCS Opposite-Spin Scale   =       1.2000000000000000 [-]
	 SCS Same-Spin Energy      =      -0.0540892605129794 [Eh]
	 SCS Opposite-Spin Energy  =      -0.6056268432528075 [Eh]
	 SCS Correlation Energy    =      -0.6597161037657868 [Eh]
	 SCS Total Energy          =    -169.6620792569228797 [Eh]
	-----------------------------------------------------------

  Dipole Moment: [D]
     X:     3.6276      Y:     0.9249      Z:     0.3329     Total:     3.7584

*** Psi4 exiting successfully. Buy a developer a beer!
