                               Psi4 1.3.2 release

  ==> Input File <==

--------------------------------------------------------------------------
#psi4
#
memory 32 gb

molecule  {
0 1
  C        0.0000000     0.4225390     0.0000000
  H       -0.5442941     1.3839555     0.0000000
  O        1.2082730     0.2220110     0.0000000
  N       -0.9482900    -0.5548660     0.0000000
  H       -0.6534580    -1.5217170     0.0000000
  H       -1.9338820    -0.3411310     0.0000000
units angstrom
no_reorient  #important for SAPT in psi4, default
symmetry c1  #important for SAPT in psi4, default
}

set PROPERTIES_ORIGIN ["COM"]
properties('MP2/aug-cc-pvtz', properties = ['dipole'])
--------------------------------------------------------------------------

    Molecular point group: c1
  Charge       = 0
  Multiplicity = 1
  Basis Set: AUG-CC-PVTZ
    Blend: AUG-CC-PVTZ
  Basis Set: (AUG-CC-PVTZ AUX)
    Blend: AUG-CC-PVTZ-JKFIT

    Orbital Energies [Eh]
    ---------------------

    Doubly Occupied:

       1A    -20.534765     2A    -15.598262     3A    -11.362665
       4A     -1.380991     5A     -1.221230     6A     -0.857570
       7A     -0.751094     8A     -0.667307     9A     -0.610855
      10A     -0.570528    11A     -0.439886    12A     -0.423179

  @DF-RHF Final Energy:  -169.00054541835800

   => Energetics <=

    Nuclear Repulsion Energy =             70.8675482777716184
    One-Electron Energy =                -370.8995197928343259
    Two-Electron Energy =                 131.0314260967047062
    Total Energy =                       -169.0005454183580014
  Basis Set: (AUG-CC-PVTZ AUX)
    Blend: AUG-CC-PVTZ-RI
    Molecular point group: c1

    Geometry (in Angstrom), charge = 0, multiplicity = 1:

       Center              X                  Y                   Z               Mass
    ------------   -----------------  -----------------  -----------------  -----------------
         C           -0.064216241494     0.414341899122     0.000000000000    12.000000000000
         H           -0.608510341494     1.375758399122     0.000000000000     1.007825032230
         O            1.144056758506     0.213813899122     0.000000000000    15.994914619570
         N           -1.012506241494    -0.563063100878     0.000000000000    14.003074004430
         H           -0.717674241494    -1.529914100878     0.000000000000     1.007825032230
         H           -1.998098241494    -0.349328100878     0.000000000000     1.007825032230

  Basis Set: AUG-CC-PVTZ
    Blend: AUG-CC-PVTZ
  Basis Set: (AUG-CC-PVTZ AUX)
    Blend: AUG-CC-PVTZ-JKFIT
	 Reference Energy          =    -169.0005454183580014 [Eh]
	 Singles Energy            =      -0.0000000000000000 [Eh]
	 Same-Spin Energy          =      -0.1626307499401834 [Eh]
	 Opposite-Spin Energy      =      -0.5050198982063564 [Eh]
	 Correlation Energy        =      -0.6676506481465398 [Eh]
	 Total Energy              =    -169.6681960665045494 [Eh]

	 ================> DF-SCS-MP2 Energies <==================
	-----------------------------------------------------------
	 SCS Same-Spin Scale       =       0.3333333333333333 [-]
	 SCS Opposite-Spin Scale   =       1.2000000000000000 [-]
	 SCS Same-Spin Energy      =      -0.0542102499800611 [Eh]
	 SCS Opposite-Spin Energy  =      -0.6060238778476277 [Eh]
	 SCS Correlation Energy    =      -0.6602341278276889 [Eh]
	 SCS Total Energy          =    -169.6607795461856938 [Eh]
	-----------------------------------------------------------

  Dipole Moment: [D]
     X:    -3.8651      Y:    -0.6329      Z:    -0.0000     Total:     3.9166

*** Psi4 exiting successfully. Buy a developer a beer!
