                               Psi4 1.3.2 release

  ==> Input File <==

--------------------------------------------------------------------------
#psi4
#
memory 32 gb

molecule  {
0 1
  C        0.0000000     0.4225390     0.0000000
  H       -0.4408170     1.4355830     0.0000000
  O        1.2193178     0.3067843     0.0000000
  N       -0.9482900    -0.5548660     0.0000000
  H       -0.6534580    -1.5217170     0.0000000
  H       -1.9338820    -0.3411310     0.0000000
units angstrom
no_reorient  #important for SAPT in psi4, default
symmetry c1  #important for SAPT in psi4, default
}

set PROPERTIES_ORIGIN ["COM"]
properties('MP2/aug-cc-pvtz', properties = ['dipole'])
--------------------------------------------------------------------------

    Molecular point group: c1
  Charge       = 0
  Multiplicity = 1
  Basis Set: AUG-CC-PVTZ
    Blend: AUG-CC-PVTZ
  Basis Set: (AUG-CC-PVTZ AUX)
    Blend: AUG-CC-PVTZ-JKFIT

    Orbital Energies [Eh]
    ---------------------

    Doubly Occupied:

       1A    -20.532785     2A    -15.603336     3A    -11.360957
       4A     -1.378813     5A     -1.224721     6A     -0.853110
       7A     -0.753200     8A     -0.675994     9A     -0.607107
      10A     -0.570018    11A     -0.435885    12A     -0.425686

  @DF-RHF Final Energy:  -169.00192930032142

   => Energetics <=

    Nuclear Repulsion Energy =             70.6046102616193707
    One-Electron Energy =                -370.3698537977642786
    Two-Electron Energy =                 130.7633142358234863
    Total Energy =                       -169.0019293003214216
  Basis Set: (AUG-CC-PVTZ AUX)
    Blend: AUG-CC-PVTZ-RI
    Molecular point group: c1

    Geometry (in Angstrom), charge = 0, multiplicity = 1:

       Center              X                  Y                   Z               Mass
    ------------   -----------------  -----------------  -----------------  -----------------
         C           -0.070456541596     0.383068522691     0.000000000000    12.000000000000
         H           -0.511273541596     1.396112522691     0.000000000000     1.007825032230
         O            1.148861258404     0.267313822691     0.000000000000    15.994914619570
         N           -1.018746541596    -0.594336477309     0.000000000000    14.003074004430
         H           -0.723914541596    -1.561187477309     0.000000000000     1.007825032230
         H           -2.004338541596    -0.380601477309     0.000000000000     1.007825032230

  Basis Set: AUG-CC-PVTZ
    Blend: AUG-CC-PVTZ
  Basis Set: (AUG-CC-PVTZ AUX)
    Blend: AUG-CC-PVTZ-JKFIT
	 Reference Energy          =    -169.0019293003214216 [Eh]
	 Singles Energy            =      -0.0000000000000000 [Eh]
	 Same-Spin Energy          =      -0.1623395647219474 [Eh]
	 Opposite-Spin Energy      =      -0.5045650940935029 [Eh]
	 Correlation Energy        =      -0.6669046588154504 [Eh]
	 Total Energy              =    -169.6688339591368617 [Eh]

	 ================> DF-SCS-MP2 Energies <==================
	-----------------------------------------------------------
	 SCS Same-Spin Scale       =       0.3333333333333333 [-]
	 SCS Opposite-Spin Scale   =       1.2000000000000000 [-]
	 SCS Same-Spin Energy      =      -0.0541131882406491 [Eh]
	 SCS Opposite-Spin Energy  =      -0.6054781129122034 [Eh]
	 SCS Correlation Energy    =      -0.6595913011528526 [Eh]
	 SCS Total Energy          =    -169.6615206014742796 [Eh]
	-----------------------------------------------------------

  Dipole Moment: [D]
     X:    -3.8891      Y:    -0.8166      Z:     0.0000     Total:     3.9739

*** Psi4 exiting successfully. Buy a developer a beer!
