                               Psi4 1.3.2 release

  ==> Input File <==

--------------------------------------------------------------------------
#psi4
#
memory 32 gb

molecule  {
0 1
  C        0.0000000     0.4225390     0.0000000
  H       -0.4408170     1.4355830     0.0000000
  O        1.3069236     0.2056387     0.0000000
  N       -0.9482900    -0.5548660     0.0000000
  H       -0.6534580    -1.5217170     0.0000000
  H       -1.9338820    -0.3411310     0.0000000
units angstrom
no_reorient  #important for SAPT in psi4, default
symmetry c1  #important for SAPT in psi4, default
}

set PROPERTIES_ORIGIN ["COM"]
properties('MP2/aug-cc-pvtz', properties = ['dipole'])
--------------------------------------------------------------------------

    Molecular point group: c1
  Charge       = 0
  Multiplicity = 1
  Basis Set: AUG-CC-PVTZ
    Blend: AUG-CC-PVTZ
  Basis Set: (AUG-CC-PVTZ AUX)
    Blend: AUG-CC-PVTZ-JKFIT

    Orbital Energies [Eh]
    ---------------------

    Doubly Occupied:

       1A    -20.530595     2A    -15.616110     3A    -11.379827
       4A     -1.326547     5A     -1.223160     6A     -0.868041
       7A     -0.756563     8A     -0.670929     9A     -0.581140
      10A     -0.553339    11A     -0.433386    12A     -0.414155

  @DF-RHF Final Energy:  -168.98023480992001

   => Energetics <=

    Nuclear Repulsion Energy =             68.6340980516408621
    One-Electron Energy =                -366.5210835592834542
    Two-Electron Energy =                 128.9067506977225719
    Total Energy =                       -168.9802348099200060
  Basis Set: (AUG-CC-PVTZ AUX)
    Blend: AUG-CC-PVTZ-RI
    Molecular point group: c1

    Geometry (in Angstrom), charge = 0, multiplicity = 1:

       Center              X                  Y                   Z               Mass
    ------------   -----------------  -----------------  -----------------  -----------------
         C           -0.101580525033     0.419002832739     0.000000000000    12.000000000000
         H           -0.542397525033     1.432046832739     0.000000000000     1.007825032230
         O            1.205343074967     0.202102532739     0.000000000000    15.994914619570
         N           -1.049870525033    -0.558402167261     0.000000000000    14.003074004430
         H           -0.755038525033    -1.525253167261     0.000000000000     1.007825032230
         H           -2.035462525033    -0.344667167261     0.000000000000     1.007825032230

  Basis Set: AUG-CC-PVTZ
    Blend: AUG-CC-PVTZ
  Basis Set: (AUG-CC-PVTZ AUX)
    Blend: AUG-CC-PVTZ-JKFIT
	 Reference Energy          =    -168.9802348099200060 [Eh]
	 Singles Energy            =      -0.0000000000000000 [Eh]
	 Same-Spin Energy          =      -0.1646997760446503 [Eh]
	 Opposite-Spin Energy      =      -0.5105851751651671 [Eh]
	 Correlation Energy        =      -0.6752849512098174 [Eh]
	 Total Energy              =    -169.6555197611298240 [Eh]

	 ================> DF-SCS-MP2 Energies <==================
	-----------------------------------------------------------
	 SCS Same-Spin Scale       =       0.3333333333333333 [-]
	 SCS Opposite-Spin Scale   =       1.2000000000000000 [-]
	 SCS Same-Spin Energy      =      -0.0548999253482168 [Eh]
	 SCS Opposite-Spin Energy  =      -0.6127022101982005 [Eh]
	 SCS Correlation Energy    =      -0.6676021355464172 [Eh]
	 SCS Total Energy          =    -169.6478369454664232 [Eh]
	-----------------------------------------------------------

  Dipole Moment: [D]
     X:    -4.4264      Y:    -0.6491      Z:    -0.0000     Total:     4.4737

*** Psi4 exiting successfully. Buy a developer a beer!
