                               Psi4 1.3.2 release

  ==> Input File <==

--------------------------------------------------------------------------
#psi4
#
memory 32 gb

molecule  {
0 1
  C        0.0000000     0.4225390     0.0000000
  H       -0.4230698     1.4431220     0.0000000
  O        1.2082730     0.2220110     0.0000000
  N       -0.9482900    -0.5548660     0.0000000
  H       -0.6534580    -1.5217170     0.0000000
  H       -1.9338820    -0.3411310     0.0000000
units angstrom
no_reorient  #important for SAPT in psi4, default
symmetry c1  #important for SAPT in psi4, default
}

set PROPERTIES_ORIGIN ["COM"]
properties('MP2/aug-cc-pvtz', properties = ['dipole'])
--------------------------------------------------------------------------

    Molecular point group: c1
  Charge       = 0
  Multiplicity = 1
  Basis Set: AUG-CC-PVTZ
    Blend: AUG-CC-PVTZ
  Basis Set: (AUG-CC-PVTZ AUX)
    Blend: AUG-CC-PVTZ-JKFIT

    Orbital Energies [Eh]
    ---------------------

    Doubly Occupied:

       1A    -20.531247     2A    -15.599873     3A    -11.360835
       4A     -1.379729     5A     -1.220027     6A     -0.853182
       7A     -0.751383     8A     -0.674897     9A     -0.607266
      10A     -0.569559    11A     -0.437770    12A     -0.422447

  @DF-RHF Final Energy:  -169.00314971112235

   => Energetics <=

    Nuclear Repulsion Energy =             70.8378724961582407
    One-Electron Energy =                -370.8656126871119909
    Two-Electron Energy =                 131.0245904798314029
    Total Energy =                       -169.0031497111223473
  Basis Set: (AUG-CC-PVTZ AUX)
    Blend: AUG-CC-PVTZ-RI
    Molecular point group: c1

    Geometry (in Angstrom), charge = 0, multiplicity = 1:

       Center              X                  Y                   Z               Mass
    ------------   -----------------  -----------------  -----------------  -----------------
         C           -0.066929900135     0.413017431305     0.000000000000    12.000000000000
         H           -0.489999700135     1.433600431305     0.000000000000     1.007825032230
         O            1.141343099865     0.212489431305     0.000000000000    15.994914619570
         N           -1.015219900135    -0.564387568695     0.000000000000    14.003074004430
         H           -0.720387900135    -1.531238568695     0.000000000000     1.007825032230
         H           -2.000811900135    -0.350652568695     0.000000000000     1.007825032230

  Basis Set: AUG-CC-PVTZ
    Blend: AUG-CC-PVTZ
  Basis Set: (AUG-CC-PVTZ AUX)
    Blend: AUG-CC-PVTZ-JKFIT
	 Reference Energy          =    -169.0031497111223473 [Eh]
	 Singles Energy            =      -0.0000000000000000 [Eh]
	 Same-Spin Energy          =      -0.1623315740181966 [Eh]
	 Opposite-Spin Energy      =      -0.5044295306241529 [Eh]
	 Correlation Energy        =      -0.6667611046423494 [Eh]
	 Total Energy              =    -169.6699108157646947 [Eh]

	 ================> DF-SCS-MP2 Energies <==================
	-----------------------------------------------------------
	 SCS Same-Spin Scale       =       0.3333333333333333 [-]
	 SCS Opposite-Spin Scale   =       1.2000000000000000 [-]
	 SCS Same-Spin Energy      =      -0.0541105246727322 [Eh]
	 SCS Opposite-Spin Energy  =      -0.6053154367489834 [Eh]
	 SCS Correlation Energy    =      -0.6594259614217155 [Eh]
	 SCS Total Energy          =    -169.6625756725440510 [Eh]
	-----------------------------------------------------------

  Dipole Moment: [D]
     X:    -3.8627      Y:    -0.5929      Z:     0.0000     Total:     3.9080

*** Psi4 exiting successfully. Buy a developer a beer!
