                               Psi4 1.3.2 release

  ==> Input File <==

--------------------------------------------------------------------------
#psi4
#
memory 32 gb

molecule  {
0 1
  C        0.0000000     0.4225390     0.0000000
  H       -0.4408170     1.4355830     0.0000000
  O        1.2082730     0.2220110     0.0000000
  N       -0.8090227    -0.4113229     0.0000000
  H       -0.6534580    -1.5217170     0.0000000
  H       -1.9338820    -0.3411310     0.0000000
units angstrom
no_reorient  #important for SAPT in psi4, default
symmetry c1  #important for SAPT in psi4, default
}

set PROPERTIES_ORIGIN ["COM"]
properties('MP2/aug-cc-pvtz', properties = ['dipole'])
--------------------------------------------------------------------------

    Molecular point group: c1
  Charge       = 0
  Multiplicity = 1
  Basis Set: AUG-CC-PVTZ
    Blend: AUG-CC-PVTZ
  Basis Set: (AUG-CC-PVTZ AUX)
    Blend: AUG-CC-PVTZ-JKFIT

    Orbital Energies [Eh]
    ---------------------

    Doubly Occupied:

       1A    -20.491191     2A    -15.624855     3A    -11.324663
       4A     -1.390398     5A     -1.254085     6A     -0.868847
       7A     -0.761336     8A     -0.653142     9A     -0.612828
      10A     -0.551391    11A     -0.413496    12A     -0.410694

  @DF-RHF Final Energy:  -168.93058032149401

   => Energetics <=

    Nuclear Repulsion Energy =             74.1536184066931696
    One-Electron Energy =                -377.4545464555617968
    Two-Electron Energy =                 134.3703477273746216
    Total Energy =                       -168.9305803214940056
  Basis Set: (AUG-CC-PVTZ AUX)
    Blend: AUG-CC-PVTZ-RI
    Molecular point group: c1

    Geometry (in Angstrom), charge = 0, multiplicity = 1:

       Center              X                  Y                   Z               Mass
    ------------   -----------------  -----------------  -----------------  -----------------
         C           -0.109849078593     0.368539831206     0.000000000000    12.000000000000
         H           -0.550666078593     1.381583831206     0.000000000000     1.007825032230
         O            1.098423921407     0.168011831206     0.000000000000    15.994914619570
         N           -0.918871778593    -0.465322068794     0.000000000000    14.003074004430
         H           -0.763307078593    -1.575716168794     0.000000000000     1.007825032230
         H           -2.043731078593    -0.395130168794     0.000000000000     1.007825032230

  Basis Set: AUG-CC-PVTZ
    Blend: AUG-CC-PVTZ
  Basis Set: (AUG-CC-PVTZ AUX)
    Blend: AUG-CC-PVTZ-JKFIT
	 Reference Energy          =    -168.9305803214940056 [Eh]
	 Singles Energy            =      -0.0000000000000000 [Eh]
	 Same-Spin Energy          =      -0.1642243104765959 [Eh]
	 Opposite-Spin Energy      =      -0.5055989979570842 [Eh]
	 Correlation Energy        =      -0.6698233084336801 [Eh]
	 Total Energy              =    -169.6004036299276834 [Eh]

	 ================> DF-SCS-MP2 Energies <==================
	-----------------------------------------------------------
	 SCS Same-Spin Scale       =       0.3333333333333333 [-]
	 SCS Opposite-Spin Scale   =       1.2000000000000000 [-]
	 SCS Same-Spin Energy      =      -0.0547414368255320 [Eh]
	 SCS Opposite-Spin Energy  =      -0.6067187975485010 [Eh]
	 SCS Correlation Energy    =      -0.6614602343740330 [Eh]
	 SCS Total Energy          =    -169.5920405558680386 [Eh]
	-----------------------------------------------------------

  Dipole Moment: [D]
     X:    -4.9470      Y:    -1.2819      Z:     0.0000     Total:     5.1104

*** Psi4 exiting successfully. Buy a developer a beer!
