                               Psi4 1.3.2 release

  ==> Input File <==

--------------------------------------------------------------------------
#psi4
#
memory 32 gb

molecule  {
0 1
  C        0.0000000     0.4225390     0.0000000
  H       -0.4408170     1.4355830     0.0000000
  O        1.2226148     0.3494084     0.0000000
  N       -0.9482900    -0.5548660     0.0000000
  H       -0.6534580    -1.5217170     0.0000000
  H       -1.9338820    -0.3411310     0.0000000
units angstrom
no_reorient  #important for SAPT in psi4, default
symmetry c1  #important for SAPT in psi4, default
}

set PROPERTIES_ORIGIN ["COM"]
properties('MP2/aug-cc-pvtz', properties = ['dipole'])
--------------------------------------------------------------------------

    Molecular point group: c1
  Charge       = 0
  Multiplicity = 1
  Basis Set: AUG-CC-PVTZ
    Blend: AUG-CC-PVTZ
  Basis Set: (AUG-CC-PVTZ AUX)
    Blend: AUG-CC-PVTZ-JKFIT

    Orbital Energies [Eh]
    ---------------------

    Doubly Occupied:

       1A    -20.533255     2A    -15.605113     3A    -11.360924
       4A     -1.378431     5A     -1.226838     6A     -0.852768
       7A     -0.754116     8A     -0.676990     9A     -0.606714
      10A     -0.570229    11A     -0.434370    12A     -0.427159

  @DF-RHF Final Energy:  -169.00048162824976

   => Energetics <=

    Nuclear Repulsion Energy =             70.4988651353618963
    One-Electron Energy =                -370.1448779200331387
    Two-Electron Energy =                 130.6455311564214981
    Total Energy =                       -169.0004816282497586
  Basis Set: (AUG-CC-PVTZ AUX)
    Blend: AUG-CC-PVTZ-RI
    Molecular point group: c1

    Geometry (in Angstrom), charge = 0, multiplicity = 1:

       Center              X                  Y                   Z               Mass
    ------------   -----------------  -----------------  -----------------  -----------------
         C           -0.071627876980     0.367925326893     0.000000000000    12.000000000000
         H           -0.512444876980     1.380969326893     0.000000000000     1.007825032230
         O            1.150986923020     0.294794726893     0.000000000000    15.994914619570
         N           -1.019917876980    -0.609479673107     0.000000000000    14.003074004430
         H           -0.725085876980    -1.576330673107     0.000000000000     1.007825032230
         H           -2.005509876980    -0.395744673107     0.000000000000     1.007825032230

  Basis Set: AUG-CC-PVTZ
    Blend: AUG-CC-PVTZ
  Basis Set: (AUG-CC-PVTZ AUX)
    Blend: AUG-CC-PVTZ-JKFIT
	 Reference Energy          =    -169.0004816282497586 [Eh]
	 Singles Energy            =      -0.0000000000000000 [Eh]
	 Same-Spin Energy          =      -0.1623549238949706 [Eh]
	 Opposite-Spin Energy      =      -0.5046586037050260 [Eh]
	 Correlation Energy        =      -0.6670135275999967 [Eh]
	 Total Energy              =    -169.6674951558497639 [Eh]

	 ================> DF-SCS-MP2 Energies <==================
	-----------------------------------------------------------
	 SCS Same-Spin Scale       =       0.3333333333333333 [-]
	 SCS Opposite-Spin Scale   =       1.2000000000000000 [-]
	 SCS Same-Spin Energy      =      -0.0541183079649902 [Eh]
	 SCS Opposite-Spin Energy  =      -0.6055903244460312 [Eh]
	 SCS Correlation Energy    =      -0.6597086324110214 [Eh]
	 SCS Total Energy          =    -169.6601902606607837 [Eh]
	-----------------------------------------------------------

  Dipole Moment: [D]
     X:    -3.8950      Y:    -0.9255      Z:     0.0000     Total:     4.0034

*** Psi4 exiting successfully. Buy a developer a beer!
