                               Psi4 1.3.2 release

  ==> Input File <==

--------------------------------------------------------------------------
#psi4
#
memory 32 gb

molecule  {
0 1
  C        0.0000000     0.4225390     0.0000000
  H       -0.4408170     1.4355830     0.0000000
  O        1.2082730     0.2220110     0.0000000
  N       -1.0179236    -0.6266376     0.0000000
  H       -0.6534580    -1.5217170     0.0000000
  H       -1.9338820    -0.3411310     0.0000000
units angstrom
no_reorient  #important for SAPT in psi4, default
symmetry c1  #important for SAPT in psi4, default
}

set PROPERTIES_ORIGIN ["COM"]
properties('MP2/aug-cc-pvtz', properties = ['dipole'])
--------------------------------------------------------------------------

    Molecular point group: c1
  Charge       = 0
  Multiplicity = 1
  Basis Set: AUG-CC-PVTZ
    Blend: AUG-CC-PVTZ
  Basis Set: (AUG-CC-PVTZ AUX)
    Blend: AUG-CC-PVTZ-JKFIT

    Orbital Energies [Eh]
    ---------------------

    Doubly Occupied:

       1A    -20.549351     2A    -15.587248     3A    -11.374907
       4A     -1.385805     5A     -1.206366     6A     -0.846818
       7A     -0.759900     8A     -0.669461     9A     -0.626716
      10A     -0.559564    11A     -0.444957    12A     -0.424556

  @DF-RHF Final Energy:  -168.98983475884557

   => Energetics <=

    Nuclear Repulsion Energy =             69.5169036317593765
    One-Electron Energy =                -368.1421776360913896
    Two-Electron Energy =                 129.6354392454864524
    Total Energy =                       -168.9898347588455749
  Basis Set: (AUG-CC-PVTZ AUX)
    Blend: AUG-CC-PVTZ-RI
    Molecular point group: c1

    Geometry (in Angstrom), charge = 0, multiplicity = 1:

       Center              X                  Y                   Z               Mass
    ------------   -----------------  -----------------  -----------------  -----------------
         C           -0.044874408280     0.435509392593     0.000000000000    12.000000000000
         H           -0.485691408280     1.448553392593     0.000000000000     1.007825032230
         O            1.163398591720     0.234981392593     0.000000000000    15.994914619570
         N           -1.062798008280    -0.613667207407     0.000000000000    14.003074004430
         H           -0.698332408280    -1.508746607407     0.000000000000     1.007825032230
         H           -1.978756408280    -0.328160607407     0.000000000000     1.007825032230

  Basis Set: AUG-CC-PVTZ
    Blend: AUG-CC-PVTZ
  Basis Set: (AUG-CC-PVTZ AUX)
    Blend: AUG-CC-PVTZ-JKFIT
	 Reference Energy          =    -168.9898347588455749 [Eh]
	 Singles Energy            =      -0.0000000000000000 [Eh]
	 Same-Spin Energy          =      -0.1622458439471858 [Eh]
	 Opposite-Spin Energy      =      -0.5056344144194633 [Eh]
	 Correlation Energy        =      -0.6678802583666491 [Eh]
	 Total Energy              =    -169.6577150172122117 [Eh]

	 ================> DF-SCS-MP2 Energies <==================
	-----------------------------------------------------------
	 SCS Same-Spin Scale       =       0.3333333333333333 [-]
	 SCS Opposite-Spin Scale   =       1.2000000000000000 [-]
	 SCS Same-Spin Energy      =      -0.0540819479823953 [Eh]
	 SCS Opposite-Spin Energy  =      -0.6067612973033559 [Eh]
	 SCS Correlation Energy    =      -0.6608432452857512 [Eh]
	 SCS Total Energy          =    -169.6506780041313220 [Eh]
	-----------------------------------------------------------

  Dipole Moment: [D]
     X:    -3.3507      Y:    -0.2347      Z:    -0.0000     Total:     3.3589

*** Psi4 exiting successfully. Buy a developer a beer!
