                               Psi4 1.4a3.dev225

  ==> Input File <==

--------------------------------------------------------------------------
#psi4
#
memory 32 gb

molecule  {
0 1
  C       -0.1579540     0.3921460     0.0013640
  H       -0.1292430     1.4965190    -0.0005320
  O       -1.2457084    -0.2723381     0.0046260
  N        1.0883960    -0.1599970    -0.0298910
  H        1.9134840     0.4048590     0.1056440
  H        1.1690290    -1.1640930     0.0599600
units angstrom
no_reorient  #important for SAPT in psi4, default
symmetry c1  #important for SAPT in psi4, default
}

set PROPERTIES_ORIGIN ["COM"]
properties('MP2/aug-cc-pvtz', properties = ['dipole'])
--------------------------------------------------------------------------

    Molecular point group: c1
  Charge       = 0
  Multiplicity = 1
  Basis Set: AUG-CC-PVTZ
    Blend: AUG-CC-PVTZ
  Basis Set: (AUG-CC-PVTZ AUX)
    Blend: AUG-CC-PVTZ-JKFIT

    Orbital Energies [Eh]
    ---------------------

    Doubly Occupied:

       1A    -20.532517     2A    -15.607775     3A    -11.371199
       4A     -1.351629     5A     -1.222838     6A     -0.860306
       7A     -0.752287     8A     -0.671236     9A     -0.595500
      10A     -0.560221    11A     -0.437234    12A     -0.419898

  @DF-RHF Final Energy:  -168.99387534276212

   => Energetics <=

    Nuclear Repulsion Energy =             69.6883855408748758
    One-Electron Energy =                -368.5992430922280505
    Two-Electron Energy =                 129.9169822085910369
    Total Energy =                       -168.9938753427621236
  Basis Set: (AUG-CC-PVTZ AUX)
    Blend: AUG-CC-PVTZ-RI
    Molecular point group: c1

    Geometry (in Angstrom), charge = 0, multiplicity = 1:

       Center              X                  Y                   Z               Mass
    ------------   -----------------  -----------------  -----------------  -----------------
         C           -0.077921543610     0.417637579236     0.004958767983    12.000000000000
         H           -0.049210543610     1.522010579236     0.003062767983     1.007825032230
         O           -1.165675943610    -0.246846520764     0.008220767983    15.994914619570
         N            1.168428456390    -0.134505420764    -0.026296232017    14.003074004430
         H            1.993516456390     0.430350579236     0.109238767983     1.007825032230
         H            1.249061456390    -1.138601420764     0.063554767983     1.007825032230

  Basis Set: AUG-CC-PVTZ
    Blend: AUG-CC-PVTZ
  Basis Set: (AUG-CC-PVTZ AUX)
    Blend: AUG-CC-PVTZ-JKFIT
	 Reference Energy          =    -168.9938753427621236 [Eh]
	 Singles Energy            =      -0.0000000000000000 [Eh]
	 Same-Spin Energy          =      -0.1635476145485455 [Eh]
	 Opposite-Spin Energy      =      -0.5076657662640240 [Eh]
	 Correlation Energy        =      -0.6712133808125695 [Eh]
	 Total Energy              =    -169.6650887235746836 [Eh]

	 ================> DF-SCS-MP2 Energies <==================
	-----------------------------------------------------------
	 SCS Same-Spin Scale       =       0.3333333333333333 [-]
	 SCS Opposite-Spin Scale   =       1.2000000000000000 [-]
	 SCS Same-Spin Energy      =      -0.0545158715161818 [Eh]
	 SCS Opposite-Spin Energy  =      -0.6091989195168288 [Eh]
	 SCS Correlation Energy    =      -0.6637147910330107 [Eh]
	 SCS Total Energy          =    -169.6575901337951393 [Eh]
	-----------------------------------------------------------

  Dipole Moment: [D]
     X:     4.0295      Y:     0.9820      Z:     0.3231     Total:     4.1600

*** Psi4 exiting successfully. Buy a developer a beer!
