                               Psi4 1.3.2 release

  ==> Input File <==

--------------------------------------------------------------------------
#psi4
#
memory 32 gb

molecule  {
0 1
  C        0.0000000     0.4225390     0.0000000
  H       -0.4408170     1.4355830     0.0000000
  O        1.1913416     0.1382146     0.0000000
  N       -0.9482900    -0.5548660     0.0000000
  H       -0.6534580    -1.5217170     0.0000000
  H       -1.9338820    -0.3411310     0.0000000
units angstrom
no_reorient  #important for SAPT in psi4, default
symmetry c1  #important for SAPT in psi4, default
}

set PROPERTIES_ORIGIN ["COM"]
properties('MP2/aug-cc-pvtz', properties = ['dipole'])
--------------------------------------------------------------------------

    Molecular point group: c1
  Charge       = 0
  Multiplicity = 1
  Basis Set: AUG-CC-PVTZ
    Blend: AUG-CC-PVTZ
  Basis Set: (AUG-CC-PVTZ AUX)
    Blend: AUG-CC-PVTZ-JKFIT

    Orbital Energies [Eh]
    ---------------------

    Doubly Occupied:

       1A    -20.530562     2A    -15.595721     3A    -11.361342
       4A     -1.381385     5A     -1.215110     6A     -0.854571
       7A     -0.749342     8A     -0.671368     9A     -0.608559
      10A     -0.569478    11A     -0.439413    12A     -0.419097

  @DF-RHF Final Energy:  -169.00186219337712

   => Energetics <=

    Nuclear Repulsion Energy =             71.1102677359291846
    One-Electron Energy =                -371.4323655785999563
    Two-Electron Energy =                 131.3202356492936360
    Total Energy =                       -169.0018621933771215
  Basis Set: (AUG-CC-PVTZ AUX)
    Blend: AUG-CC-PVTZ-RI
    Molecular point group: c1

    Geometry (in Angstrom), charge = 0, multiplicity = 1:

       Center              X                  Y                   Z               Mass
    ------------   -----------------  -----------------  -----------------  -----------------
         C           -0.060517350521     0.442956801217     0.000000000000    12.000000000000
         H           -0.501334350521     1.456000801217     0.000000000000     1.007825032230
         O            1.130824249479     0.158632401217     0.000000000000    15.994914619570
         N           -1.008807350521    -0.534448198783     0.000000000000    14.003074004430
         H           -0.713975350521    -1.501299198783     0.000000000000     1.007825032230
         H           -1.994399350521    -0.320713198783     0.000000000000     1.007825032230

  Basis Set: AUG-CC-PVTZ
    Blend: AUG-CC-PVTZ
  Basis Set: (AUG-CC-PVTZ AUX)
    Blend: AUG-CC-PVTZ-JKFIT
	 Reference Energy          =    -169.0018621933771215 [Eh]
	 Singles Energy            =      -0.0000000000000000 [Eh]
	 Same-Spin Energy          =      -0.1624595743341314 [Eh]
	 Opposite-Spin Energy      =      -0.5045843679019260 [Eh]
	 Correlation Energy        =      -0.6670439422360575 [Eh]
	 Total Energy              =    -169.6689061356131845 [Eh]

	 ================> DF-SCS-MP2 Energies <==================
	-----------------------------------------------------------
	 SCS Same-Spin Scale       =       0.3333333333333333 [-]
	 SCS Opposite-Spin Scale   =       1.2000000000000000 [-]
	 SCS Same-Spin Energy      =      -0.0541531914447105 [Eh]
	 SCS Opposite-Spin Energy  =      -0.6055012414823111 [Eh]
	 SCS Correlation Energy    =      -0.6596544329270215 [Eh]
	 SCS Total Energy          =    -169.6615166263041488 [Eh]
	-----------------------------------------------------------

  Dipole Moment: [D]
     X:    -3.8196      Y:    -0.3802      Z:     0.0000     Total:     3.8384

*** Psi4 exiting successfully. Buy a developer a beer!
