                               Psi4 1.3.2 release

  ==> Input File <==

--------------------------------------------------------------------------
#psi4
#
memory 32 gb

molecule  {
0 1
  C        0.0000000     0.4225390     0.0000000
  H       -0.4408170     1.4355830     0.0000000
  O        1.2082730     0.2220110     0.0000000
  N       -1.0875573    -0.6984091     0.0000000
  H       -0.6534580    -1.5217170     0.0000000
  H       -1.9338820    -0.3411310     0.0000000
units angstrom
no_reorient  #important for SAPT in psi4, default
symmetry c1  #important for SAPT in psi4, default
}

set PROPERTIES_ORIGIN ["COM"]
properties('MP2/aug-cc-pvtz', properties = ['dipole'])
--------------------------------------------------------------------------

    Molecular point group: c1
  Charge       = 0
  Multiplicity = 1
  Basis Set: AUG-CC-PVTZ
    Blend: AUG-CC-PVTZ
  Basis Set: (AUG-CC-PVTZ AUX)
    Blend: AUG-CC-PVTZ-JKFIT

    Orbital Energies [Eh]
    ---------------------

    Doubly Occupied:

       1A    -20.564588     2A    -15.576931     3A    -11.385457
       4A     -1.393058     5A     -1.197109     6A     -0.843309
       7A     -0.777787     8A     -0.657591     9A     -0.636402
      10A     -0.554861    11A     -0.445969    12A     -0.424870

  @DF-RHF Final Energy:  -168.95663167245689

   => Energetics <=

    Nuclear Repulsion Energy =             68.3356705659119257
    One-Electron Energy =                -365.6687383093098447
    Two-Electron Energy =                 128.3764360709410255
    Total Energy =                       -168.9566316724568935
  Basis Set: (AUG-CC-PVTZ AUX)
    Blend: AUG-CC-PVTZ-RI
    Molecular point group: c1

    Geometry (in Angstrom), charge = 0, multiplicity = 1:

       Center              X                  Y                   Z               Mass
    ------------   -----------------  -----------------  -----------------  -----------------
         C           -0.023216164106     0.457832558986     0.000000000000    12.000000000000
         H           -0.464033164106     1.470876558986     0.000000000000     1.007825032230
         O            1.185056835894     0.257304558986     0.000000000000    15.994914619570
         N           -1.110773464106    -0.663115541014     0.000000000000    14.003074004430
         H           -0.676674164106    -1.486423441014     0.000000000000     1.007825032230
         H           -1.957098164106    -0.305837441014     0.000000000000     1.007825032230

  Basis Set: AUG-CC-PVTZ
    Blend: AUG-CC-PVTZ
  Basis Set: (AUG-CC-PVTZ AUX)
    Blend: AUG-CC-PVTZ-JKFIT
	 Reference Energy          =    -168.9566316724568935 [Eh]
	 Singles Energy            =      -0.0000000000000000 [Eh]
	 Same-Spin Energy          =      -0.1626385361954868 [Eh]
	 Opposite-Spin Energy      =      -0.5077991293443518 [Eh]
	 Correlation Energy        =      -0.6704376655398386 [Eh]
	 Total Energy              =    -169.6270693379967440 [Eh]

	 ================> DF-SCS-MP2 Energies <==================
	-----------------------------------------------------------
	 SCS Same-Spin Scale       =       0.3333333333333333 [-]
	 SCS Opposite-Spin Scale   =       1.2000000000000000 [-]
	 SCS Same-Spin Energy      =      -0.0542128453984956 [Eh]
	 SCS Opposite-Spin Energy  =      -0.6093589552132221 [Eh]
	 SCS Correlation Energy    =      -0.6635718006117177 [Eh]
	 SCS Total Energy          =    -169.6202034730686137 [Eh]
	-----------------------------------------------------------

  Dipole Moment: [D]
     X:    -2.8594      Y:     0.1307      Z:     0.0000     Total:     2.8624

*** Psi4 exiting successfully. Buy a developer a beer!
