                               Psi4 1.4a3.dev225

  ==> Input File <==

--------------------------------------------------------------------------
#psi4
#
memory 32 gb

molecule  {
0 1
  C       -0.1579540     0.3921460     0.0013640
  H       -0.1297628     1.4765258    -0.0004977
  O       -1.2030400    -0.2462730     0.0044980
  N        1.0883960    -0.1599970    -0.0298910
  H        1.9134840     0.4048590     0.1056440
  H        1.1690290    -1.1640930     0.0599600
units angstrom
no_reorient  #important for SAPT in psi4, default
symmetry c1  #important for SAPT in psi4, default
}

set PROPERTIES_ORIGIN ["COM"]
properties('MP2/aug-cc-pvtz', properties = ['dipole'])
--------------------------------------------------------------------------

    Molecular point group: c1
  Charge       = 0
  Multiplicity = 1
  Basis Set: AUG-CC-PVTZ
    Blend: AUG-CC-PVTZ
  Basis Set: (AUG-CC-PVTZ AUX)
    Blend: AUG-CC-PVTZ-JKFIT

    Orbital Energies [Eh]
    ---------------------

    Doubly Occupied:

       1A    -20.532313     2A    -15.599134     3A    -11.359032
       4A     -1.380409     5A     -1.220071     6A     -0.856477
       7A     -0.750893     8A     -0.674658     9A     -0.609195
      10A     -0.569597    11A     -0.439699    12A     -0.423173

  @DF-RHF Final Energy:  -169.00318649818308

   => Energetics <=

    Nuclear Repulsion Energy =             70.9136808876166782
    One-Electron Energy =                -371.0044328534162901
    Two-Electron Energy =                 131.0875654676165141
    Total Energy =                       -169.0031864981830836
  Basis Set: (AUG-CC-PVTZ AUX)
    Blend: AUG-CC-PVTZ-RI
    Molecular point group: c1

    Geometry (in Angstrom), charge = 0, multiplicity = 1:

       Center              X                  Y                   Z               Mass
    ------------   -----------------  -----------------  -----------------  -----------------
         C           -0.093068842057     0.408824907039     0.005003475118    12.000000000000
         H           -0.064877642057     1.493204707039     0.003141775118     1.007825032230
         O           -1.138154842057    -0.229594092961     0.008137475118    15.994914619570
         N            1.153281157943    -0.143318092961    -0.026251524882    14.003074004430
         H            1.978369157943     0.421537907039     0.109283475118     1.007825032230
         H            1.233914157943    -1.147414092961     0.063599475118     1.007825032230

  Basis Set: AUG-CC-PVTZ
    Blend: AUG-CC-PVTZ
  Basis Set: (AUG-CC-PVTZ AUX)
    Blend: AUG-CC-PVTZ-JKFIT
	 Reference Energy          =    -169.0031864981830836 [Eh]
	 Singles Energy            =      -0.0000000000000000 [Eh]
	 Same-Spin Energy          =      -0.1622762135108908 [Eh]
	 Opposite-Spin Energy      =      -0.5044311884238044 [Eh]
	 Correlation Energy        =      -0.6667074019346952 [Eh]
	 Total Energy              =    -169.6698939001177848 [Eh]

	 ================> DF-SCS-MP2 Energies <==================
	-----------------------------------------------------------
	 SCS Same-Spin Scale       =       0.3333333333333333 [-]
	 SCS Opposite-Spin Scale   =       1.2000000000000000 [-]
	 SCS Same-Spin Energy      =      -0.0540920711702969 [Eh]
	 SCS Opposite-Spin Energy  =      -0.6053174261085653 [Eh]
	 SCS Correlation Energy    =      -0.6594094972788622 [Eh]
	 SCS Total Energy          =    -169.6625959954619418 [Eh]
	-----------------------------------------------------------

  Dipole Moment: [D]
     X:     3.7571      Y:     0.9162      Z:     0.3279     Total:     3.8810

*** Psi4 exiting successfully. Buy a developer a beer!
