                               Psi4 1.3.2 release

  ==> Input File <==

--------------------------------------------------------------------------
#psi4
#
memory 32 gb

molecule  {
0 1
  C        0.0000000     0.4225390     0.0000000
  H       -0.5206175     1.6189730     0.0000000
  O        1.2082730     0.2220110     0.0000000
  N       -0.9482900    -0.5548660     0.0000000
  H       -0.6534580    -1.5217170     0.0000000
  H       -1.9338820    -0.3411310     0.0000000
units angstrom
no_reorient  #important for SAPT in psi4, default
symmetry c1  #important for SAPT in psi4, default
}

set PROPERTIES_ORIGIN ["COM"]
properties('MP2/aug-cc-pvtz', properties = ['dipole'])
--------------------------------------------------------------------------

    Molecular point group: c1
  Charge       = 0
  Multiplicity = 1
  Basis Set: AUG-CC-PVTZ
    Blend: AUG-CC-PVTZ
  Basis Set: (AUG-CC-PVTZ AUX)
    Blend: AUG-CC-PVTZ-JKFIT

    Orbital Energies [Eh]
    ---------------------

    Doubly Occupied:

       1A    -20.539031     2A    -15.604307     3A    -11.382671
       4A     -1.384272     5A     -1.223027     6A     -0.833497
       7A     -0.746258     8A     -0.663831     9A     -0.595403
      10A     -0.573853    11A     -0.430936    12A     -0.427161

  @DF-RHF Final Energy:  -168.98237302256348

   => Energetics <=

    Nuclear Repulsion Energy =             70.0863848691900415
    One-Electron Energy =                -369.3290248096230926
    Two-Electron Energy =                 130.2602669178695578
    Total Energy =                       -168.9823730225634790
  Basis Set: (AUG-CC-PVTZ AUX)
    Blend: AUG-CC-PVTZ-RI
    Molecular point group: c1

    Geometry (in Angstrom), charge = 0, multiplicity = 1:

       Center              X                  Y                   Z               Mass
    ------------   -----------------  -----------------  -----------------  -----------------
         C           -0.064746252475     0.409080930243     0.000000000000    12.000000000000
         H           -0.585363752475     1.605514930243     0.000000000000     1.007825032230
         O            1.143526747525     0.208552930243     0.000000000000    15.994914619570
         N           -1.013036252475    -0.568324069757     0.000000000000    14.003074004430
         H           -0.718204252475    -1.535175069757     0.000000000000     1.007825032230
         H           -1.998628252475    -0.354589069757     0.000000000000     1.007825032230

  Basis Set: AUG-CC-PVTZ
    Blend: AUG-CC-PVTZ
  Basis Set: (AUG-CC-PVTZ AUX)
    Blend: AUG-CC-PVTZ-JKFIT
	 Reference Energy          =    -168.9823730225634790 [Eh]
	 Singles Energy            =      -0.0000000000000000 [Eh]
	 Same-Spin Energy          =      -0.1631864140587558 [Eh]
	 Opposite-Spin Energy      =      -0.5066705523748702 [Eh]
	 Correlation Energy        =      -0.6698569664336260 [Eh]
	 Total Energy              =    -169.6522299889971066 [Eh]

	 ================> DF-SCS-MP2 Energies <==================
	-----------------------------------------------------------
	 SCS Same-Spin Scale       =       0.3333333333333333 [-]
	 SCS Opposite-Spin Scale   =       1.2000000000000000 [-]
	 SCS Same-Spin Energy      =      -0.0543954713529186 [Eh]
	 SCS Opposite-Spin Energy  =      -0.6080046628498442 [Eh]
	 SCS Correlation Energy    =      -0.6624001342027628 [Eh]
	 SCS Total Energy          =    -169.6447731567662345 [Eh]
	-----------------------------------------------------------

  Dipole Moment: [D]
     X:    -3.7080      Y:    -0.8242      Z:    -0.0000     Total:     3.7984

*** Psi4 exiting successfully. Buy a developer a beer!
