                               Psi4 1.4a3.dev225

  ==> Input File <==

--------------------------------------------------------------------------
#psi4
#
memory 32 gb

molecule  {
0 1
  C       -0.1579540     0.3921460     0.0013640
  H       -0.1292430     1.4965190    -0.0005320
  O       -1.2030400    -0.2462730     0.0044980
  N        1.0883960    -0.1599970    -0.0298910
  H        1.9298376     0.4160547     0.1083304
  H        1.1690290    -1.1640930     0.0599600
units angstrom
no_reorient  #important for SAPT in psi4, default
symmetry c1  #important for SAPT in psi4, default
}

set PROPERTIES_ORIGIN ["COM"]
properties('MP2/aug-cc-pvtz', properties = ['dipole'])
--------------------------------------------------------------------------

    Molecular point group: c1
  Charge       = 0
  Multiplicity = 1
  Basis Set: AUG-CC-PVTZ
    Blend: AUG-CC-PVTZ
  Basis Set: (AUG-CC-PVTZ AUX)
    Blend: AUG-CC-PVTZ-JKFIT

    Orbital Energies [Eh]
    ---------------------

    Doubly Occupied:

       1A    -20.532756     2A    -15.601270     3A    -11.361245
       4A     -1.380467     5A     -1.217518     6A     -0.852065
       7A     -0.745296     8A     -0.673042     9A     -0.607163
      10A     -0.569668    11A     -0.438968    12A     -0.423150

  @DF-RHF Final Energy:  -169.00195341095002

   => Energetics <=

    Nuclear Repulsion Energy =             70.7322170385275086
    One-Electron Energy =                -370.6631254886924012
    Two-Electron Energy =                 130.9289550392148840
    Total Energy =                       -169.0019534109500228
  Basis Set: (AUG-CC-PVTZ AUX)
    Blend: AUG-CC-PVTZ-RI
    Molecular point group: c1

    Geometry (in Angstrom), charge = 0, multiplicity = 1:

       Center              X                  Y                   Z               Mass
    ------------   -----------------  -----------------  -----------------  -----------------
         C           -0.093446560450     0.408126729957     0.004944106707    12.000000000000
         H           -0.064735560450     1.512499729957     0.003048106707     1.007825032230
         O           -1.138532560450    -0.230292270043     0.008078106707    15.994914619570
         N            1.152903439550    -0.144016270043    -0.026310893293    14.003074004430
         H            1.994345039550     0.432035429957     0.111910506707     1.007825032230
         H            1.233536439550    -1.148112270043     0.063540106707     1.007825032230

  Basis Set: AUG-CC-PVTZ
    Blend: AUG-CC-PVTZ
  Basis Set: (AUG-CC-PVTZ AUX)
    Blend: AUG-CC-PVTZ-JKFIT
	 Reference Energy          =    -169.0019534109500228 [Eh]
	 Singles Energy            =      -0.0000000000000000 [Eh]
	 Same-Spin Energy          =      -0.1624568867375936 [Eh]
	 Opposite-Spin Energy      =      -0.5048720545089485 [Eh]
	 Correlation Energy        =      -0.6673289412465420 [Eh]
	 Total Energy              =    -169.6692823521965749 [Eh]

	 ================> DF-SCS-MP2 Energies <==================
	-----------------------------------------------------------
	 SCS Same-Spin Scale       =       0.3333333333333333 [-]
	 SCS Opposite-Spin Scale   =       1.2000000000000000 [-]
	 SCS Same-Spin Energy      =      -0.0541522955791979 [Eh]
	 SCS Opposite-Spin Energy  =      -0.6058464654107382 [Eh]
	 SCS Correlation Energy    =      -0.6599987609899360 [Eh]
	 SCS Total Energy          =    -169.6619521719399586 [Eh]
	-----------------------------------------------------------

  Dipole Moment: [D]
     X:     3.7682      Y:     0.9063      Z:     0.3300     Total:     3.8897

*** Psi4 exiting successfully. Buy a developer a beer!
