                               Psi4 1.3.2 release

  ==> Input File <==

--------------------------------------------------------------------------
#psi4
#
memory 32 gb

molecule  {
0 1
  C        0.0000000     0.4225390     0.0000000
  H       -0.3610165     1.2521930     0.0000000
  O        1.2082730     0.2220110     0.0000000
  N       -0.9482900    -0.5548660     0.0000000
  H       -0.6534580    -1.5217170     0.0000000
  H       -1.9338820    -0.3411310     0.0000000
units angstrom
no_reorient  #important for SAPT in psi4, default
symmetry c1  #important for SAPT in psi4, default
}

set PROPERTIES_ORIGIN ["COM"]
properties('MP2/aug-cc-pvtz', properties = ['dipole'])
--------------------------------------------------------------------------

    Molecular point group: c1
  Charge       = 0
  Multiplicity = 1
  Basis Set: AUG-CC-PVTZ
    Blend: AUG-CC-PVTZ
  Basis Set: (AUG-CC-PVTZ AUX)
    Blend: AUG-CC-PVTZ-JKFIT

    Orbital Energies [Eh]
    ---------------------

    Doubly Occupied:

       1A    -20.527558     2A    -15.596762     3A    -11.337421
       4A     -1.378624     5A     -1.219349     6A     -0.899884
       7A     -0.757828     8A     -0.686582     9A     -0.614058
      10A     -0.567532    11A     -0.442594    12A     -0.419587

  @DF-RHF Final Energy:  -168.97233481161041

   => Energetics <=

    Nuclear Repulsion Energy =             71.8290050919332970
    One-Electron Energy =                -372.7071209835738159
    Two-Electron Energy =                 131.9057810800300956
    Total Energy =                       -168.9723348116104091
  Basis Set: (AUG-CC-PVTZ AUX)
    Blend: AUG-CC-PVTZ-RI
    Molecular point group: c1

    Geometry (in Angstrom), charge = 0, multiplicity = 1:

       Center              X                  Y                   Z               Mass
    ------------   -----------------  -----------------  -----------------  -----------------
         C           -0.068318990225     0.417291459949     0.000000000000    12.000000000000
         H           -0.429335490225     1.246945459949     0.000000000000     1.007825032230
         O            1.139954009775     0.216763459949     0.000000000000    15.994914619570
         N           -1.016608990225    -0.560113540051     0.000000000000    14.003074004430
         H           -0.721776990225    -1.526964540051     0.000000000000     1.007825032230
         H           -2.002200990225    -0.346378540051     0.000000000000     1.007825032230

  Basis Set: AUG-CC-PVTZ
    Blend: AUG-CC-PVTZ
  Basis Set: (AUG-CC-PVTZ AUX)
    Blend: AUG-CC-PVTZ-JKFIT
	 Reference Energy          =    -168.9723348116104091 [Eh]
	 Singles Energy            =      -0.0000000000000000 [Eh]
	 Same-Spin Energy          =      -0.1620237644604030 [Eh]
	 Opposite-Spin Energy      =      -0.5042034873408394 [Eh]
	 Correlation Energy        =      -0.6662272518012424 [Eh]
	 Total Energy              =    -169.6385620634116549 [Eh]

	 ================> DF-SCS-MP2 Energies <==================
	-----------------------------------------------------------
	 SCS Same-Spin Scale       =       0.3333333333333333 [-]
	 SCS Opposite-Spin Scale   =       1.2000000000000000 [-]
	 SCS Same-Spin Energy      =      -0.0540079214868010 [Eh]
	 SCS Opposite-Spin Energy  =      -0.6050441848090072 [Eh]
	 SCS Correlation Energy    =      -0.6590521062958082 [Eh]
	 SCS Total Energy          =    -169.6313869179062124 [Eh]
	-----------------------------------------------------------

  Dipole Moment: [D]
     X:    -3.9592      Y:    -0.4868      Z:    -0.0000     Total:     3.9891

*** Psi4 exiting successfully. Buy a developer a beer!
