                               Psi4 1.4a3.dev225

  ==> Input File <==

--------------------------------------------------------------------------
#psi4
#
memory 32 gb

molecule  {
0 1
  C       -0.1579540     0.3921460     0.0013640
  H       -0.1292430     1.4965190    -0.0005320
  O       -1.1859726    -0.2358469     0.0044468
  N        1.0883960    -0.1599970    -0.0298910
  H        1.9134840     0.4048590     0.1056440
  H        1.1690290    -1.1640930     0.0599600
units angstrom
no_reorient  #important for SAPT in psi4, default
symmetry c1  #important for SAPT in psi4, default
}

set PROPERTIES_ORIGIN ["COM"]
properties('MP2/aug-cc-pvtz', properties = ['dipole'])
--------------------------------------------------------------------------

    Molecular point group: c1
  Charge       = 0
  Multiplicity = 1
  Basis Set: AUG-CC-PVTZ
    Blend: AUG-CC-PVTZ
  Basis Set: (AUG-CC-PVTZ AUX)
    Blend: AUG-CC-PVTZ-JKFIT

    Orbital Energies [Eh]
    ---------------------

    Doubly Occupied:

       1A    -20.532910     2A    -15.596157     3A    -11.357229
       4A     -1.393420     5A     -1.218845     6A     -0.850212
       7A     -0.749824     8A     -0.674710     9A     -0.613164
      10A     -0.574718    11A     -0.439622    12A     -0.424602

  @DF-RHF Final Energy:  -169.00487708883338

   => Energetics <=

    Nuclear Repulsion Energy =             71.3045066805310910
    One-Electron Energy =                -371.7679431416307807
    Two-Electron Energy =                 131.4585593722663361
    Total Energy =                       -169.0048770888333820
  Basis Set: (AUG-CC-PVTZ AUX)
    Blend: AUG-CC-PVTZ-RI
    Molecular point group: c1

    Geometry (in Angstrom), charge = 0, multiplicity = 1:

       Center              X                  Y                   Z               Mass
    ------------   -----------------  -----------------  -----------------  -----------------
         C           -0.099144065976     0.404673237783     0.005022432921    12.000000000000
         H           -0.070433065976     1.509046237783     0.003126432921     1.007825032230
         O           -1.127162665976    -0.223319662217     0.008105232921    15.994914619570
         N            1.147205934024    -0.147469762217    -0.026232567079    14.003074004430
         H            1.972293934024     0.417386237783     0.109302432921     1.007825032230
         H            1.227838934024    -1.151565762217     0.063618432921     1.007825032230

  Basis Set: AUG-CC-PVTZ
    Blend: AUG-CC-PVTZ
  Basis Set: (AUG-CC-PVTZ AUX)
    Blend: AUG-CC-PVTZ-JKFIT
	 Reference Energy          =    -169.0048770888333820 [Eh]
	 Singles Energy            =      -0.0000000000000000 [Eh]
	 Same-Spin Energy          =      -0.1618482966809452 [Eh]
	 Opposite-Spin Energy      =      -0.5032953752635846 [Eh]
	 Correlation Energy        =      -0.6651436719445297 [Eh]
	 Total Energy              =    -169.6700207607779021 [Eh]

	 ================> DF-SCS-MP2 Energies <==================
	-----------------------------------------------------------
	 SCS Same-Spin Scale       =       0.3333333333333333 [-]
	 SCS Opposite-Spin Scale   =       1.2000000000000000 [-]
	 SCS Same-Spin Energy      =      -0.0539494322269817 [Eh]
	 SCS Opposite-Spin Energy  =      -0.6039544503163015 [Eh]
	 SCS Correlation Energy    =      -0.6579038825432831 [Eh]
	 SCS Total Energy          =    -169.6627809713766624 [Eh]
	-----------------------------------------------------------

  Dipole Moment: [D]
     X:     3.6351      Y:     0.8599      Z:     0.3296     Total:     3.7499

*** Psi4 exiting successfully. Buy a developer a beer!
