                               Psi4 1.4a3.dev225

  ==> Input File <==

--------------------------------------------------------------------------
#psi4
#
memory 32 gb

molecule  {
0 1
  C       -0.1579540     0.3921460     0.0013640
  H       -0.1305424     1.4465360    -0.0004462
  O       -1.2030400    -0.2462730     0.0044980
  N        1.0883960    -0.1599970    -0.0298910
  H        1.9134840     0.4048590     0.1056440
  H        1.1690290    -1.1640930     0.0599600
units angstrom
no_reorient  #important for SAPT in psi4, default
symmetry c1  #important for SAPT in psi4, default
}

set PROPERTIES_ORIGIN ["COM"]
properties('MP2/aug-cc-pvtz', properties = ['dipole'])
--------------------------------------------------------------------------

    Molecular point group: c1
  Charge       = 0
  Multiplicity = 1
  Basis Set: AUG-CC-PVTZ
    Blend: AUG-CC-PVTZ
  Basis Set: (AUG-CC-PVTZ AUX)
    Blend: AUG-CC-PVTZ-JKFIT

    Orbital Energies [Eh]
    ---------------------

    Doubly Occupied:

       1A    -20.531535     2A    -15.598608     3A    -11.355496
       4A     -1.380053     5A     -1.219838     6A     -0.862027
       7A     -0.751878     8A     -0.676556     9A     -0.610383
      10A     -0.569179    11A     -0.440438    12A     -0.422677

  @DF-RHF Final Energy:  -169.00247164077200

   => Energetics <=

    Nuclear Repulsion Energy =             71.0478900314330701
    One-Electron Energy =                -371.2633857351013944
    Two-Electron Energy =                 131.2130240628963520
    Total Energy =                       -169.0024716407720007
  Basis Set: (AUG-CC-PVTZ AUX)
    Blend: AUG-CC-PVTZ-RI
    Molecular point group: c1

    Geometry (in Angstrom), charge = 0, multiplicity = 1:

       Center              X                  Y                   Z               Mass
    ------------   -----------------  -----------------  -----------------  -----------------
         C           -0.093051390373     0.409496241746     0.005002322268    12.000000000000
         H           -0.065639790373     1.463886241746     0.003192122268     1.007825032230
         O           -1.138137390373    -0.228922758254     0.008136322268    15.994914619570
         N            1.153298609627    -0.142646758254    -0.026252677732    14.003074004430
         H            1.978386609627     0.422209241746     0.109282322268     1.007825032230
         H            1.233931609627    -1.146742758254     0.063598322268     1.007825032230

  Basis Set: AUG-CC-PVTZ
    Blend: AUG-CC-PVTZ
  Basis Set: (AUG-CC-PVTZ AUX)
    Blend: AUG-CC-PVTZ-JKFIT
	 Reference Energy          =    -169.0024716407720007 [Eh]
	 Singles Energy            =      -0.0000000000000000 [Eh]
	 Same-Spin Energy          =      -0.1621964232908830 [Eh]
	 Opposite-Spin Energy      =      -0.5042959426987296 [Eh]
	 Correlation Energy        =      -0.6664923659896126 [Eh]
	 Total Energy              =    -169.6689640067616267 [Eh]

	 ================> DF-SCS-MP2 Energies <==================
	-----------------------------------------------------------
	 SCS Same-Spin Scale       =       0.3333333333333333 [-]
	 SCS Opposite-Spin Scale   =       1.2000000000000000 [-]
	 SCS Same-Spin Energy      =      -0.0540654744302943 [Eh]
	 SCS Opposite-Spin Energy  =      -0.6051551312384754 [Eh]
	 SCS Correlation Energy    =      -0.6592206056687697 [Eh]
	 SCS Total Energy          =    -169.6616922464407651 [Eh]
	-----------------------------------------------------------

  Dipole Moment: [D]
     X:     3.7646      Y:     0.9429      Z:     0.3281     Total:     3.8947

*** Psi4 exiting successfully. Buy a developer a beer!
