                               Psi4 1.4a3.dev225

  ==> Input File <==

--------------------------------------------------------------------------
#psi4
#
memory 32 gb

molecule  {
0 1
  C       -0.1579540     0.3921460     0.0013640
  H       -0.1287232     1.5165122    -0.0005663
  O       -1.2030400    -0.2462730     0.0044980
  N        1.0883960    -0.1599970    -0.0298910
  H        1.9134840     0.4048590     0.1056440
  H        1.1690290    -1.1640930     0.0599600
units angstrom
no_reorient  #important for SAPT in psi4, default
symmetry c1  #important for SAPT in psi4, default
}

set PROPERTIES_ORIGIN ["COM"]
properties('MP2/aug-cc-pvtz', properties = ['dipole'])
--------------------------------------------------------------------------

    Molecular point group: c1
  Charge       = 0
  Multiplicity = 1
  Basis Set: AUG-CC-PVTZ
    Blend: AUG-CC-PVTZ
  Basis Set: (AUG-CC-PVTZ AUX)
    Blend: AUG-CC-PVTZ-JKFIT

    Orbital Energies [Eh]
    ---------------------

    Doubly Occupied:

       1A    -20.533459     2A    -15.599900     3A    -11.363662
       4A     -1.380996     5A     -1.220455     6A     -0.850045
       7A     -0.749616     8A     -0.672194     9A     -0.607376
      10A     -0.570224    11A     -0.438632    12A     -0.423884

  @DF-RHF Final Energy:  -169.00233820676803

   => Energetics <=

    Nuclear Repulsion Energy =             70.7430493936601010
    One-Electron Energy =                -370.6698867682018772
    Two-Electron Energy =                 130.9244991677737460
    Total Energy =                       -169.0023382067680302
  Basis Set: (AUG-CC-PVTZ AUX)
    Blend: AUG-CC-PVTZ-RI
    Molecular point group: c1

    Geometry (in Angstrom), charge = 0, multiplicity = 1:

       Center              X                  Y                   Z               Mass
    ------------   -----------------  -----------------  -----------------  -----------------
         C           -0.093092113955     0.407929794096     0.005005010759    12.000000000000
         H           -0.063861313955     1.532295994096     0.003074710759     1.007825032230
         O           -1.138178113955    -0.230489205904     0.008139010759    15.994914619570
         N            1.153257886045    -0.144213205904    -0.026249989241    14.003074004430
         H            1.978345886045     0.420642794096     0.109285010759     1.007825032230
         H            1.233890886045    -1.148309205904     0.063601010759     1.007825032230

  Basis Set: AUG-CC-PVTZ
    Blend: AUG-CC-PVTZ
  Basis Set: (AUG-CC-PVTZ AUX)
    Blend: AUG-CC-PVTZ-JKFIT
	 Reference Energy          =    -169.0023382067680302 [Eh]
	 Singles Energy            =      -0.0000000000000000 [Eh]
	 Same-Spin Energy          =      -0.1624006617938206 [Eh]
	 Opposite-Spin Energy      =      -0.5046812038709686 [Eh]
	 Correlation Energy        =      -0.6670818656647892 [Eh]
	 Total Energy              =    -169.6694200724328141 [Eh]

	 ================> DF-SCS-MP2 Energies <==================
	-----------------------------------------------------------
	 SCS Same-Spin Scale       =       0.3333333333333333 [-]
	 SCS Opposite-Spin Scale   =       1.2000000000000000 [-]
	 SCS Same-Spin Energy      =      -0.0541335539312735 [Eh]
	 SCS Opposite-Spin Energy  =      -0.6056174446451623 [Eh]
	 SCS Correlation Energy    =      -0.6597509985764358 [Eh]
	 SCS Total Energy          =    -169.6620892053444720 [Eh]
	-----------------------------------------------------------

  Dipole Moment: [D]
     X:     3.7466      Y:     0.8759      Z:     0.3275     Total:     3.8616

*** Psi4 exiting successfully. Buy a developer a beer!
