                               Psi4 1.3.2 release

  ==> Input File <==

--------------------------------------------------------------------------
#psi4
#
memory 32 gb

molecule  {
0 1
  C        0.0000000     0.4225390     0.0000000
  H       -0.4408170     1.4355830     0.0000000
  O        1.2145353     0.2643013     0.0000000
  N       -0.9482900    -0.5548660     0.0000000
  H       -0.6534580    -1.5217170     0.0000000
  H       -1.9338820    -0.3411310     0.0000000
units angstrom
no_reorient  #important for SAPT in psi4, default
symmetry c1  #important for SAPT in psi4, default
}

set PROPERTIES_ORIGIN ["COM"]
properties('MP2/aug-cc-pvtz', properties = ['dipole'])
--------------------------------------------------------------------------

    Molecular point group: c1
  Charge       = 0
  Multiplicity = 1
  Basis Set: AUG-CC-PVTZ
    Blend: AUG-CC-PVTZ
  Basis Set: (AUG-CC-PVTZ AUX)
    Blend: AUG-CC-PVTZ-JKFIT

    Orbital Energies [Eh]
    ---------------------

    Doubly Occupied:

       1A    -20.532283     2A    -15.601509     3A    -11.361013
       4A     -1.379296     5A     -1.222493     6A     -0.853459
       7A     -0.752262     8A     -0.674939     9A     -0.607490
      10A     -0.569834    11A     -0.437147    12A     -0.424146

  @DF-RHF Final Energy:  -169.00280083981161

   => Energetics <=

    Nuclear Repulsion Energy =             70.7183930715196283
    One-Electron Energy =                -370.6106495885971412
    Two-Electron Energy =                 130.8894556772658859
    Total Energy =                       -169.0028008398116128
  Basis Set: (AUG-CC-PVTZ AUX)
    Blend: AUG-CC-PVTZ-RI
    Molecular point group: c1

    Geometry (in Angstrom), charge = 0, multiplicity = 1:

       Center              X                  Y                   Z               Mass
    ------------   -----------------  -----------------  -----------------  -----------------
         C           -0.068757448034     0.398161589456     0.000000000000    12.000000000000
         H           -0.509574448034     1.411205589456     0.000000000000     1.007825032230
         O            1.145777851966     0.239923889456     0.000000000000    15.994914619570
         N           -1.017047448034    -0.579243410544     0.000000000000    14.003074004430
         H           -0.722215448034    -1.546094410544     0.000000000000     1.007825032230
         H           -2.002639448034    -0.365508410544     0.000000000000     1.007825032230

  Basis Set: AUG-CC-PVTZ
    Blend: AUG-CC-PVTZ
  Basis Set: (AUG-CC-PVTZ AUX)
    Blend: AUG-CC-PVTZ-JKFIT
	 Reference Energy          =    -169.0028008398116128 [Eh]
	 Singles Energy            =      -0.0000000000000000 [Eh]
	 Same-Spin Energy          =      -0.1623420811728418 [Eh]
	 Opposite-Spin Energy      =      -0.5045094112397837 [Eh]
	 Correlation Energy        =      -0.6668514924126254 [Eh]
	 Total Energy              =    -169.6696523322242456 [Eh]

	 ================> DF-SCS-MP2 Energies <==================
	-----------------------------------------------------------
	 SCS Same-Spin Scale       =       0.3333333333333333 [-]
	 SCS Opposite-Spin Scale   =       1.2000000000000000 [-]
	 SCS Same-Spin Energy      =      -0.0541140270576139 [Eh]
	 SCS Opposite-Spin Energy  =      -0.6054112934877404 [Eh]
	 SCS Correlation Energy    =      -0.6595253205453543 [Eh]
	 SCS Total Energy          =    -169.6623261603569688 [Eh]
	-----------------------------------------------------------

  Dipole Moment: [D]
     X:    -3.8787      Y:    -0.7073      Z:     0.0000     Total:     3.9427

*** Psi4 exiting successfully. Buy a developer a beer!
