                               Psi4 1.3.2 release

  ==> Input File <==

--------------------------------------------------------------------------
#psi4
#
memory 32 gb

molecule  {
0 1
  C        0.0000000     0.4225390     0.0000000
  H       -0.4051937     1.4503502     0.0000000
  O        1.2082730     0.2220110     0.0000000
  N       -0.9482900    -0.5548660     0.0000000
  H       -0.6534580    -1.5217170     0.0000000
  H       -1.9338820    -0.3411310     0.0000000
units angstrom
no_reorient  #important for SAPT in psi4, default
symmetry c1  #important for SAPT in psi4, default
}

set PROPERTIES_ORIGIN ["COM"]
properties('MP2/aug-cc-pvtz', properties = ['dipole'])
--------------------------------------------------------------------------

    Molecular point group: c1
  Charge       = 0
  Multiplicity = 1
  Basis Set: AUG-CC-PVTZ
    Blend: AUG-CC-PVTZ
  Basis Set: (AUG-CC-PVTZ AUX)
    Blend: AUG-CC-PVTZ-JKFIT

    Orbital Energies [Eh]
    ---------------------

    Doubly Occupied:

       1A    -20.530750     2A    -15.600119     3A    -11.360575
       4A     -1.379587     5A     -1.219918     6A     -0.852546
       7A     -0.751471     8A     -0.675969     9A     -0.606651
      10A     -0.569445    11A     -0.437355    12A     -0.422364

  @DF-RHF Final Energy:  -169.00310952348224

   => Energetics <=

    Nuclear Repulsion Energy =             70.8358640751230269
    One-Electron Energy =                -370.8644468785668664
    Two-Electron Energy =                 131.0254732799616022
    Total Energy =                       -169.0031095234822374
  Basis Set: (AUG-CC-PVTZ AUX)
    Blend: AUG-CC-PVTZ-RI
    Molecular point group: c1

    Geometry (in Angstrom), charge = 0, multiplicity = 1:

       Center              X                  Y                   Z               Mass
    ------------   -----------------  -----------------  -----------------  -----------------
         C           -0.067330064403     0.412855624906     0.000000000000    12.000000000000
         H           -0.472523764403     1.440666824906     0.000000000000     1.007825032230
         O            1.140942935597     0.212327624906     0.000000000000    15.994914619570
         N           -1.015620064403    -0.564549375094     0.000000000000    14.003074004430
         H           -0.720788064403    -1.531400375094     0.000000000000     1.007825032230
         H           -2.001212064403    -0.350814375094     0.000000000000     1.007825032230

  Basis Set: AUG-CC-PVTZ
    Blend: AUG-CC-PVTZ
  Basis Set: (AUG-CC-PVTZ AUX)
    Blend: AUG-CC-PVTZ-JKFIT
	 Reference Energy          =    -169.0031095234822374 [Eh]
	 Singles Energy            =      -0.0000000000000000 [Eh]
	 Same-Spin Energy          =      -0.1623043311115574 [Eh]
	 Opposite-Spin Energy      =      -0.5043731995394215 [Eh]
	 Correlation Energy        =      -0.6666775306509789 [Eh]
	 Total Energy              =    -169.6697870541332236 [Eh]

	 ================> DF-SCS-MP2 Energies <==================
	-----------------------------------------------------------
	 SCS Same-Spin Scale       =       0.3333333333333333 [-]
	 SCS Opposite-Spin Scale   =       1.2000000000000000 [-]
	 SCS Same-Spin Energy      =      -0.0541014437038525 [Eh]
	 SCS Opposite-Spin Energy  =      -0.6052478394473058 [Eh]
	 SCS Correlation Energy    =      -0.6593492831511583 [Eh]
	 SCS Total Energy          =    -169.6624588066333956 [Eh]
	-----------------------------------------------------------

  Dipole Moment: [D]
     X:    -3.8615      Y:    -0.5880      Z:     0.0000     Total:     3.9060

*** Psi4 exiting successfully. Buy a developer a beer!
