                               Psi4 1.3.2 release

  ==> Input File <==

--------------------------------------------------------------------------
#psi4
#
memory 32 gb

molecule  {
0 1
  C        0.0000000     0.4225390     0.0000000
  H       -0.5104096     1.4023654     0.0000000
  O        1.2082730     0.2220110     0.0000000
  N       -0.9482900    -0.5548660     0.0000000
  H       -0.6534580    -1.5217170     0.0000000
  H       -1.9338820    -0.3411310     0.0000000
units angstrom
no_reorient  #important for SAPT in psi4, default
symmetry c1  #important for SAPT in psi4, default
}

set PROPERTIES_ORIGIN ["COM"]
properties('MP2/aug-cc-pvtz', properties = ['dipole'])
--------------------------------------------------------------------------

    Molecular point group: c1
  Charge       = 0
  Multiplicity = 1
  Basis Set: AUG-CC-PVTZ
    Blend: AUG-CC-PVTZ
  Basis Set: (AUG-CC-PVTZ AUX)
    Blend: AUG-CC-PVTZ-JKFIT

    Orbital Energies [Eh]
    ---------------------

    Doubly Occupied:

       1A    -20.533757     2A    -15.598697     3A    -11.362142
       4A     -1.380589     5A     -1.220800     6A     -0.856328
       7A     -0.751111     8A     -0.669473     9A     -0.609980
      10A     -0.570222    11A     -0.439425    12A     -0.422943

  @DF-RHF Final Energy:  -169.00181141609866

   => Energetics <=

    Nuclear Repulsion Energy =             70.8562543393391735
    One-Electron Energy =                -370.8851994951239135
    Two-Electron Energy =                 131.0271337396860929
    Total Energy =                       -169.0018114160986613
  Basis Set: (AUG-CC-PVTZ AUX)
    Blend: AUG-CC-PVTZ-RI
    Molecular point group: c1

    Geometry (in Angstrom), charge = 0, multiplicity = 1:

       Center              X                  Y                   Z               Mass
    ------------   -----------------  -----------------  -----------------  -----------------
         C           -0.064974760753     0.413929785509     0.000000000000    12.000000000000
         H           -0.575384360753     1.393756185509     0.000000000000     1.007825032230
         O            1.143298239247     0.213401785509     0.000000000000    15.994914619570
         N           -1.013264760753    -0.563475214491     0.000000000000    14.003074004430
         H           -0.718432760753    -1.530326214491     0.000000000000     1.007825032230
         H           -1.998856760753    -0.349740214491     0.000000000000     1.007825032230

  Basis Set: AUG-CC-PVTZ
    Blend: AUG-CC-PVTZ
  Basis Set: (AUG-CC-PVTZ AUX)
    Blend: AUG-CC-PVTZ-JKFIT
	 Reference Energy          =    -169.0018114160986613 [Eh]
	 Singles Energy            =      -0.0000000000000000 [Eh]
	 Same-Spin Energy          =      -0.1625258907054262 [Eh]
	 Opposite-Spin Energy      =      -0.5048178044448119 [Eh]
	 Correlation Energy        =      -0.6673436951502382 [Eh]
	 Total Energy              =    -169.6691551112488980 [Eh]

	 ================> DF-SCS-MP2 Energies <==================
	-----------------------------------------------------------
	 SCS Same-Spin Scale       =       0.3333333333333333 [-]
	 SCS Opposite-Spin Scale   =       1.2000000000000000 [-]
	 SCS Same-Spin Energy      =      -0.0541752969018087 [Eh]
	 SCS Opposite-Spin Energy  =      -0.6057813653337744 [Eh]
	 SCS Correlation Energy    =      -0.6599566622355831 [Eh]
	 SCS Total Energy          =    -169.6617680783342337 [Eh]
	-----------------------------------------------------------

  Dipole Moment: [D]
     X:    -3.8654      Y:    -0.6205      Z:     0.0000     Total:     3.9149

*** Psi4 exiting successfully. Buy a developer a beer!
