                               Psi4 1.4a3.dev225

  ==> Input File <==

--------------------------------------------------------------------------
#psi4
#
memory 32 gb

molecule  {
0 1
  C       -0.1579540     0.3921460     0.0013640
  H       -0.1279436     1.5465020    -0.0006178
  O       -1.2030400    -0.2462730     0.0044980
  N        1.0883960    -0.1599970    -0.0298910
  H        1.9134840     0.4048590     0.1056440
  H        1.1690290    -1.1640930     0.0599600
units angstrom
no_reorient  #important for SAPT in psi4, default
symmetry c1  #important for SAPT in psi4, default
}

set PROPERTIES_ORIGIN ["COM"]
properties('MP2/aug-cc-pvtz', properties = ['dipole'])
--------------------------------------------------------------------------

    Molecular point group: c1
  Charge       = 0
  Multiplicity = 1
  Basis Set: AUG-CC-PVTZ
    Blend: AUG-CC-PVTZ
  Basis Set: (AUG-CC-PVTZ AUX)
    Blend: AUG-CC-PVTZ-JKFIT

    Orbital Energies [Eh]
    ---------------------

    Doubly Occupied:

       1A    -20.534399     2A    -15.600522     3A    -11.367059
       4A     -1.381516     5A     -1.220796     6A     -0.845904
       7A     -0.748706     8A     -0.670441     9A     -0.605825
      10A     -0.570746    11A     -0.437767    12A     -0.424449

  @DF-RHF Final Energy:  -169.00058394838783

   => Energetics <=

    Nuclear Repulsion Energy =             70.6208454993331287
    One-Electron Energy =                -370.4265971650033293
    Two-Electron Energy =                 130.8051677172823588
    Total Energy =                       -169.0005839483878276
  Basis Set: (AUG-CC-PVTZ AUX)
    Blend: AUG-CC-PVTZ-RI
    Molecular point group: c1

    Geometry (in Angstrom), charge = 0, multiplicity = 1:

       Center              X                  Y                   Z               Mass
    ------------   -----------------  -----------------  -----------------  -----------------
         C           -0.093109565640     0.407258459389     0.005006163609    12.000000000000
         H           -0.063099165640     1.561614459389     0.003024363609     1.007825032230
         O           -1.138195565640    -0.231160540611     0.008140163609    15.994914619570
         N            1.153240434360    -0.144884540611    -0.026248836391    14.003074004430
         H            1.978328434360     0.419971459389     0.109286163609     1.007825032230
         H            1.233873434360    -1.148980540611     0.063602163609     1.007825032230

  Basis Set: AUG-CC-PVTZ
    Blend: AUG-CC-PVTZ
  Basis Set: (AUG-CC-PVTZ AUX)
    Blend: AUG-CC-PVTZ-JKFIT
	 Reference Energy          =    -169.0005839483878276 [Eh]
	 Singles Energy            =      -0.0000000000000000 [Eh]
	 Same-Spin Energy          =      -0.1625062802314057 [Eh]
	 Opposite-Spin Energy      =      -0.5049201245966591 [Eh]
	 Correlation Energy        =      -0.6674264048280649 [Eh]
	 Total Energy              =    -169.6680103532158910 [Eh]

	 ================> DF-SCS-MP2 Energies <==================
	-----------------------------------------------------------
	 SCS Same-Spin Scale       =       0.3333333333333333 [-]
	 SCS Opposite-Spin Scale   =       1.2000000000000000 [-]
	 SCS Same-Spin Energy      =      -0.0541687600771352 [Eh]
	 SCS Opposite-Spin Energy  =      -0.6059041495159909 [Eh]
	 SCS Correlation Energy    =      -0.6600729095931261 [Eh]
	 SCS Total Energy          =    -169.6606568579809675 [Eh]
	-----------------------------------------------------------

  Dipole Moment: [D]
     X:     3.7385      Y:     0.8423      Z:     0.3273     Total:     3.8461

*** Psi4 exiting successfully. Buy a developer a beer!
