                               Psi4 1.4a3.dev225

  ==> Input File <==

--------------------------------------------------------------------------
#psi4
#
memory 32 gb

molecule  {
0 1
  C       -0.1579540     0.3921460     0.0013640
  H       -0.1292430     1.4965190    -0.0005320
  O       -1.1603716    -0.2202079     0.0043700
  N        1.0883960    -0.1599970    -0.0298910
  H        1.9134840     0.4048590     0.1056440
  H        1.1690290    -1.1640930     0.0599600
units angstrom
no_reorient  #important for SAPT in psi4, default
symmetry c1  #important for SAPT in psi4, default
}

set PROPERTIES_ORIGIN ["COM"]
properties('MP2/aug-cc-pvtz', properties = ['dipole'])
--------------------------------------------------------------------------

    Molecular point group: c1
  Charge       = 0
  Multiplicity = 1
  Basis Set: AUG-CC-PVTZ
    Blend: AUG-CC-PVTZ
  Basis Set: (AUG-CC-PVTZ AUX)
    Blend: AUG-CC-PVTZ-JKFIT

    Orbital Energies [Eh]
    ---------------------

    Doubly Occupied:

       1A    -20.532871     2A    -15.591089     3A    -11.350869
       4A     -1.413577     5A     -1.216459     6A     -0.845812
       7A     -0.749739     8A     -0.677147     9A     -0.620055
      10A     -0.583039    11A     -0.439889    12A     -0.425780

  @DF-RHF Final Energy:  -169.00531758445814

   => Energetics <=

    Nuclear Repulsion Energy =             72.0455228212958332
    One-Electron Energy =                -373.2090275159805515
    Two-Electron Energy =                 132.1581871102265779
    Total Energy =                       -169.0053175844581403
  Basis Set: (AUG-CC-PVTZ AUX)
    Blend: AUG-CC-PVTZ-RI
    Molecular point group: c1

    Geometry (in Angstrom), charge = 0, multiplicity = 1:

       Center              X                  Y                   Z               Mass
    ------------   -----------------  -----------------  -----------------  -----------------
         C           -0.108239412402     0.399117121899     0.005049717894    12.000000000000
         H           -0.079528412402     1.503490121899     0.003153717894     1.007825032230
         O           -1.110657012402    -0.213236778101     0.008055717894    15.994914619570
         N            1.138110587598    -0.153025878101    -0.026205282106    14.003074004430
         H            1.963198587598     0.411830121899     0.109329717894     1.007825032230
         H            1.218743587598    -1.157121878101     0.063645717894     1.007825032230

  Basis Set: AUG-CC-PVTZ
    Blend: AUG-CC-PVTZ
  Basis Set: (AUG-CC-PVTZ AUX)
    Blend: AUG-CC-PVTZ-JKFIT
	 Reference Energy          =    -169.0053175844581403 [Eh]
	 Singles Energy            =      -0.0000000000000000 [Eh]
	 Same-Spin Energy          =      -0.1611234034547919 [Eh]
	 Opposite-Spin Energy      =      -0.5014326811699800 [Eh]
	 Correlation Energy        =      -0.6625560846247719 [Eh]
	 Total Energy              =    -169.6678736690829226 [Eh]

	 ================> DF-SCS-MP2 Energies <==================
	-----------------------------------------------------------
	 SCS Same-Spin Scale       =       0.3333333333333333 [-]
	 SCS Opposite-Spin Scale   =       1.2000000000000000 [-]
	 SCS Same-Spin Energy      =      -0.0537078011515973 [Eh]
	 SCS Opposite-Spin Energy  =      -0.6017192174039759 [Eh]
	 SCS Correlation Energy    =      -0.6554270185555733 [Eh]
	 SCS Total Energy          =    -169.6607446030137112 [Eh]
	-----------------------------------------------------------

  Dipole Moment: [D]
     X:     3.4537      Y:     0.8014      Z:     0.3325     Total:     3.5610

*** Psi4 exiting successfully. Buy a developer a beer!
