                               Psi4 1.3.2 release

  ==> Input File <==

--------------------------------------------------------------------------
#psi4
#
memory 32 gb

molecule  {
0 1
  C        0.0000000     0.4225390     0.0000000
  H       -0.4408170     1.4355830     0.0000000
  O        1.0109717     0.2547556     0.0000000
  N       -0.9482900    -0.5548660     0.0000000
  H       -0.6534580    -1.5217170     0.0000000
  H       -1.9338820    -0.3411310     0.0000000
units angstrom
no_reorient  #important for SAPT in psi4, default
symmetry c1  #important for SAPT in psi4, default
}

set PROPERTIES_ORIGIN ["COM"]
properties('MP2/aug-cc-pvtz', properties = ['dipole'])
--------------------------------------------------------------------------

    Molecular point group: c1
  Charge       = 0
  Multiplicity = 1
  Basis Set: AUG-CC-PVTZ
    Blend: AUG-CC-PVTZ
  Basis Set: (AUG-CC-PVTZ AUX)
    Blend: AUG-CC-PVTZ-JKFIT

    Orbital Energies [Eh]
    ---------------------

    Doubly Occupied:

       1A    -20.530695     2A    -15.565157     3A    -11.318352
       4A     -1.528452     5A     -1.202129     6A     -0.824814
       7A     -0.765477     8A     -0.698295     9A     -0.645726
      10A     -0.644934    11A     -0.430590    12A     -0.424633

  @DF-RHF Final Energy:  -168.93958659088261

   => Energetics <=

    Nuclear Repulsion Energy =             76.2951505273864967
    One-Electron Energy =                -381.3109664017937916
    Two-Electron Energy =                 136.0762292835246683
    Total Energy =                       -168.9395865908826124
  Basis Set: (AUG-CC-PVTZ AUX)
    Blend: AUG-CC-PVTZ-RI
    Molecular point group: c1

    Geometry (in Angstrom), charge = 0, multiplicity = 1:

       Center              X                  Y                   Z               Mass
    ------------   -----------------  -----------------  -----------------  -----------------
         C            0.003563221544     0.401552919810     0.000000000000    12.000000000000
         H           -0.437253778456     1.414596919810     0.000000000000     1.007825032230
         O            1.014534921544     0.233769519810     0.000000000000    15.994914619570
         N           -0.944726778456    -0.575852080190     0.000000000000    14.003074004430
         H           -0.649894778456    -1.542703080190     0.000000000000     1.007825032230
         H           -1.930318778456    -0.362117080190     0.000000000000     1.007825032230

  Basis Set: AUG-CC-PVTZ
    Blend: AUG-CC-PVTZ
  Basis Set: (AUG-CC-PVTZ AUX)
    Blend: AUG-CC-PVTZ-JKFIT
	 Reference Energy          =    -168.9395865908826124 [Eh]
	 Singles Energy            =      -0.0000000000000000 [Eh]
	 Same-Spin Energy          =      -0.1579004047570317 [Eh]
	 Opposite-Spin Energy      =      -0.4926977420404619 [Eh]
	 Correlation Energy        =      -0.6505981467974936 [Eh]
	 Total Energy              =    -169.5901847376801186 [Eh]

	 ================> DF-SCS-MP2 Energies <==================
	-----------------------------------------------------------
	 SCS Same-Spin Scale       =       0.3333333333333333 [-]
	 SCS Opposite-Spin Scale   =       1.2000000000000000 [-]
	 SCS Same-Spin Energy      =      -0.0526334682523439 [Eh]
	 SCS Opposite-Spin Energy  =      -0.5912372904485542 [Eh]
	 SCS Correlation Energy    =      -0.6438707587008982 [Eh]
	 SCS Total Energy          =    -169.5834573495835116 [Eh]
	-----------------------------------------------------------

  Dipole Moment: [D]
     X:    -2.4794      Y:    -0.5227      Z:     0.0000     Total:     2.5339

*** Psi4 exiting successfully. Buy a developer a beer!
