                               Psi4 1.4a3.dev225

  ==> Input File <==

--------------------------------------------------------------------------
#psi4
#
memory 32 gb

molecule  {
0 1
  C       -0.1579540     0.3921460     0.0013640
  H       -0.1292430     1.4965190    -0.0005320
  O       -1.2201074    -0.2566991     0.0045492
  N        1.0883960    -0.1599970    -0.0298910
  H        1.9134840     0.4048590     0.1056440
  H        1.1690290    -1.1640930     0.0599600
units angstrom
no_reorient  #important for SAPT in psi4, default
symmetry c1  #important for SAPT in psi4, default
}

set PROPERTIES_ORIGIN ["COM"]
properties('MP2/aug-cc-pvtz', properties = ['dipole'])
--------------------------------------------------------------------------

    Molecular point group: c1
  Charge       = 0
  Multiplicity = 1
  Basis Set: AUG-CC-PVTZ
    Blend: AUG-CC-PVTZ
  Basis Set: (AUG-CC-PVTZ AUX)
    Blend: AUG-CC-PVTZ-JKFIT

    Orbital Energies [Eh]
    ---------------------

    Doubly Occupied:

       1A    -20.532774     2A    -15.602835     3A    -11.365387
       4A     -1.368565     5A     -1.221471     6A     -0.856019
       7A     -0.750914     8A     -0.672365     9A     -0.603304
      10A     -0.565639    11A     -0.438536    12A     -0.422221

  @DF-RHF Final Energy:  -169.00003427959595

   => Energetics <=

    Nuclear Repulsion Energy =             70.3626389613053647
    One-Electron Energy =                -369.9252886461127332
    Two-Electron Energy =                 130.5626154052114032
    Total Energy =                       -169.0000342795959511
  Basis Set: (AUG-CC-PVTZ AUX)
    Blend: AUG-CC-PVTZ-RI
    Molecular point group: c1

    Geometry (in Angstrom), charge = 0, multiplicity = 1:

       Center              X                  Y                   Z               Mass
    ------------   -----------------  -----------------  -----------------  -----------------
         C           -0.087016890037     0.412081463351     0.004986052956    12.000000000000
         H           -0.058305890037     1.516454463351     0.003090052956     1.007825032230
         O           -1.149170290037    -0.236763636649     0.008171252956    15.994914619570
         N            1.159333109963    -0.140061536649    -0.026268947044    14.003074004430
         H            1.984421109963     0.424794463351     0.109266052956     1.007825032230
         H            1.239966109963    -1.144157536649     0.063582052956     1.007825032230

  Basis Set: AUG-CC-PVTZ
    Blend: AUG-CC-PVTZ
  Basis Set: (AUG-CC-PVTZ AUX)
    Blend: AUG-CC-PVTZ-JKFIT
	 Reference Energy          =    -169.0000342795959511 [Eh]
	 Singles Energy            =      -0.0000000000000000 [Eh]
	 Same-Spin Energy          =      -0.1628236902070584 [Eh]
	 Opposite-Spin Energy      =      -0.5057985240298558 [Eh]
	 Correlation Energy        =      -0.6686222142369141 [Eh]
	 Total Energy              =    -169.6686564938328559 [Eh]

	 ================> DF-SCS-MP2 Energies <==================
	-----------------------------------------------------------
	 SCS Same-Spin Scale       =       0.3333333333333333 [-]
	 SCS Opposite-Spin Scale   =       1.2000000000000000 [-]
	 SCS Same-Spin Energy      =      -0.0542745634023528 [Eh]
	 SCS Opposite-Spin Energy  =      -0.6069582288358270 [Eh]
	 SCS Correlation Energy    =      -0.6612327922381798 [Eh]
	 SCS Total Energy          =    -169.6612670718341178 [Eh]
	-----------------------------------------------------------

  Dipole Moment: [D]
     X:     3.8654      Y:     0.9320      Z:     0.3258     Total:     3.9895

*** Psi4 exiting successfully. Buy a developer a beer!
