                               Psi4 1.4a3.dev225

  ==> Input File <==

--------------------------------------------------------------------------
#psi4
#
memory 32 gb

molecule  {
0 1
  C       -0.1579540     0.3921460     0.0013640
  H       -0.1292430     1.4965190    -0.0005320
  O       -1.2030400    -0.2462730     0.0044980
  N        1.0883960    -0.1599970    -0.0298910
  H        1.8971304     0.3936633     0.1029576
  H        1.1690290    -1.1640930     0.0599600
units angstrom
no_reorient  #important for SAPT in psi4, default
symmetry c1  #important for SAPT in psi4, default
}

set PROPERTIES_ORIGIN ["COM"]
properties('MP2/aug-cc-pvtz', properties = ['dipole'])
--------------------------------------------------------------------------

    Molecular point group: c1
  Charge       = 0
  Multiplicity = 1
  Basis Set: AUG-CC-PVTZ
    Blend: AUG-CC-PVTZ
  Basis Set: (AUG-CC-PVTZ AUX)
    Blend: AUG-CC-PVTZ-JKFIT

    Orbital Energies [Eh]
    ---------------------

    Doubly Occupied:

       1A    -20.532993     2A    -15.597682     3A    -11.361480
       4A     -1.380924     5A     -1.223161     6A     -0.854294
       7A     -0.755243     8A     -0.673774     9A     -0.609413
      10A     -0.570142    11A     -0.439389    12A     -0.423906

  @DF-RHF Final Energy:  -169.00335407308253

   => Energetics <=

    Nuclear Repulsion Energy =             70.9253886448899920
    One-Electron Energy =                -371.0126854079441046
    Two-Electron Energy =                 131.0839426899715647
    Total Energy =                       -169.0033540730825337
  Basis Set: (AUG-CC-PVTZ AUX)
    Blend: AUG-CC-PVTZ-RI
    Molecular point group: c1

    Geometry (in Angstrom), charge = 0, multiplicity = 1:

       Center              X                  Y                   Z               Mass
    ------------   -----------------  -----------------  -----------------  -----------------
         C           -0.092714395563     0.408627971178     0.005064379170    12.000000000000
         H           -0.064003395563     1.513000971178     0.003168379170     1.007825032230
         O           -1.137800395563    -0.229791028822     0.008198379170    15.994914619570
         N            1.153635604437    -0.143515028822    -0.026190620830    14.003074004430
         H            1.962370004437     0.410145271178     0.106657979170     1.007825032230
         H            1.234268604437    -1.147611028822     0.063660379170     1.007825032230

  Basis Set: AUG-CC-PVTZ
    Blend: AUG-CC-PVTZ
  Basis Set: (AUG-CC-PVTZ AUX)
    Blend: AUG-CC-PVTZ-JKFIT
	 Reference Energy          =    -169.0033540730825337 [Eh]
	 Singles Energy            =      -0.0000000000000000 [Eh]
	 Same-Spin Energy          =      -0.1622175916371685 [Eh]
	 Opposite-Spin Energy      =      -0.5042339303230038 [Eh]
	 Correlation Energy        =      -0.6664515219601723 [Eh]
	 Total Energy              =    -169.6698055950427033 [Eh]

	 ================> DF-SCS-MP2 Energies <==================
	-----------------------------------------------------------
	 SCS Same-Spin Scale       =       0.3333333333333333 [-]
	 SCS Opposite-Spin Scale   =       1.2000000000000000 [-]
	 SCS Same-Spin Energy      =      -0.0540725305457228 [Eh]
	 SCS Opposite-Spin Energy  =      -0.6050807163876045 [Eh]
	 SCS Correlation Energy    =      -0.6591532469333273 [Eh]
	 SCS Total Energy          =    -169.6625073200158624 [Eh]
	-----------------------------------------------------------

  Dipole Moment: [D]
     X:     3.7355      Y:     0.8872      Z:     0.3254     Total:     3.8531

*** Psi4 exiting successfully. Buy a developer a beer!
