                               Psi4 1.3.2 release

  ==> Input File <==

--------------------------------------------------------------------------
#psi4
#
memory 32 gb

molecule  {
0 1
  C        0.0000000     0.4225390     0.0000000
  H       -0.4408170     1.4355830     0.0000000
  O        1.2115887     0.2431288     0.0000000
  N       -0.9482900    -0.5548660     0.0000000
  H       -0.6534580    -1.5217170     0.0000000
  H       -1.9338820    -0.3411310     0.0000000
units angstrom
no_reorient  #important for SAPT in psi4, default
symmetry c1  #important for SAPT in psi4, default
}

set PROPERTIES_ORIGIN ["COM"]
properties('MP2/aug-cc-pvtz', properties = ['dipole'])
--------------------------------------------------------------------------

    Molecular point group: c1
  Charge       = 0
  Multiplicity = 1
  Basis Set: AUG-CC-PVTZ
    Blend: AUG-CC-PVTZ
  Basis Set: (AUG-CC-PVTZ AUX)
    Blend: AUG-CC-PVTZ-JKFIT

    Orbital Energies [Eh]
    ---------------------

    Doubly Occupied:

       1A    -20.532019     2A    -15.600576     3A    -11.361051
       4A     -1.379576     5A     -1.221336     6A     -0.853636
       7A     -0.751786     8A     -0.674387     9A     -0.607676
      10A     -0.569753    11A     -0.437684    12A     -0.423350

  @DF-RHF Final Energy:  -169.00301811595901

   => Energetics <=

    Nuclear Repulsion Energy =             70.7783665848187269
    One-Electron Energy =                -370.7371117254944579
    Two-Electron Energy =                 130.9557270247167082
    Total Energy =                       -169.0030181159590086
  Basis Set: (AUG-CC-PVTZ AUX)
    Blend: AUG-CC-PVTZ-RI
    Molecular point group: c1

    Geometry (in Angstrom), charge = 0, multiplicity = 1:

       Center              X                  Y                   Z               Mass
    ------------   -----------------  -----------------  -----------------  -----------------
         C           -0.067710600341     0.405683608995     0.000000000000    12.000000000000
         H           -0.508527600341     1.418727608995     0.000000000000     1.007825032230
         O            1.143878099659     0.226273408995     0.000000000000    15.994914619570
         N           -1.016000600341    -0.571721391005     0.000000000000    14.003074004430
         H           -0.721168600341    -1.538572391005     0.000000000000     1.007825032230
         H           -2.001592600341    -0.357986391005     0.000000000000     1.007825032230

  Basis Set: AUG-CC-PVTZ
    Blend: AUG-CC-PVTZ
  Basis Set: (AUG-CC-PVTZ AUX)
    Blend: AUG-CC-PVTZ-JKFIT
	 Reference Energy          =    -169.0030181159590086 [Eh]
	 Singles Energy            =      -0.0000000000000000 [Eh]
	 Same-Spin Energy          =      -0.1623501117391030 [Eh]
	 Opposite-Spin Energy      =      -0.5044962568792383 [Eh]
	 Correlation Energy        =      -0.6668463686183412 [Eh]
	 Total Energy              =    -169.6698644845773458 [Eh]

	 ================> DF-SCS-MP2 Energies <==================
	-----------------------------------------------------------
	 SCS Same-Spin Scale       =       0.3333333333333333 [-]
	 SCS Opposite-Spin Scale   =       1.2000000000000000 [-]
	 SCS Same-Spin Energy      =      -0.0541167039130343 [Eh]
	 SCS Opposite-Spin Energy  =      -0.6053955082550859 [Eh]
	 SCS Correlation Energy    =      -0.6595122121681203 [Eh]
	 SCS Total Energy          =    -169.6625303281271329 [Eh]
	-----------------------------------------------------------

  Dipole Moment: [D]
     X:    -3.8718      Y:    -0.6527      Z:     0.0000     Total:     3.9264

*** Psi4 exiting successfully. Buy a developer a beer!
