                               Psi4 1.3.2 release

  ==> Input File <==

--------------------------------------------------------------------------
#psi4
#
memory 32 gb

molecule  {
0 1
  C        0.0000000     0.4225390     0.0000000
  H       -0.4009168     1.3438880     0.0000000
  O        1.2082730     0.2220110     0.0000000
  N       -0.9482900    -0.5548660     0.0000000
  H       -0.6534580    -1.5217170     0.0000000
  H       -1.9338820    -0.3411310     0.0000000
units angstrom
no_reorient  #important for SAPT in psi4, default
symmetry c1  #important for SAPT in psi4, default
}

set PROPERTIES_ORIGIN ["COM"]
properties('MP2/aug-cc-pvtz', properties = ['dipole'])
--------------------------------------------------------------------------

    Molecular point group: c1
  Charge       = 0
  Multiplicity = 1
  Basis Set: AUG-CC-PVTZ
    Blend: AUG-CC-PVTZ
  Basis Set: (AUG-CC-PVTZ AUX)
    Blend: AUG-CC-PVTZ-JKFIT

    Orbital Energies [Eh]
    ---------------------

    Doubly Occupied:

       1A    -20.529254     2A    -15.597953     3A    -11.349253
       4A     -1.378815     5A     -1.219462     6A     -0.873175
       7A     -0.754625     8A     -0.680413     9A     -0.611541
      10A     -0.568347    11A     -0.440601    12A     -0.420858

  @DF-RHF Final Energy:  -168.99815911779032

   => Energetics <=

    Nuclear Repulsion Energy =             71.2979044041580181
    One-Electron Energy =                -371.7435355988500305
    Two-Electron Energy =                 131.4474720769016756
    Total Energy =                       -168.9981591177903226
  Basis Set: (AUG-CC-PVTZ AUX)
    Blend: AUG-CC-PVTZ-RI
    Molecular point group: c1

    Geometry (in Angstrom), charge = 0, multiplicity = 1:

       Center              X                  Y                   Z               Mass
    ------------   -----------------  -----------------  -----------------  -----------------
         C           -0.067425804668     0.415238827523     0.000000000000    12.000000000000
         H           -0.468342604668     1.336587827523     0.000000000000     1.007825032230
         O            1.140847195332     0.214710827523     0.000000000000    15.994914619570
         N           -1.015715804668    -0.562166172477     0.000000000000    14.003074004430
         H           -0.720883804668    -1.529017172477     0.000000000000     1.007825032230
         H           -2.001307804668    -0.348431172477     0.000000000000     1.007825032230

  Basis Set: AUG-CC-PVTZ
    Blend: AUG-CC-PVTZ
  Basis Set: (AUG-CC-PVTZ AUX)
    Blend: AUG-CC-PVTZ-JKFIT
	 Reference Energy          =    -168.9981591177903226 [Eh]
	 Singles Energy            =      -0.0000000000000000 [Eh]
	 Same-Spin Energy          =      -0.1621182891412935 [Eh]
	 Opposite-Spin Energy      =      -0.5041120482043383 [Eh]
	 Correlation Energy        =      -0.6662303373456318 [Eh]
	 Total Energy              =    -169.6643894551359608 [Eh]

	 ================> DF-SCS-MP2 Energies <==================
	-----------------------------------------------------------
	 SCS Same-Spin Scale       =       0.3333333333333333 [-]
	 SCS Opposite-Spin Scale   =       1.2000000000000000 [-]
	 SCS Same-Spin Energy      =      -0.0540394297137645 [Eh]
	 SCS Opposite-Spin Energy  =      -0.6049344578452059 [Eh]
	 SCS Correlation Energy    =      -0.6589738875589705 [Eh]
	 SCS Total Energy          =    -169.6571330053492943 [Eh]
	-----------------------------------------------------------

  Dipole Moment: [D]
     X:    -3.9186      Y:    -0.5288      Z:     0.0000     Total:     3.9541

*** Psi4 exiting successfully. Buy a developer a beer!
