                               Psi4 1.3.2 release

  ==> Input File <==

--------------------------------------------------------------------------
#psi4
#
memory 32 gb

molecule  {
0 1
  C        0.0000000     0.4225390     0.0000000
  H       -0.4759032     1.4195816     0.0000000
  O        1.2082730     0.2220110     0.0000000
  N       -0.9482900    -0.5548660     0.0000000
  H       -0.6534580    -1.5217170     0.0000000
  H       -1.9338820    -0.3411310     0.0000000
units angstrom
no_reorient  #important for SAPT in psi4, default
symmetry c1  #important for SAPT in psi4, default
}

set PROPERTIES_ORIGIN ["COM"]
properties('MP2/aug-cc-pvtz', properties = ['dipole'])
--------------------------------------------------------------------------

    Molecular point group: c1
  Charge       = 0
  Multiplicity = 1
  Basis Set: AUG-CC-PVTZ
    Blend: AUG-CC-PVTZ
  Basis Set: (AUG-CC-PVTZ AUX)
    Blend: AUG-CC-PVTZ-JKFIT

    Orbital Energies [Eh]
    ---------------------

    Doubly Occupied:

       1A    -20.532750     2A    -15.599155     3A    -11.361618
       4A     -1.380218     5A     -1.220442     6A     -0.855076
       7A     -0.751183     8A     -0.671649     9A     -0.608974
      10A     -0.569939    11A     -0.438848    12A     -0.422729

  @DF-RHF Final Energy:  -169.00265705022366

   => Energetics <=

    Nuclear Repulsion Energy =             70.8472245763826010
    One-Electron Energy =                -370.8746009151539056
    Two-Electron Energy =                 131.0247192885476579
    Total Energy =                       -169.0026570502236609
  Basis Set: (AUG-CC-PVTZ AUX)
    Blend: AUG-CC-PVTZ-RI
    Molecular point group: c1

    Geometry (in Angstrom), charge = 0, multiplicity = 1:

       Center              X                  Y                   Z               Mass
    ------------   -----------------  -----------------  -----------------  -----------------
         C           -0.065747201514     0.413544393389     0.000000000000    12.000000000000
         H           -0.541650401514     1.410586993389     0.000000000000     1.007825032230
         O            1.142525798486     0.213016393389     0.000000000000    15.994914619570
         N           -1.014037201514    -0.563860606611     0.000000000000    14.003074004430
         H           -0.719205201514    -1.530711606611     0.000000000000     1.007825032230
         H           -1.999629201514    -0.350125606611     0.000000000000     1.007825032230

  Basis Set: AUG-CC-PVTZ
    Blend: AUG-CC-PVTZ
  Basis Set: (AUG-CC-PVTZ AUX)
    Blend: AUG-CC-PVTZ-JKFIT
	 Reference Energy          =    -169.0026570502236609 [Eh]
	 Singles Energy            =      -0.0000000000000000 [Eh]
	 Same-Spin Energy          =      -0.1624365651776267 [Eh]
	 Opposite-Spin Energy      =      -0.5046417433466834 [Eh]
	 Correlation Energy        =      -0.6670783085243102 [Eh]
	 Total Energy              =    -169.6697353587479711 [Eh]

	 ================> DF-SCS-MP2 Energies <==================
	-----------------------------------------------------------
	 SCS Same-Spin Scale       =       0.3333333333333333 [-]
	 SCS Opposite-Spin Scale   =       1.2000000000000000 [-]
	 SCS Same-Spin Energy      =      -0.0541455217258756 [Eh]
	 SCS Opposite-Spin Energy  =      -0.6055700920160201 [Eh]
	 SCS Correlation Energy    =      -0.6597156137418957 [Eh]
	 SCS Total Energy          =    -169.6623726639655558 [Eh]
	-----------------------------------------------------------

  Dipole Moment: [D]
     X:    -3.8649      Y:    -0.6089      Z:     0.0000     Total:     3.9126

*** Psi4 exiting successfully. Buy a developer a beer!
