                               Psi4 1.3.2 release

  ==> Input File <==

--------------------------------------------------------------------------
#psi4
#
memory 32 gb

molecule  {
0 1
  C        0.0000000     0.4225390     0.0000000
  H       -0.4408170     1.4355830     0.0000000
  O        1.2082730     0.2220110     0.0000000
  N       -0.9482900    -0.5548660     0.0000000
  H       -0.7117941    -1.3304138     0.0000000
  H       -1.9338820    -0.3411310     0.0000000
units angstrom
no_reorient  #important for SAPT in psi4, default
symmetry c1  #important for SAPT in psi4, default
}

set PROPERTIES_ORIGIN ["COM"]
properties('MP2/aug-cc-pvtz', properties = ['dipole'])
--------------------------------------------------------------------------

    Molecular point group: c1
  Charge       = 0
  Multiplicity = 1
  Basis Set: AUG-CC-PVTZ
    Blend: AUG-CC-PVTZ
  Basis Set: (AUG-CC-PVTZ AUX)
    Blend: AUG-CC-PVTZ-JKFIT

    Orbital Energies [Eh]
    ---------------------

    Doubly Occupied:

       1A    -20.534270     2A    -15.579937     3A    -11.362596
       4A     -1.385066     5A     -1.255327     6A     -0.889727
       7A     -0.766898     8A     -0.697769     9A     -0.614437
      10A     -0.573028    11A     -0.440144    12A     -0.427581

  @DF-RHF Final Energy:  -168.95664454481403

   => Energetics <=

    Nuclear Repulsion Energy =             71.9741545894934234
    One-Electron Energy =                -372.8080348813797968
    Two-Electron Energy =                 131.8772357470723477
    Total Energy =                       -168.9566445448140257
  Basis Set: (AUG-CC-PVTZ AUX)
    Blend: AUG-CC-PVTZ-RI
    Molecular point group: c1

    Geometry (in Angstrom), charge = 0, multiplicity = 1:

       Center              X                  Y                   Z               Mass
    ------------   -----------------  -----------------  -----------------  -----------------
         C           -0.065226742398     0.408903789822     0.000000000000    12.000000000000
         H           -0.506043742398     1.421947789822     0.000000000000     1.007825032230
         O            1.143046257602     0.208375789822     0.000000000000    15.994914619570
         N           -1.013516742398    -0.568501210178     0.000000000000    14.003074004430
         H           -0.777020842398    -1.344049010178     0.000000000000     1.007825032230
         H           -1.999108742398    -0.354766210178     0.000000000000     1.007825032230

  Basis Set: AUG-CC-PVTZ
    Blend: AUG-CC-PVTZ
  Basis Set: (AUG-CC-PVTZ AUX)
    Blend: AUG-CC-PVTZ-JKFIT
	 Reference Energy          =    -168.9566445448140257 [Eh]
	 Singles Energy            =      -0.0000000000000000 [Eh]
	 Same-Spin Energy          =      -0.1613709113423286 [Eh]
	 Opposite-Spin Energy      =      -0.5023629060253043 [Eh]
	 Correlation Energy        =      -0.6637338173676329 [Eh]
	 Total Energy              =    -169.6203783621816683 [Eh]

	 ================> DF-SCS-MP2 Energies <==================
	-----------------------------------------------------------
	 SCS Same-Spin Scale       =       0.3333333333333333 [-]
	 SCS Opposite-Spin Scale   =       1.2000000000000000 [-]
	 SCS Same-Spin Energy      =      -0.0537903037807762 [Eh]
	 SCS Opposite-Spin Energy  =      -0.6028354872303652 [Eh]
	 SCS Correlation Energy    =      -0.6566257910111414 [Eh]
	 SCS Total Energy          =    -169.6132703358251774 [Eh]
	-----------------------------------------------------------

  Dipole Moment: [D]
     X:    -3.9022      Y:    -0.3987      Z:    -0.0000     Total:     3.9225

*** Psi4 exiting successfully. Buy a developer a beer!
