                               Psi4 1.4a3.dev225

  ==> Input File <==

--------------------------------------------------------------------------
#psi4
#
memory 32 gb

molecule  {
0 1
  C       -0.1579540     0.3921460     0.0013640
  H       -0.1292430     1.4965190    -0.0005320
  O       -1.2030400    -0.2462730     0.0044980
  N        1.0883960    -0.1599970    -0.0298910
  H        1.8726000     0.3768698     0.0989281
  H        1.1690290    -1.1640930     0.0599600
units angstrom
no_reorient  #important for SAPT in psi4, default
symmetry c1  #important for SAPT in psi4, default
}

set PROPERTIES_ORIGIN ["COM"]
properties('MP2/aug-cc-pvtz', properties = ['dipole'])
--------------------------------------------------------------------------

    Molecular point group: c1
  Charge       = 0
  Multiplicity = 1
  Basis Set: AUG-CC-PVTZ
    Blend: AUG-CC-PVTZ
  Basis Set: (AUG-CC-PVTZ AUX)
    Blend: AUG-CC-PVTZ-JKFIT

    Orbital Energies [Eh]
    ---------------------

    Doubly Occupied:

       1A    -20.533190     2A    -15.594825     3A    -11.361669
       4A     -1.381310     5A     -1.227870     6A     -0.856276
       7A     -0.762752     8A     -0.674305     9A     -0.610941
      10A     -0.570521    11A     -0.439710    12A     -0.424505

  @DF-RHF Final Energy:  -169.00240584627227

   => Energetics <=

    Nuclear Repulsion Energy =             71.0789590189966702
    One-Electron Energy =                -371.2869812204970685
    Two-Electron Energy =                 131.2056163552281305
    Total Energy =                       -169.0024058462722678
  Basis Set: (AUG-CC-PVTZ AUX)
    Blend: AUG-CC-PVTZ-RI
    Molecular point group: c1

    Geometry (in Angstrom), charge = 0, multiplicity = 1:

       Center              X                  Y                   Z               Mass
    ------------   -----------------  -----------------  -----------------  -----------------
         C           -0.092165271898     0.409003900974     0.005154581279    12.000000000000
         H           -0.063454271898     1.513376900974     0.003258581279     1.007825032230
         O           -1.137251271898    -0.229415099026     0.008288581279    15.994914619570
         N            1.154184728102    -0.143139099026    -0.026100418721    14.003074004430
         H            1.938388728102     0.393727700974     0.102718681279     1.007825032230
         H            1.234817728102    -1.147235099026     0.063750581279     1.007825032230

  Basis Set: AUG-CC-PVTZ
    Blend: AUG-CC-PVTZ
  Basis Set: (AUG-CC-PVTZ AUX)
    Blend: AUG-CC-PVTZ-JKFIT
	 Reference Energy          =    -169.0024058462722678 [Eh]
	 Singles Energy            =      -0.0000000000000000 [Eh]
	 Same-Spin Energy          =      -0.1620458868901219 [Eh]
	 Opposite-Spin Energy      =      -0.5037921633821447 [Eh]
	 Correlation Energy        =      -0.6658380502722666 [Eh]
	 Total Energy              =    -169.6682438965445385 [Eh]

	 ================> DF-SCS-MP2 Energies <==================
	-----------------------------------------------------------
	 SCS Same-Spin Scale       =       0.3333333333333333 [-]
	 SCS Opposite-Spin Scale   =       1.2000000000000000 [-]
	 SCS Same-Spin Energy      =      -0.0540152956300406 [Eh]
	 SCS Opposite-Spin Energy  =      -0.6045505960585736 [Eh]
	 SCS Correlation Energy    =      -0.6585658916886142 [Eh]
	 SCS Total Energy          =    -169.6609717379608924 [Eh]
	-----------------------------------------------------------

  Dipole Moment: [D]
     X:     3.7105      Y:     0.8730      Z:     0.3221     Total:     3.8254

*** Psi4 exiting successfully. Buy a developer a beer!
