                               Psi4 1.3.2 release

  ==> Input File <==

--------------------------------------------------------------------------
#psi4
#
memory 32 gb

molecule  {
0 1
  C        0.0000000     0.4225390     0.0000000
  H       -0.4408170     1.4355830     0.0000000
  O        1.1806931     0.0968106     0.0000000
  N       -0.9482900    -0.5548660     0.0000000
  H       -0.6534580    -1.5217170     0.0000000
  H       -1.9338820    -0.3411310     0.0000000
units angstrom
no_reorient  #important for SAPT in psi4, default
symmetry c1  #important for SAPT in psi4, default
}

set PROPERTIES_ORIGIN ["COM"]
properties('MP2/aug-cc-pvtz', properties = ['dipole'])
--------------------------------------------------------------------------

    Molecular point group: c1
  Charge       = 0
  Multiplicity = 1
  Basis Set: AUG-CC-PVTZ
    Blend: AUG-CC-PVTZ
  Basis Set: (AUG-CC-PVTZ AUX)
    Blend: AUG-CC-PVTZ-JKFIT

    Orbital Energies [Eh]
    ---------------------

    Doubly Occupied:

       1A    -20.529909     2A    -15.593690     3A    -11.361510
       4A     -1.382314     5A     -1.212406     6A     -0.854976
       7A     -0.748339     8A     -0.670028     9A     -0.608893
      10A     -0.569439    11A     -0.439651    12A     -0.417262

  @DF-RHF Final Energy:  -169.00031719576930

   => Energetics <=

    Nuclear Repulsion Energy =             71.2586140922869617
    One-Electron Energy =                -371.7410268899567427
    Two-Electron Energy =                 131.4820956019004825
    Total Energy =                       -169.0003171957692985
  Basis Set: (AUG-CC-PVTZ AUX)
    Blend: AUG-CC-PVTZ-RI
    Molecular point group: c1

    Geometry (in Angstrom), charge = 0, multiplicity = 1:

       Center              X                  Y                   Z               Mass
    ------------   -----------------  -----------------  -----------------  -----------------
         C           -0.056734225002     0.457666528316     0.000000000000    12.000000000000
         H           -0.497551225002     1.470710528316     0.000000000000     1.007825032230
         O            1.123958874998     0.131938128316     0.000000000000    15.994914619570
         N           -1.005024225002    -0.519738471684     0.000000000000    14.003074004430
         H           -0.710192225002    -1.486589471684     0.000000000000     1.007825032230
         H           -1.990616225002    -0.306003471684     0.000000000000     1.007825032230

  Basis Set: AUG-CC-PVTZ
    Blend: AUG-CC-PVTZ
  Basis Set: (AUG-CC-PVTZ AUX)
    Blend: AUG-CC-PVTZ-JKFIT
	 Reference Energy          =    -169.0003171957692985 [Eh]
	 Singles Energy            =      -0.0000000000000000 [Eh]
	 Same-Spin Energy          =      -0.1625367233309525 [Eh]
	 Opposite-Spin Energy      =      -0.5046938093901865 [Eh]
	 Correlation Energy        =      -0.6672305327211390 [Eh]
	 Total Energy              =    -169.6675477284904332 [Eh]

	 ================> DF-SCS-MP2 Energies <==================
	-----------------------------------------------------------
	 SCS Same-Spin Scale       =       0.3333333333333333 [-]
	 SCS Opposite-Spin Scale   =       1.2000000000000000 [-]
	 SCS Same-Spin Energy      =      -0.0541789077769842 [Eh]
	 SCS Opposite-Spin Energy  =      -0.6056325712682238 [Eh]
	 SCS Correlation Energy    =      -0.6598114790452080 [Eh]
	 SCS Total Energy          =    -169.6601286748145014 [Eh]
	-----------------------------------------------------------

  Dipole Moment: [D]
     X:    -3.7904      Y:    -0.2720      Z:     0.0000     Total:     3.8001

*** Psi4 exiting successfully. Buy a developer a beer!
