                               Psi4 1.3.2 release

  ==> Input File <==

--------------------------------------------------------------------------
#psi4
#
memory 32 gb

molecule  {
0 1
  C        0.0000000     0.4225390     0.0000000
  H       -0.4408170     1.4355830     0.0000000
  O        1.4055743     0.1892664     0.0000000
  N       -0.9482900    -0.5548660     0.0000000
  H       -0.6534580    -1.5217170     0.0000000
  H       -1.9338820    -0.3411310     0.0000000
units angstrom
no_reorient  #important for SAPT in psi4, default
symmetry c1  #important for SAPT in psi4, default
}

set PROPERTIES_ORIGIN ["COM"]
properties('MP2/aug-cc-pvtz', properties = ['dipole'])
--------------------------------------------------------------------------

    Molecular point group: c1
  Charge       = 0
  Multiplicity = 1
  Basis Set: AUG-CC-PVTZ
    Blend: AUG-CC-PVTZ
  Basis Set: (AUG-CC-PVTZ AUX)
    Blend: AUG-CC-PVTZ-JKFIT

    Orbital Energies [Eh]
    ---------------------

    Doubly Occupied:

       1A    -20.528025     2A    -15.631580     3A    -11.394231
       4A     -1.296160     5A     -1.213014     6A     -0.881085
       7A     -0.764178     8A     -0.672162     9A     -0.552162
      10A     -0.546440    11A     -0.425528    12A     -0.404068

  @DF-RHF Final Energy:  -168.94465983534957

   => Energetics <=

    Nuclear Repulsion Energy =             66.6855816245334267
    One-Electron Energy =                -362.6432167719606809
    Two-Electron Energy =                 127.0129753120776712
    Total Energy =                       -168.9446598353495688
  Basis Set: (AUG-CC-PVTZ AUX)
    Blend: AUG-CC-PVTZ-RI
    Molecular point group: c1

    Geometry (in Angstrom), charge = 0, multiplicity = 1:

       Center              X                  Y                   Z               Mass
    ------------   -----------------  -----------------  -----------------  -----------------
         C           -0.136628464244     0.424819470382     0.000000000000    12.000000000000
         H           -0.577445464244     1.437863470382     0.000000000000     1.007825032230
         O            1.268945835756     0.191546870382     0.000000000000    15.994914619570
         N           -1.084918464244    -0.552585529618     0.000000000000    14.003074004430
         H           -0.790086464244    -1.519436529618     0.000000000000     1.007825032230
         H           -2.070510464244    -0.338850529618     0.000000000000     1.007825032230

  Basis Set: AUG-CC-PVTZ
    Blend: AUG-CC-PVTZ
  Basis Set: (AUG-CC-PVTZ AUX)
    Blend: AUG-CC-PVTZ-JKFIT
	 Reference Energy          =    -168.9446598353495688 [Eh]
	 Singles Energy            =      -0.0000000000000000 [Eh]
	 Same-Spin Energy          =      -0.1664242350652718 [Eh]
	 Opposite-Spin Energy      =      -0.5156314739831760 [Eh]
	 Correlation Energy        =      -0.6820557090484478 [Eh]
	 Total Energy              =    -169.6267155443980243 [Eh]

	 ================> DF-SCS-MP2 Energies <==================
	-----------------------------------------------------------
	 SCS Same-Spin Scale       =       0.3333333333333333 [-]
	 SCS Opposite-Spin Scale   =       1.2000000000000000 [-]
	 SCS Same-Spin Energy      =      -0.0554747450217573 [Eh]
	 SCS Opposite-Spin Energy  =      -0.6187577687798111 [Eh]
	 SCS Correlation Energy    =      -0.6742325138015685 [Eh]
	 SCS Total Energy          =    -169.6188923491511389 [Eh]
	-----------------------------------------------------------

  Dipole Moment: [D]
     X:    -4.9424      Y:    -0.7005      Z:     0.0000     Total:     4.9918

*** Psi4 exiting successfully. Buy a developer a beer!
