                               Psi4 1.3.2 release

  ==> Input File <==

--------------------------------------------------------------------------
#psi4
#
memory 32 gb

molecule  {
0 1
  C        0.0000000     0.4225390     0.0000000
  H       -0.4408170     1.4355830     0.0000000
  O        1.2005386     0.1799650     0.0000000
  N       -0.9482900    -0.5548660     0.0000000
  H       -0.6534580    -1.5217170     0.0000000
  H       -1.9338820    -0.3411310     0.0000000
units angstrom
no_reorient  #important for SAPT in psi4, default
symmetry c1  #important for SAPT in psi4, default
}

set PROPERTIES_ORIGIN ["COM"]
properties('MP2/aug-cc-pvtz', properties = ['dipole'])
--------------------------------------------------------------------------

    Molecular point group: c1
  Charge       = 0
  Multiplicity = 1
  Basis Set: AUG-CC-PVTZ
    Blend: AUG-CC-PVTZ
  Basis Set: (AUG-CC-PVTZ AUX)
    Blend: AUG-CC-PVTZ-JKFIT

    Orbital Energies [Eh]
    ---------------------

    Doubly Occupied:

       1A    -20.531173     2A    -15.597701     3A    -11.361204
       4A     -1.380577     5A     -1.217691     6A     -0.854186
       7A     -0.750331     8A     -0.672630     9A     -0.608215
      10A     -0.569560    11A     -0.438913    12A     -0.420854

  @DF-RHF Final Energy:  -169.00277993313864

   => Energetics <=

    Nuclear Repulsion Energy =             70.9709715434454864
    One-Electron Energy =                -371.1414333764509479
    Two-Electron Energy =                 131.1676818998668068
    Total Energy =                       -169.0027799331386404
  Basis Set: (AUG-CC-PVTZ AUX)
    Blend: AUG-CC-PVTZ-RI
    Molecular point group: c1

    Geometry (in Angstrom), charge = 0, multiplicity = 1:

       Center              X                  Y                   Z               Mass
    ------------   -----------------  -----------------  -----------------  -----------------
         C           -0.063784797148     0.428124007520     0.000000000000    12.000000000000
         H           -0.504601797148     1.441168007520     0.000000000000     1.007825032230
         O            1.136753802852     0.185550007520     0.000000000000    15.994914619570
         N           -1.012074797148    -0.549280992480     0.000000000000    14.003074004430
         H           -0.717242797148    -1.516131992480     0.000000000000     1.007825032230
         H           -1.997666797148    -0.335545992480     0.000000000000     1.007825032230

  Basis Set: AUG-CC-PVTZ
    Blend: AUG-CC-PVTZ
  Basis Set: (AUG-CC-PVTZ AUX)
    Blend: AUG-CC-PVTZ-JKFIT
	 Reference Energy          =    -169.0027799331386404 [Eh]
	 Singles Energy            =      -0.0000000000000000 [Eh]
	 Same-Spin Energy          =      -0.1624017341143671 [Eh]
	 Opposite-Spin Energy      =      -0.5045177445878947 [Eh]
	 Correlation Energy        =      -0.6669194787022619 [Eh]
	 Total Energy              =    -169.6696994118408952 [Eh]

	 ================> DF-SCS-MP2 Energies <==================
	-----------------------------------------------------------
	 SCS Same-Spin Scale       =       0.3333333333333333 [-]
	 SCS Opposite-Spin Scale   =       1.2000000000000000 [-]
	 SCS Same-Spin Energy      =      -0.0541339113714557 [Eh]
	 SCS Opposite-Spin Energy  =      -0.6054212935054736 [Eh]
	 SCS Correlation Energy    =      -0.6595552048769293 [Eh]
	 SCS Total Energy          =    -169.6623351380155782 [Eh]
	-----------------------------------------------------------

  Dipole Moment: [D]
     X:    -3.8440      Y:    -0.4890      Z:     0.0000     Total:     3.8749

*** Psi4 exiting successfully. Buy a developer a beer!
