                               Psi4 1.3.2 release

  ==> Input File <==

--------------------------------------------------------------------------
#psi4
#
memory 32 gb

molecule  {
0 1
  C        0.0000000     0.4225390     0.0000000
  H       -0.3690768     1.4638651     0.0000000
  O        1.2082730     0.2220110     0.0000000
  N       -0.9482900    -0.5548660     0.0000000
  H       -0.6534580    -1.5217170     0.0000000
  H       -1.9338820    -0.3411310     0.0000000
units angstrom
no_reorient  #important for SAPT in psi4, default
symmetry c1  #important for SAPT in psi4, default
}

set PROPERTIES_ORIGIN ["COM"]
properties('MP2/aug-cc-pvtz', properties = ['dipole'])
--------------------------------------------------------------------------

    Molecular point group: c1
  Charge       = 0
  Multiplicity = 1
  Basis Set: AUG-CC-PVTZ
    Blend: AUG-CC-PVTZ
  Basis Set: (AUG-CC-PVTZ AUX)
    Blend: AUG-CC-PVTZ-JKFIT

    Orbital Energies [Eh]
    ---------------------

    Doubly Occupied:

       1A    -20.529765     2A    -15.600617     3A    -11.360059
       4A     -1.379336     5A     -1.219740     6A     -0.851266
       7A     -0.751678     8A     -0.678089     9A     -0.605365
      10A     -0.569234    11A     -0.436444    12A     -0.422212

  @DF-RHF Final Energy:  -169.00272573594910

   => Energetics <=

    Nuclear Repulsion Energy =             70.8335034128224521
    One-Electron Energy =                -370.8648508222137821
    Two-Electron Energy =                 131.0286216734422453
    Total Energy =                       -169.0027257359490989
  Basis Set: (AUG-CC-PVTZ AUX)
    Blend: AUG-CC-PVTZ-RI
    Molecular point group: c1

    Geometry (in Angstrom), charge = 0, multiplicity = 1:

       Center              X                  Y                   Z               Mass
    ------------   -----------------  -----------------  -----------------  -----------------
         C           -0.068138556906     0.412553087996     0.000000000000    12.000000000000
         H           -0.437215356906     1.453879187996     0.000000000000     1.007825032230
         O            1.140134443094     0.212025087996     0.000000000000    15.994914619570
         N           -1.016428556906    -0.564851912004     0.000000000000    14.003074004430
         H           -0.721596556906    -1.531702912004     0.000000000000     1.007825032230
         H           -2.002020556906    -0.351116912004     0.000000000000     1.007825032230

  Basis Set: AUG-CC-PVTZ
    Blend: AUG-CC-PVTZ
  Basis Set: (AUG-CC-PVTZ AUX)
    Blend: AUG-CC-PVTZ-JKFIT
	 Reference Energy          =    -169.0027257359490989 [Eh]
	 Singles Energy            =      -0.0000000000000000 [Eh]
	 Same-Spin Energy          =      -0.1622615879325743 [Eh]
	 Opposite-Spin Energy      =      -0.5042827315744309 [Eh]
	 Correlation Energy        =      -0.6665443195070053 [Eh]
	 Total Energy              =    -169.6692700554561100 [Eh]

	 ================> DF-SCS-MP2 Energies <==================
	-----------------------------------------------------------
	 SCS Same-Spin Scale       =       0.3333333333333333 [-]
	 SCS Opposite-Spin Scale   =       1.2000000000000000 [-]
	 SCS Same-Spin Energy      =      -0.0540871959775248 [Eh]
	 SCS Opposite-Spin Energy  =      -0.6051392778893171 [Eh]
	 SCS Correlation Energy    =      -0.6592264738668419 [Eh]
	 SCS Total Energy          =    -169.6619522098159507 [Eh]
	-----------------------------------------------------------

  Dipole Moment: [D]
     X:    -3.8584      Y:    -0.5785      Z:    -0.0000     Total:     3.9015

*** Psi4 exiting successfully. Buy a developer a beer!
