                               Psi4 1.3.2 release

  ==> Input File <==

--------------------------------------------------------------------------
#psi4
#
memory 32 gb

molecule  {
0 1
  C        0.0000000     0.4225390     0.0000000
  H       -0.3325102     1.4761114     0.0000000
  O        1.2082730     0.2220110     0.0000000
  N       -0.9482900    -0.5548660     0.0000000
  H       -0.6534580    -1.5217170     0.0000000
  H       -1.9338820    -0.3411310     0.0000000
units angstrom
no_reorient  #important for SAPT in psi4, default
symmetry c1  #important for SAPT in psi4, default
}

set PROPERTIES_ORIGIN ["COM"]
properties('MP2/aug-cc-pvtz', properties = ['dipole'])
--------------------------------------------------------------------------

    Molecular point group: c1
  Charge       = 0
  Multiplicity = 1
  Basis Set: AUG-CC-PVTZ
    Blend: AUG-CC-PVTZ
  Basis Set: (AUG-CC-PVTZ AUX)
    Blend: AUG-CC-PVTZ-JKFIT

    Orbital Energies [Eh]
    ---------------------

    Doubly Occupied:

       1A    -20.528794     2A    -15.601120     3A    -11.359547
       4A     -1.379135     5A     -1.219610     6A     -0.849977
       7A     -0.751921     8A     -0.680169     9A     -0.604015
      10A     -0.569047    11A     -0.435423    12A     -0.422081

  @DF-RHF Final Energy:  -169.00194041298860

   => Energetics <=

    Nuclear Repulsion Energy =             70.8333467856704715
    One-Electron Energy =                -370.8688943659264510
    Two-Electron Energy =                 131.0336071672673768
    Total Energy =                       -169.0019404129886027
  Basis Set: (AUG-CC-PVTZ AUX)
    Blend: AUG-CC-PVTZ-RI
    Molecular point group: c1

    Geometry (in Angstrom), charge = 0, multiplicity = 1:

       Center              X                  Y                   Z               Mass
    ------------   -----------------  -----------------  -----------------  -----------------
         C           -0.068957116139     0.412278949248     0.000000000000    12.000000000000
         H           -0.401467316139     1.465851349248     0.000000000000     1.007825032230
         O            1.139315883861     0.211750949248     0.000000000000    15.994914619570
         N           -1.017247116139    -0.565126050752     0.000000000000    14.003074004430
         H           -0.722415116139    -1.531977050752     0.000000000000     1.007825032230
         H           -2.002839116139    -0.351391050752     0.000000000000     1.007825032230

  Basis Set: AUG-CC-PVTZ
    Blend: AUG-CC-PVTZ
  Basis Set: (AUG-CC-PVTZ AUX)
    Blend: AUG-CC-PVTZ-JKFIT
	 Reference Energy          =    -169.0019404129886027 [Eh]
	 Singles Energy            =      -0.0000000000000000 [Eh]
	 Same-Spin Energy          =      -0.1622347154919610 [Eh]
	 Opposite-Spin Energy      =      -0.5042222005799739 [Eh]
	 Correlation Energy        =      -0.6664569160719349 [Eh]
	 Total Energy              =    -169.6683973290605252 [Eh]

	 ================> DF-SCS-MP2 Energies <==================
	-----------------------------------------------------------
	 SCS Same-Spin Scale       =       0.3333333333333333 [-]
	 SCS Opposite-Spin Scale   =       1.2000000000000000 [-]
	 SCS Same-Spin Energy      =      -0.0540782384973203 [Eh]
	 SCS Opposite-Spin Energy  =      -0.6050666406959687 [Eh]
	 SCS Correlation Energy    =      -0.6591448791932890 [Eh]
	 SCS Total Energy          =    -169.6610852921818946 [Eh]
	-----------------------------------------------------------

  Dipole Moment: [D]
     X:    -3.8541      Y:    -0.5698      Z:     0.0000     Total:     3.8960

*** Psi4 exiting successfully. Buy a developer a beer!
