                               Psi4 1.3.2 release

  ==> Input File <==

--------------------------------------------------------------------------
#psi4
#
memory 32 gb

molecule  {
0 1
  C        0.0000000     0.4225390     0.0000000
  H       -0.4408170     1.4355830     0.0000000
  O        1.2082730     0.2220110     0.0000000
  N       -0.9482900    -0.5548660     0.0000000
  H       -0.5951219    -1.7130202     0.0000000
  H       -1.9338820    -0.3411310     0.0000000
units angstrom
no_reorient  #important for SAPT in psi4, default
symmetry c1  #important for SAPT in psi4, default
}

set PROPERTIES_ORIGIN ["COM"]
properties('MP2/aug-cc-pvtz', properties = ['dipole'])
--------------------------------------------------------------------------

    Molecular point group: c1
  Charge       = 0
  Multiplicity = 1
  Basis Set: AUG-CC-PVTZ
    Blend: AUG-CC-PVTZ
  Basis Set: (AUG-CC-PVTZ AUX)
    Blend: AUG-CC-PVTZ-JKFIT

    Orbital Energies [Eh]
    ---------------------

    Doubly Occupied:

       1A    -20.529544     2A    -15.613223     3A    -11.359989
       4A     -1.376593     5A     -1.200969     6A     -0.834459
       7A     -0.739841     8A     -0.645062     9A     -0.592884
      10A     -0.566898    11A     -0.436175    12A     -0.418442

  @DF-RHF Final Energy:  -168.97332628493086

   => Energetics <=

    Nuclear Repulsion Energy =             70.0217886279671404
    One-Electron Energy =                -369.3620695640848908
    Two-Electron Energy =                 130.3669546511869157
    Total Energy =                       -168.9733262849308630
  Basis Set: (AUG-CC-PVTZ AUX)
    Blend: AUG-CC-PVTZ-RI
    Molecular point group: c1

    Geometry (in Angstrom), charge = 0, multiplicity = 1:

       Center              X                  Y                   Z               Mass
    ------------   -----------------  -----------------  -----------------  -----------------
         C           -0.067838500302     0.417468600371     0.000000000000    12.000000000000
         H           -0.508655500302     1.430512600371     0.000000000000     1.007825032230
         O            1.140434499698     0.216940600371     0.000000000000    15.994914619570
         N           -1.016128500302    -0.559936399629     0.000000000000    14.003074004430
         H           -0.662960400302    -1.718090599629     0.000000000000     1.007825032230
         H           -2.001720500302    -0.346201399629     0.000000000000     1.007825032230

  Basis Set: AUG-CC-PVTZ
    Blend: AUG-CC-PVTZ
  Basis Set: (AUG-CC-PVTZ AUX)
    Blend: AUG-CC-PVTZ-JKFIT
	 Reference Energy          =    -168.9733262849308630 [Eh]
	 Singles Energy            =      -0.0000000000000000 [Eh]
	 Same-Spin Energy          =      -0.1636625101083234 [Eh]
	 Opposite-Spin Energy      =      -0.5080608204476450 [Eh]
	 Correlation Energy        =      -0.6717233305559684 [Eh]
	 Total Energy              =    -169.6450496154868404 [Eh]

	 ================> DF-SCS-MP2 Energies <==================
	-----------------------------------------------------------
	 SCS Same-Spin Scale       =       0.3333333333333333 [-]
	 SCS Opposite-Spin Scale   =       1.2000000000000000 [-]
	 SCS Same-Spin Energy      =      -0.0545541700361078 [Eh]
	 SCS Opposite-Spin Energy  =      -0.6096729845371740 [Eh]
	 SCS Correlation Energy    =      -0.6642271545732819 [Eh]
	 SCS Total Energy          =    -169.6375534395041313 [Eh]
	-----------------------------------------------------------

  Dipole Moment: [D]
     X:    -3.8101      Y:    -0.7954      Z:    -0.0000     Total:     3.8922

*** Psi4 exiting successfully. Buy a developer a beer!
