                               Psi4 1.4a3.dev225

  ==> Input File <==

--------------------------------------------------------------------------
#psi4
#
memory 32 gb

molecule  {
0 1
  C       -0.1579540     0.3921460     0.0013640
  H       -0.1292430     1.4965190    -0.0005320
  O       -1.2030400    -0.2462730     0.0044980
  N        1.0883960    -0.1599970    -0.0298910
  H        1.9543680     0.4328482     0.1123599
  H        1.1690290    -1.1640930     0.0599600
units angstrom
no_reorient  #important for SAPT in psi4, default
symmetry c1  #important for SAPT in psi4, default
}

set PROPERTIES_ORIGIN ["COM"]
properties('MP2/aug-cc-pvtz', properties = ['dipole'])
--------------------------------------------------------------------------

    Molecular point group: c1
  Charge       = 0
  Multiplicity = 1
  Basis Set: AUG-CC-PVTZ
    Blend: AUG-CC-PVTZ
  Basis Set: (AUG-CC-PVTZ AUX)
    Blend: AUG-CC-PVTZ-JKFIT

    Orbital Energies [Eh]
    ---------------------

    Doubly Occupied:

       1A    -20.532600     2A    -15.603790     3A    -11.361081
       4A     -1.380164     5A     -1.213722     6A     -0.850645
       7A     -0.738007     8A     -0.672468     9A     -0.605294
      10A     -0.569335    11A     -0.438657    12A     -0.422616

  @DF-RHF Final Energy:  -168.99928034359215

   => Energetics <=

    Nuclear Repulsion Energy =             70.5952648916541108
    One-Electron Energy =                -370.4123336266906676
    Two-Electron Energy =                 130.8177883914444237
    Total Energy =                       -168.9992803435921473
  Basis Set: (AUG-CC-PVTZ AUX)
    Blend: AUG-CC-PVTZ-RI
    Molecular point group: c1

    Geometry (in Angstrom), charge = 0, multiplicity = 1:

       Center              X                  Y                   Z               Mass
    ------------   -----------------  -----------------  -----------------  -----------------
         C           -0.093995684115     0.407750800161     0.004853904598    12.000000000000
         H           -0.065284684115     1.512123800161     0.002957904598     1.007825032230
         O           -1.139081684115    -0.230668199839     0.007987904598    15.994914619570
         N            1.152354315885    -0.144392199839    -0.026401095402    14.003074004430
         H            2.018326315885     0.448453000161     0.115849804598     1.007825032230
         H            1.232987315885    -1.148488199839     0.063449904598     1.007825032230

  Basis Set: AUG-CC-PVTZ
    Blend: AUG-CC-PVTZ
  Basis Set: (AUG-CC-PVTZ AUX)
    Blend: AUG-CC-PVTZ-JKFIT
	 Reference Energy          =    -168.9992803435921473 [Eh]
	 Singles Energy            =      -0.0000000000000000 [Eh]
	 Same-Spin Energy          =      -0.1626419789744257 [Eh]
	 Opposite-Spin Energy      =      -0.5053845636109434 [Eh]
	 Correlation Energy        =      -0.6680265425853691 [Eh]
	 Total Energy              =    -169.6673068861775278 [Eh]

	 ================> DF-SCS-MP2 Energies <==================
	-----------------------------------------------------------
	 SCS Same-Spin Scale       =       0.3333333333333333 [-]
	 SCS Opposite-Spin Scale   =       1.2000000000000000 [-]
	 SCS Same-Spin Energy      =      -0.0542139929914752 [Eh]
	 SCS Opposite-Spin Energy  =      -0.6064614763331321 [Eh]
	 SCS Correlation Energy    =      -0.6606754693246073 [Eh]
	 SCS Total Energy          =    -169.6599558129167633 [Eh]
	-----------------------------------------------------------

  Dipole Moment: [D]
     X:     3.7922      Y:     0.9208      Z:     0.3335     Total:     3.9166

*** Psi4 exiting successfully. Buy a developer a beer!
