                               Psi4 1.4a2.dev612

  ==> Input File <==

--------------------------------------------------------------------------
#psi4
#
memory 32 gb

molecule  {
0 1
  O        1.2197630    -1.3791890     0.7815710
  O       -2.8493200    -0.0743410    -0.2921690
  O       -1.2471260     1.2289340     0.6316900
  C        1.6098530     0.5514350    -0.6010430
  C        0.7924890    -0.5949300    -0.0578730
  C       -0.6155180    -0.7660970    -0.6108670
  C        2.9660570     0.6794250     0.0724790
  C       -1.5616300     0.2444870    -0.0131750
  H        1.7167540     0.3993790    -1.6843760
  H        1.0152770     1.4637510    -0.4819620
  H       -0.6366420    -0.6467360    -1.7011060
  H       -0.9720840    -1.7722110    -0.3761960
  H        3.5474250    -0.2360290    -0.0491480
  H        3.5302360     1.5116820    -0.3550310
  H        2.8465530     0.8548240     1.1430380
  H       -3.3901630     0.6286630     0.1252190
units angstrom
no_reorient  #important for SAPT in psi4, default
symmetry c1  #important for SAPT in psi4, default
}

set PROPERTIES_ORIGIN ["COM"]
properties('MP2/aug-cc-pvtz', properties = ['dipole'])
--------------------------------------------------------------------------

    Molecular point group: c1
  Charge       = 0
  Multiplicity = 1
  Basis Set: AUG-CC-PVTZ
    Blend: AUG-CC-PVTZ
  Basis Set: (AUG-CC-PVTZ AUX)
    Blend: AUG-CC-PVTZ-JKFIT

    Orbital Energies [Eh]
    ---------------------

    Doubly Occupied:

       1A    -20.632879     2A    -20.570390     3A    -20.556722
       4A    -11.413414     5A    -11.344037     6A    -11.271261
       7A    -11.241253     8A    -11.217119     9A     -1.479524
      10A     -1.388998    11A     -1.376024    12A     -1.085062
      13A     -1.041989    14A     -0.901672    15A     -0.839715
      16A     -0.742691    17A     -0.719823    18A     -0.707502
      19A     -0.680942    20A     -0.648248    21A     -0.632254
      22A     -0.626300    23A     -0.598580    24A     -0.577161
      25A     -0.526033    26A     -0.518458    27A     -0.515130
      28A     -0.502948    29A     -0.490811    30A     -0.468915
      31A     -0.424659

  @DF-RHF Final Energy:  -418.76784613096902

   => Energetics <=

    Nuclear Repulsion Energy =            372.2514911218927409
    One-Electron Energy =               -1310.5576487431676469
    Two-Electron Energy =                 519.5383114903058868
    Total Energy =                       -418.7678461309690192
  Basis Set: (AUG-CC-PVTZ AUX)
    Blend: AUG-CC-PVTZ-RI
    Molecular point group: c1

    Geometry (in Angstrom), charge = 0, multiplicity = 1:

       Center              X                  Y                   Z               Mass
    ------------   -----------------  -----------------  -----------------  -----------------
         O            1.219763102674    -1.379189088150     0.781570865235    15.994914619570
         O           -2.849319897326    -0.074341088150    -0.292169134765    15.994914619570
         O           -1.247125897326     1.228933911850     0.631689865235    15.994914619570
         C            1.609853102674     0.551434911850    -0.601043134765    12.000000000000
         C            0.792489102674    -0.594930088150    -0.057873134765    12.000000000000
         C           -0.615517897326    -0.766097088150    -0.610867134765    12.000000000000
         C            2.966057102674     0.679424911850     0.072478865235    12.000000000000
         C           -1.561629897326     0.244486911850    -0.013175134765    12.000000000000
         H            1.716754102674     0.399378911850    -1.684376134765     1.007825032230
         H            1.015277102674     1.463750911850    -0.481962134765     1.007825032230
         H           -0.636641897326    -0.646736088150    -1.701106134765     1.007825032230
         H           -0.972083897326    -1.772211088150    -0.376196134765     1.007825032230
         H            3.547425102674    -0.236029088150    -0.049148134765     1.007825032230
         H            3.530236102674     1.511681911850    -0.355031134765     1.007825032230
         H            2.846553102674     0.854823911850     1.143037865235     1.007825032230
         H           -3.390162897326     0.628662911850     0.125218865235     1.007825032230

  Basis Set: AUG-CC-PVTZ
    Blend: AUG-CC-PVTZ
  Basis Set: (AUG-CC-PVTZ AUX)
    Blend: AUG-CC-PVTZ-JKFIT
	 Reference Energy          =    -418.7678461309690192 [Eh]
	 Singles Energy            =      -0.0000000000000000 [Eh]
	 Same-Spin Energy          =      -0.4082371478478507 [Eh]
	 Opposite-Spin Energy      =      -1.2865871229593113 [Eh]
	 Correlation Energy        =      -1.6948242708071621 [Eh]
	 Total Energy              =    -420.4626704017761654 [Eh]

	 ================> DF-SCS-MP2 Energies <==================
	-----------------------------------------------------------
	 SCS Same-Spin Scale       =       0.3333333333333333 [-]
	 SCS Opposite-Spin Scale   =       1.2000000000000000 [-]
	 SCS Same-Spin Energy      =      -0.1360790492826169 [Eh]
	 SCS Opposite-Spin Energy  =      -1.5439045475511735 [Eh]
	 SCS Correlation Energy    =      -1.6799835968337904 [Eh]
	 SCS Total Energy          =    -420.4478297278027981 [Eh]
	-----------------------------------------------------------

  Dipole Moment: [D]
     X:    -1.3498      Y:     0.7823      Z:    -2.5578     Total:     2.9961

*** Psi4 exiting successfully. Buy a developer a beer!
