                               Psi4 1.4a2.dev612

  ==> Input File <==

--------------------------------------------------------------------------
#psi4
#
memory 32 gb

molecule  {
0 1
  O        1.2197630    -1.3791890     0.7815710
  O       -2.8493200    -0.0743410    -0.2921690
  O       -1.2471260     1.2289340     0.6316900
  C        1.6098530     0.5514350    -0.6010430
  C        0.7924890    -0.5949300    -0.0578730
  C       -0.6061539    -0.6583511    -0.7791023
  C        2.9660570     0.6794250     0.0724790
  C       -1.5616300     0.2444870    -0.0131750
  H        1.7167540     0.3993790    -1.6843760
  H        1.0152770     1.4637510    -0.4819620
  H       -0.6366420    -0.6467360    -1.7011060
  H       -0.9720840    -1.7722110    -0.3761960
  H        3.5474250    -0.2360290    -0.0491480
  H        3.5302360     1.5116820    -0.3550310
  H        2.8465530     0.8548240     1.1430380
  H       -3.3901630     0.6286630     0.1252190
units angstrom
no_reorient  #important for SAPT in psi4, default
symmetry c1  #important for SAPT in psi4, default
}

set PROPERTIES_ORIGIN ["COM"]
properties('MP2/aug-cc-pvtz', properties = ['dipole'])
--------------------------------------------------------------------------

    Molecular point group: c1
  Charge       = 0
  Multiplicity = 1
  Basis Set: AUG-CC-PVTZ
    Blend: AUG-CC-PVTZ
  Basis Set: (AUG-CC-PVTZ AUX)
    Blend: AUG-CC-PVTZ-JKFIT

    Orbital Energies [Eh]
    ---------------------

    Doubly Occupied:

       1A    -20.633219     2A    -20.572305     3A    -20.563491
       4A    -11.416708     5A    -11.351518     6A    -11.273261
       7A    -11.238524     8A    -11.215403     9A     -1.480088
      10A     -1.390830    11A     -1.377246    12A     -1.087498
      13A     -1.039672    14A     -0.900515    15A     -0.840214
      16A     -0.757197    17A     -0.721376    18A     -0.720270
      19A     -0.682187    20A     -0.641349    21A     -0.632267
      22A     -0.625571    23A     -0.606263    24A     -0.566260
      25A     -0.523120    26A     -0.521196    27A     -0.507843
      28A     -0.502696    29A     -0.491561    30A     -0.467408
      31A     -0.419067

  @DF-RHF Final Energy:  -418.71734206913908

   => Energetics <=

    Nuclear Repulsion Energy =            371.5813948168530487
    One-Electron Energy =               -1309.0652246272447883
    Two-Electron Energy =                 518.7664877412527176
    Total Energy =                       -418.7173420691390220
  Basis Set: (AUG-CC-PVTZ AUX)
    Blend: AUG-CC-PVTZ-RI
    Molecular point group: c1

    Geometry (in Angstrom), charge = 0, multiplicity = 1:

       Center              X                  Y                   Z               Mass
    ------------   -----------------  -----------------  -----------------  -----------------
         O            1.218794797877    -1.390330668424     0.798967416749    15.994914619570
         O           -2.850288202123    -0.085482668424    -0.274772583251    15.994914619570
         O           -1.248094202123     1.217792331576     0.649086416749    15.994914619570
         C            1.608884797877     0.540293331576    -0.583646583251    12.000000000000
         C            0.791520797877    -0.606071668424    -0.040476583251    12.000000000000
         C           -0.607122102123    -0.669492768424    -0.761705883251    12.000000000000
         C            2.965088797877     0.668283331576     0.089875416749    12.000000000000
         C           -1.562598202123     0.233345331576     0.004221416749    12.000000000000
         H            1.715785797877     0.388237331576    -1.666979583251     1.007825032230
         H            1.014308797877     1.452609331576    -0.464565583251     1.007825032230
         H           -0.637610202123    -0.657877668424    -1.683709583251     1.007825032230
         H           -0.973052202123    -1.783352668424    -0.358799583251     1.007825032230
         H            3.546456797877    -0.247170668424    -0.031751583251     1.007825032230
         H            3.529267797877     1.500540331576    -0.337634583251     1.007825032230
         H            2.845584797877     0.843682331576     1.160434416749     1.007825032230
         H           -3.391131202123     0.617521331576     0.142615416749     1.007825032230

  Basis Set: AUG-CC-PVTZ
    Blend: AUG-CC-PVTZ
  Basis Set: (AUG-CC-PVTZ AUX)
    Blend: AUG-CC-PVTZ-JKFIT
	 Reference Energy          =    -418.7173420691390788 [Eh]
	 Singles Energy            =      -0.0000000000000000 [Eh]
	 Same-Spin Energy          =      -0.4092915285031993 [Eh]
	 Opposite-Spin Energy      =      -1.2897976628324683 [Eh]
	 Correlation Energy        =      -1.6990891913356676 [Eh]
	 Total Energy              =    -420.4164312604747238 [Eh]

	 ================> DF-SCS-MP2 Energies <==================
	-----------------------------------------------------------
	 SCS Same-Spin Scale       =       0.3333333333333333 [-]
	 SCS Opposite-Spin Scale   =       1.2000000000000000 [-]
	 SCS Same-Spin Energy      =      -0.1364305095010664 [Eh]
	 SCS Opposite-Spin Energy  =      -1.5477571953989619 [Eh]
	 SCS Correlation Energy    =      -1.6841877049000284 [Eh]
	 SCS Total Energy          =    -420.4015297740390906 [Eh]
	-----------------------------------------------------------

  Dipole Moment: [D]
     X:    -1.3068      Y:     0.8395      Z:    -2.5413     Total:     2.9784

*** Psi4 exiting successfully. Buy a developer a beer!
