                               Psi4 1.4a2.dev612

  ==> Input File <==

--------------------------------------------------------------------------
#psi4
#
memory 32 gb

molecule  {
0 1
  O        1.2197630    -1.3791890     0.7815710
  O       -2.8493200    -0.0743410    -0.2921690
  O       -1.2471260     1.2289340     0.6316900
  C        1.6098530     0.5514350    -0.6010430
  C        0.7924890    -0.5949300    -0.0578730
  C       -0.6331689    -0.7365543    -0.5745948
  C        2.9660570     0.6794250     0.0724790
  C       -1.5616300     0.2444870    -0.0131750
  H        1.7167540     0.3993790    -1.6843760
  H        1.0152770     1.4637510    -0.4819620
  H       -0.6366420    -0.6467360    -1.7011060
  H       -0.9720840    -1.7722110    -0.3761960
  H        3.5474250    -0.2360290    -0.0491480
  H        3.5302360     1.5116820    -0.3550310
  H        2.8465530     0.8548240     1.1430380
  H       -3.3901630     0.6286630     0.1252190
units angstrom
no_reorient  #important for SAPT in psi4, default
symmetry c1  #important for SAPT in psi4, default
}

set PROPERTIES_ORIGIN ["COM"]
properties('MP2/aug-cc-pvtz', properties = ['dipole'])
--------------------------------------------------------------------------

    Molecular point group: c1
  Charge       = 0
  Multiplicity = 1
  Basis Set: AUG-CC-PVTZ
    Blend: AUG-CC-PVTZ
  Basis Set: (AUG-CC-PVTZ AUX)
    Blend: AUG-CC-PVTZ-JKFIT

    Orbital Energies [Eh]
    ---------------------

    Doubly Occupied:

       1A    -20.632110     2A    -20.568872     3A    -20.557460
       4A    -11.410897     5A    -11.344818     6A    -11.272361
       7A    -11.241493     8A    -11.217296     9A     -1.479805
      10A     -1.389617    11A     -1.375686    12A     -1.088237
      13A     -1.044554    14A     -0.904032    15A     -0.839617
      16A     -0.741750    17A     -0.722653    18A     -0.709630
      19A     -0.679066    20A     -0.648209    21A     -0.632332
      22A     -0.625469    23A     -0.601514    24A     -0.570145
      25A     -0.524639    26A     -0.518677    27A     -0.515017
      28A     -0.501832    29A     -0.490624    30A     -0.470805
      31A     -0.425242

  @DF-RHF Final Energy:  -418.76511551082802

   => Energetics <=

    Nuclear Repulsion Energy =            372.8660068597238819
    One-Electron Energy =               -1311.7733315486891570
    Two-Electron Energy =                 520.1422091781372501
    Total Energy =                       -418.7651155108279681
  Basis Set: (AUG-CC-PVTZ AUX)
    Blend: AUG-CC-PVTZ-RI
    Molecular point group: c1

    Geometry (in Angstrom), charge = 0, multiplicity = 1:

       Center              X                  Y                   Z               Mass
    ------------   -----------------  -----------------  -----------------  -----------------
         O            1.221588312907    -1.382243982708     0.777820099517    15.994914619570
         O           -2.847494687093    -0.077395982708    -0.295919900483    15.994914619570
         O           -1.245300687093     1.225879017292     0.627939099517    15.994914619570
         C            1.611678312907     0.548380017292    -0.604793900483    12.000000000000
         C            0.794314312907    -0.597984982708    -0.061623900483    12.000000000000
         C           -0.631343587093    -0.739609282708    -0.578345700483    12.000000000000
         C            2.967882312907     0.676370017292     0.068728099517    12.000000000000
         C           -1.559804687093     0.241432017292    -0.016925900483    12.000000000000
         H            1.718579312907     0.396324017292    -1.688126900483     1.007825032230
         H            1.017102312907     1.460696017292    -0.485712900483     1.007825032230
         H           -0.634816687093    -0.649790982708    -1.704856900483     1.007825032230
         H           -0.970258687093    -1.775265982708    -0.379946900483     1.007825032230
         H            3.549250312907    -0.239083982708    -0.052898900483     1.007825032230
         H            3.532061312907     1.508627017292    -0.358781900483     1.007825032230
         H            2.848378312907     0.851769017292     1.139287099517     1.007825032230
         H           -3.388337687093     0.625608017292     0.121468099517     1.007825032230

  Basis Set: AUG-CC-PVTZ
    Blend: AUG-CC-PVTZ
  Basis Set: (AUG-CC-PVTZ AUX)
    Blend: AUG-CC-PVTZ-JKFIT
	 Reference Energy          =    -418.7651155108280250 [Eh]
	 Singles Energy            =      -0.0000000000000000 [Eh]
	 Same-Spin Energy          =      -0.4085614927733880 [Eh]
	 Opposite-Spin Energy      =      -1.2869596913010599 [Eh]
	 Correlation Energy        =      -1.6955211840744480 [Eh]
	 Total Energy              =    -420.4606366949024618 [Eh]

	 ================> DF-SCS-MP2 Energies <==================
	-----------------------------------------------------------
	 SCS Same-Spin Scale       =       0.3333333333333333 [-]
	 SCS Opposite-Spin Scale   =       1.2000000000000000 [-]
	 SCS Same-Spin Energy      =      -0.1361871642577960 [Eh]
	 SCS Opposite-Spin Energy  =      -1.5443516295612718 [Eh]
	 SCS Correlation Energy    =      -1.6805387938190679 [Eh]
	 SCS Total Energy          =    -420.4456543046471211 [Eh]
	-----------------------------------------------------------

  Dipole Moment: [D]
     X:    -1.2953      Y:     0.7357      Z:    -2.5695     Total:     2.9700

*** Psi4 exiting successfully. Buy a developer a beer!
