                               Psi4 1.4a2.dev612

  ==> Input File <==

--------------------------------------------------------------------------
#psi4
#
memory 32 gb

molecule  {
0 1
  O        1.2197630    -1.3791890     0.7815710
  O       -2.8493200    -0.0743410    -0.2921690
  O       -1.2471260     1.2289340     0.6316900
  C        1.6098530     0.5514350    -0.6010430
  C        0.7924890    -0.5949300    -0.0578730
  C       -0.6508198    -0.7070115    -0.5383226
  C        2.9660570     0.6794250     0.0724790
  C       -1.5616300     0.2444870    -0.0131750
  H        1.7167540     0.3993790    -1.6843760
  H        1.0152770     1.4637510    -0.4819620
  H       -0.6366420    -0.6467360    -1.7011060
  H       -0.9720840    -1.7722110    -0.3761960
  H        3.5474250    -0.2360290    -0.0491480
  H        3.5302360     1.5116820    -0.3550310
  H        2.8465530     0.8548240     1.1430380
  H       -3.3901630     0.6286630     0.1252190
units angstrom
no_reorient  #important for SAPT in psi4, default
symmetry c1  #important for SAPT in psi4, default
}

set PROPERTIES_ORIGIN ["COM"]
properties('MP2/aug-cc-pvtz', properties = ['dipole'])
--------------------------------------------------------------------------

    Molecular point group: c1
  Charge       = 0
  Multiplicity = 1
  Basis Set: AUG-CC-PVTZ
    Blend: AUG-CC-PVTZ
  Basis Set: (AUG-CC-PVTZ AUX)
    Blend: AUG-CC-PVTZ-JKFIT

    Orbital Energies [Eh]
    ---------------------

    Doubly Occupied:

       1A    -20.631136     2A    -20.567103     3A    -20.558345
       4A    -11.407778     5A    -11.346011     6A    -11.273805
       7A    -11.241849     8A    -11.217546     9A     -1.480017
      10A     -1.390354    11A     -1.375228    12A     -1.092248
      13A     -1.047259    14A     -0.906587    15A     -0.839392
      16A     -0.741436    17A     -0.726748    18A     -0.710151
      19A     -0.677801    20A     -0.648169    21A     -0.632432
      22A     -0.624899    23A     -0.603177    24A     -0.563935
      25A     -0.523279    26A     -0.518592    27A     -0.514766
      28A     -0.500257    29A     -0.489918    30A     -0.472054
      31A     -0.425693

  @DF-RHF Final Energy:  -418.75723613654395

   => Energetics <=

    Nuclear Repulsion Energy =            373.4858894465795629
    One-Electron Energy =               -1312.9903167602935810
    Two-Electron Energy =                 520.7471911771700661
    Total Energy =                       -418.7572361365439519
  Basis Set: (AUG-CC-PVTZ AUX)
    Blend: AUG-CC-PVTZ-RI
    Molecular point group: c1

    Geometry (in Angstrom), charge = 0, multiplicity = 1:

       Center              X                  Y                   Z               Mass
    ------------   -----------------  -----------------  -----------------  -----------------
         O            1.223413523140    -1.385298887607     0.774069333799    15.994914619570
         O           -2.845669476860    -0.080450887607    -0.299670666201    15.994914619570
         O           -1.243475476860     1.222824112393     0.624188333799    15.994914619570
         C            1.613503523140     0.545325112393    -0.608544666201    12.000000000000
         C            0.796139523140    -0.601039887607    -0.065374666201    12.000000000000
         C           -0.647169276860    -0.713121387607    -0.545824266201    12.000000000000
         C            2.969707523140     0.673315112393     0.064977333799    12.000000000000
         C           -1.557979476860     0.238377112393    -0.020676666201    12.000000000000
         H            1.720404523140     0.393269112393    -1.691877666201     1.007825032230
         H            1.018927523140     1.457641112393    -0.489463666201     1.007825032230
         H           -0.632991476860    -0.652845887607    -1.708607666201     1.007825032230
         H           -0.968433476860    -1.778320887607    -0.383697666201     1.007825032230
         H            3.551075523140    -0.242138887607    -0.056649666201     1.007825032230
         H            3.533886523140     1.505572112393    -0.362532666201     1.007825032230
         H            2.850203523140     0.848714112393     1.135536333799     1.007825032230
         H           -3.386512476860     0.622553112393     0.117717333799     1.007825032230

  Basis Set: AUG-CC-PVTZ
    Blend: AUG-CC-PVTZ
  Basis Set: (AUG-CC-PVTZ AUX)
    Blend: AUG-CC-PVTZ-JKFIT
	 Reference Energy          =    -418.7572361365439519 [Eh]
	 Singles Energy            =      -0.0000000000000000 [Eh]
	 Same-Spin Energy          =      -0.4090738153741762 [Eh]
	 Opposite-Spin Energy      =      -1.2876945208097892 [Eh]
	 Correlation Energy        =      -1.6967683361839654 [Eh]
	 Total Energy              =    -420.4540044727279451 [Eh]

	 ================> DF-SCS-MP2 Energies <==================
	-----------------------------------------------------------
	 SCS Same-Spin Scale       =       0.3333333333333333 [-]
	 SCS Opposite-Spin Scale   =       1.2000000000000000 [-]
	 SCS Same-Spin Energy      =      -0.1363579384580587 [Eh]
	 SCS Opposite-Spin Energy  =      -1.5452334249717470 [Eh]
	 SCS Correlation Energy    =      -1.6815913634298056 [Eh]
	 SCS Total Energy          =    -420.4388274999737405 [Eh]
	-----------------------------------------------------------

  Dipole Moment: [D]
     X:    -1.2307      Y:     0.6856      Z:    -2.5823     Total:     2.9416

*** Psi4 exiting successfully. Buy a developer a beer!
