                               Psi4 1.4a2.dev612

  ==> Input File <==

--------------------------------------------------------------------------
#psi4
#
memory 32 gb

molecule  {
0 1
  O        1.2197630    -1.3791890     0.7815710
  O       -2.8493200    -0.0743410    -0.2921690
  O       -1.2471260     1.2289340     0.6316900
  C        1.6098530     0.5514350    -0.6010430
  C        0.7924890    -0.5949300    -0.0578730
  C       -0.7037726    -0.6183834    -0.4295060
  C        2.9660570     0.6794250     0.0724790
  C       -1.5616300     0.2444870    -0.0131750
  H        1.7167540     0.3993790    -1.6843760
  H        1.0152770     1.4637510    -0.4819620
  H       -0.6366420    -0.6467360    -1.7011060
  H       -0.9720840    -1.7722110    -0.3761960
  H        3.5474250    -0.2360290    -0.0491480
  H        3.5302360     1.5116820    -0.3550310
  H        2.8465530     0.8548240     1.1430380
  H       -3.3901630     0.6286630     0.1252190
units angstrom
no_reorient  #important for SAPT in psi4, default
symmetry c1  #important for SAPT in psi4, default
}

set PROPERTIES_ORIGIN ["COM"]
properties('MP2/aug-cc-pvtz', properties = ['dipole'])
--------------------------------------------------------------------------

    Molecular point group: c1
  Charge       = 0
  Multiplicity = 1
  Basis Set: AUG-CC-PVTZ
    Blend: AUG-CC-PVTZ
  Basis Set: (AUG-CC-PVTZ AUX)
    Blend: AUG-CC-PVTZ-JKFIT

    Orbital Energies [Eh]
    ---------------------

    Doubly Occupied:

       1A    -20.626790     2A    -20.561943     3A    -20.560288
       4A    -11.394544     5A    -11.351857     6A    -11.279229
       7A    -11.243671     8A    -11.218792     9A     -1.480333
      10A     -1.393272    11A     -1.373280    12A     -1.110532
      13A     -1.055167    14A     -0.914446    15A     -0.837724
      16A     -0.751165    17A     -0.731039    18A     -0.708392
      19A     -0.677542    20A     -0.648080    21A     -0.633240
      22A     -0.625118    23A     -0.598916    24A     -0.553341
      25A     -0.523034    26A     -0.516714    27A     -0.512036
      28A     -0.495687    29A     -0.478965    30A     -0.472413
      31A     -0.425858

  @DF-RHF Final Energy:  -418.69708911512254

   => Energetics <=

    Nuclear Repulsion Energy =            375.4065223012347587
    One-Electron Energy =               -1316.7004078266963916
    Two-Electron Energy =                 522.5967964103391523
    Total Energy =                       -418.6970891151224805
  Basis Set: (AUG-CC-PVTZ AUX)
    Blend: AUG-CC-PVTZ-RI
    Molecular point group: c1

    Geometry (in Angstrom), charge = 0, multiplicity = 1:

       Center              X                  Y                   Z               Mass
    ------------   -----------------  -----------------  -----------------  -----------------
         O            1.228889164180    -1.394463571280     0.762817036644    15.994914619570
         O           -2.840193835820    -0.089615571280    -0.310922963356    15.994914619570
         O           -1.237999835820     1.213659428720     0.612936036644    15.994914619570
         C            1.618979164180     0.536160428720    -0.619796963356    12.000000000000
         C            0.801615164180    -0.610204571280    -0.076626963356    12.000000000000
         C           -0.694646435820    -0.633657971280    -0.448259963356    12.000000000000
         C            2.975183164180     0.664150428720     0.053725036644    12.000000000000
         C           -1.552503835820     0.229212428720    -0.031928963356    12.000000000000
         H            1.725880164180     0.384104428720    -1.703129963356     1.007825032230
         H            1.024403164180     1.448476428720    -0.500715963356     1.007825032230
         H           -0.627515835820    -0.662010571280    -1.719859963356     1.007825032230
         H           -0.962957835820    -1.787485571280    -0.394949963356     1.007825032230
         H            3.556551164180    -0.251303571280    -0.067901963356     1.007825032230
         H            3.539362164180     1.496407428720    -0.373784963356     1.007825032230
         H            2.855679164180     0.839549428720     1.124284036644     1.007825032230
         H           -3.381036835820     0.613388428720     0.106465036644     1.007825032230

  Basis Set: AUG-CC-PVTZ
    Blend: AUG-CC-PVTZ
  Basis Set: (AUG-CC-PVTZ AUX)
    Blend: AUG-CC-PVTZ-JKFIT
	 Reference Energy          =    -418.6970891151225374 [Eh]
	 Singles Energy            =      -0.0000000000000000 [Eh]
	 Same-Spin Energy          =      -0.4119015082865046 [Eh]
	 Opposite-Spin Energy      =      -1.2922789753656074 [Eh]
	 Correlation Energy        =      -1.7041804836521119 [Eh]
	 Total Energy              =    -420.4012695987746611 [Eh]

	 ================> DF-SCS-MP2 Energies <==================
	-----------------------------------------------------------
	 SCS Same-Spin Scale       =       0.3333333333333333 [-]
	 SCS Opposite-Spin Scale   =       1.2000000000000000 [-]
	 SCS Same-Spin Energy      =      -0.1373005027621682 [Eh]
	 SCS Opposite-Spin Energy  =      -1.5507347704387289 [Eh]
	 SCS Correlation Energy    =      -1.6880352732008970 [Eh]
	 SCS Total Energy          =    -420.3851243883234474 [Eh]
	-----------------------------------------------------------

  Dipole Moment: [D]
     X:    -0.9665      Y:     0.5217      Z:    -2.6288     Total:     2.8490

*** Psi4 exiting successfully. Buy a developer a beer!
