                               Psi4 1.4a2.dev612

  ==> Input File <==

--------------------------------------------------------------------------
#psi4
#
memory 32 gb

molecule  {
0 1
  O        1.2197630    -1.3791890     0.7815710
  O       -2.8493200    -0.0743410    -0.2921690
  O       -1.2471260     1.2289340     0.6316900
  C        1.6098530     0.5514350    -0.6010430
  C        0.7924890    -0.5949300    -0.0578730
  C       -0.6084949    -0.6852876    -0.7370435
  C        2.9660570     0.6794250     0.0724790
  C       -1.5616300     0.2444870    -0.0131750
  H        1.7167540     0.3993790    -1.6843760
  H        1.0152770     1.4637510    -0.4819620
  H       -0.6366420    -0.6467360    -1.7011060
  H       -0.9720840    -1.7722110    -0.3761960
  H        3.5474250    -0.2360290    -0.0491480
  H        3.5302360     1.5116820    -0.3550310
  H        2.8465530     0.8548240     1.1430380
  H       -3.3901630     0.6286630     0.1252190
units angstrom
no_reorient  #important for SAPT in psi4, default
symmetry c1  #important for SAPT in psi4, default
}

set PROPERTIES_ORIGIN ["COM"]
properties('MP2/aug-cc-pvtz', properties = ['dipole'])
--------------------------------------------------------------------------

    Molecular point group: c1
  Charge       = 0
  Multiplicity = 1
  Basis Set: AUG-CC-PVTZ
    Blend: AUG-CC-PVTZ
  Basis Set: (AUG-CC-PVTZ AUX)
    Blend: AUG-CC-PVTZ-JKFIT

    Orbital Energies [Eh]
    ---------------------

    Doubly Occupied:

       1A    -20.633161     2A    -20.571705     3A    -20.561629
       4A    -11.415377     5A    -11.349160     6A    -11.272048
       7A    -11.239008     8A    -11.215749     9A     -1.479944
      10A     -1.390093    11A     -1.376869    12A     -1.086889
      13A     -1.039994    14A     -0.900864    15A     -0.838726
      16A     -0.750961    17A     -0.720357    18A     -0.717319
      19A     -0.683480    20A     -0.641775    21A     -0.632097
      22A     -0.624959    23A     -0.604978    24A     -0.571088
      25A     -0.523356    26A     -0.520339    27A     -0.510324
      28A     -0.503243    29A     -0.491395    30A     -0.468433
      31A     -0.420955

  @DF-RHF Final Energy:  -418.74002275299335

   => Energetics <=

    Nuclear Repulsion Energy =            371.7821955413632509
    One-Electron Energy =               -1309.5318862249478116
    Two-Electron Energy =                 519.0096679305911493
    Total Energy =                       -418.7400227529933545
  Basis Set: (AUG-CC-PVTZ AUX)
    Blend: AUG-CC-PVTZ-RI
    Molecular point group: c1

    Geometry (in Angstrom), charge = 0, multiplicity = 1:

       Center              X                  Y                   Z               Mass
    ------------   -----------------  -----------------  -----------------  -----------------
         O            1.219036871491    -1.387545270770     0.794618281456    15.994914619570
         O           -2.850046128509    -0.082697270770    -0.279121718544    15.994914619570
         O           -1.247852128509     1.220577729230     0.644737281456    15.994914619570
         C            1.609126871491     0.543078729230    -0.587995718544    12.000000000000
         C            0.791762871491    -0.603286270770    -0.044825718544    12.000000000000
         C           -0.609221028509    -0.693643870770    -0.723996218544    12.000000000000
         C            2.965330871491     0.671068729230     0.085526281456    12.000000000000
         C           -1.562356128509     0.236130729230    -0.000127718544    12.000000000000
         H            1.716027871491     0.391022729230    -1.671328718544     1.007825032230
         H            1.014550871491     1.455394729230    -0.468914718544     1.007825032230
         H           -0.637368128509    -0.655092270770    -1.688058718544     1.007825032230
         H           -0.972810128509    -1.780567270770    -0.363148718544     1.007825032230
         H            3.546698871491    -0.244385270770    -0.036100718544     1.007825032230
         H            3.529509871491     1.503325729230    -0.341983718544     1.007825032230
         H            2.845826871491     0.846467729230     1.156085281456     1.007825032230
         H           -3.390889128509     0.620306729230     0.138266281456     1.007825032230

  Basis Set: AUG-CC-PVTZ
    Blend: AUG-CC-PVTZ
  Basis Set: (AUG-CC-PVTZ AUX)
    Blend: AUG-CC-PVTZ-JKFIT
	 Reference Energy          =    -418.7400227529933545 [Eh]
	 Singles Energy            =      -0.0000000000000000 [Eh]
	 Same-Spin Energy          =      -0.4088764635270318 [Eh]
	 Opposite-Spin Energy      =      -1.2885342561747262 [Eh]
	 Correlation Energy        =      -1.6974107197017578 [Eh]
	 Total Energy              =    -420.4374334726950906 [Eh]

	 ================> DF-SCS-MP2 Energies <==================
	-----------------------------------------------------------
	 SCS Same-Spin Scale       =       0.3333333333333333 [-]
	 SCS Opposite-Spin Scale   =       1.2000000000000000 [-]
	 SCS Same-Spin Energy      =      -0.1362921545090106 [Eh]
	 SCS Opposite-Spin Energy  =      -1.5462411074096714 [Eh]
	 SCS Correlation Energy    =      -1.6825332619186819 [Eh]
	 SCS Total Energy          =    -420.4225560149120611 [Eh]
	-----------------------------------------------------------

  Dipole Moment: [D]
     X:    -1.3262      Y:     0.8207      Z:    -2.5564     Total:     2.9946

*** Psi4 exiting successfully. Buy a developer a beer!
