                               Psi4 1.4a2.dev612

  ==> Input File <==

--------------------------------------------------------------------------
#psi4
#
memory 32 gb

molecule  {
0 1
  O        1.2197630    -1.3791890     0.7815710
  O       -2.8493200    -0.0743410    -0.2921690
  O       -1.2471260     1.2289340     0.6316900
  C        1.6098530     0.5514350    -0.6010430
  C        0.7924890    -0.5949300    -0.0578730
  C       -0.6131770    -0.7391605    -0.6529258
  C        2.9660570     0.6794250     0.0724790
  C       -1.5616300     0.2444870    -0.0131750
  H        1.7167540     0.3993790    -1.6843760
  H        1.0152770     1.4637510    -0.4819620
  H       -0.6366420    -0.6467360    -1.7011060
  H       -0.9720840    -1.7722110    -0.3761960
  H        3.5474250    -0.2360290    -0.0491480
  H        3.5302360     1.5116820    -0.3550310
  H        2.8465530     0.8548240     1.1430380
  H       -3.3901630     0.6286630     0.1252190
units angstrom
no_reorient  #important for SAPT in psi4, default
symmetry c1  #important for SAPT in psi4, default
}

set PROPERTIES_ORIGIN ["COM"]
properties('MP2/aug-cc-pvtz', properties = ['dipole'])
--------------------------------------------------------------------------

    Molecular point group: c1
  Charge       = 0
  Multiplicity = 1
  Basis Set: AUG-CC-PVTZ
    Blend: AUG-CC-PVTZ
  Basis Set: (AUG-CC-PVTZ AUX)
    Blend: AUG-CC-PVTZ-JKFIT

    Orbital Energies [Eh]
    ---------------------

    Doubly Occupied:

       1A    -20.632997     2A    -20.570753     3A    -20.558240
       4A    -11.413737     5A    -11.345397     6A    -11.271046
       7A    -11.240377     8A    -11.216607     9A     -1.479667
      10A     -1.389170    11A     -1.376259    12A     -1.085701
      13A     -1.041189    14A     -0.901449    15A     -0.838781
      16A     -0.743855    17A     -0.719916    18A     -0.709115
      19A     -0.683472    20A     -0.645069    21A     -0.632108
      22A     -0.625578    23A     -0.599819    24A     -0.577991
      25A     -0.524824    26A     -0.518781    27A     -0.514433
      28A     -0.503222    29A     -0.491014    30A     -0.469111
      31A     -0.423749

  @DF-RHF Final Energy:  -418.76465906993622

   => Energetics <=

    Nuclear Repulsion Energy =            372.1194328429356233
    One-Electron Energy =               -1310.2813329641089695
    Two-Electron Energy =                 519.3972410512371880
    Total Energy =                       -418.7646590699362150
  Basis Set: (AUG-CC-PVTZ AUX)
    Blend: AUG-CC-PVTZ-RI
    Molecular point group: c1

    Geometry (in Angstrom), charge = 0, multiplicity = 1:

       Center              X                  Y                   Z               Mass
    ------------   -----------------  -----------------  -----------------  -----------------
         O            1.219521029060    -1.381974485804     0.785920000528    15.994914619570
         O           -2.849561970940    -0.077126485804    -0.287819999472    15.994914619570
         O           -1.247367970940     1.226148514196     0.636039000528    15.994914619570
         C            1.609611029060     0.548649514196    -0.596693999472    12.000000000000
         C            0.792247029060    -0.597715485804    -0.053523999472    12.000000000000
         C           -0.613418970940    -0.741945985804    -0.648576799472    12.000000000000
         C            2.965815029060     0.676639514196     0.076828000528    12.000000000000
         C           -1.561871970940     0.241701514196    -0.008825999472    12.000000000000
         H            1.716512029060     0.396593514196    -1.680026999472     1.007825032230
         H            1.015035029060     1.460965514196    -0.477612999472     1.007825032230
         H           -0.636883970940    -0.649521485804    -1.696756999472     1.007825032230
         H           -0.972325970940    -1.774996485804    -0.371846999472     1.007825032230
         H            3.547183029060    -0.238814485804    -0.044798999472     1.007825032230
         H            3.529994029060     1.508896514196    -0.350681999472     1.007825032230
         H            2.846311029060     0.852038514196     1.147387000528     1.007825032230
         H           -3.390404970940     0.625877514196     0.129568000528     1.007825032230

  Basis Set: AUG-CC-PVTZ
    Blend: AUG-CC-PVTZ
  Basis Set: (AUG-CC-PVTZ AUX)
    Blend: AUG-CC-PVTZ-JKFIT
	 Reference Energy          =    -418.7646590699362150 [Eh]
	 Singles Energy            =      -0.0000000000000000 [Eh]
	 Same-Spin Energy          =      -0.4083534428860393 [Eh]
	 Opposite-Spin Energy      =      -1.2869379508835221 [Eh]
	 Correlation Energy        =      -1.6952913937695615 [Eh]
	 Total Energy              =    -420.4599504637057521 [Eh]

	 ================> DF-SCS-MP2 Energies <==================
	-----------------------------------------------------------
	 SCS Same-Spin Scale       =       0.3333333333333333 [-]
	 SCS Opposite-Spin Scale   =       1.2000000000000000 [-]
	 SCS Same-Spin Energy      =      -0.1361178142953464 [Eh]
	 SCS Opposite-Spin Energy  =      -1.5443255410602266 [Eh]
	 SCS Correlation Energy    =      -1.6804433553555729 [Eh]
	 SCS Total Energy          =    -420.4451024252917932 [Eh]
	-----------------------------------------------------------

  Dipole Moment: [D]
     X:    -1.3481      Y:     0.7920      Z:    -2.5646     Total:     3.0036

*** Psi4 exiting successfully. Buy a developer a beer!
