                               Psi4 1.4a2.dev612

  ==> Input File <==

--------------------------------------------------------------------------
#psi4
#
memory 32 gb

molecule  {
0 1
  O        1.2197630    -1.3791890     0.7815710
  O       -2.8493200    -0.0743410    -0.2921690
  O       -1.2471260     1.2289340     0.6316900
  C        1.6098530     0.5514350    -0.6010430
  C        0.7924890    -0.5949300    -0.0578730
  C       -0.6108359    -0.7122240    -0.6949847
  C        2.9660570     0.6794250     0.0724790
  C       -1.5616300     0.2444870    -0.0131750
  H        1.7167540     0.3993790    -1.6843760
  H        1.0152770     1.4637510    -0.4819620
  H       -0.6366420    -0.6467360    -1.7011060
  H       -0.9720840    -1.7722110    -0.3761960
  H        3.5474250    -0.2360290    -0.0491480
  H        3.5302360     1.5116820    -0.3550310
  H        2.8465530     0.8548240     1.1430380
  H       -3.3901630     0.6286630     0.1252190
units angstrom
no_reorient  #important for SAPT in psi4, default
symmetry c1  #important for SAPT in psi4, default
}

set PROPERTIES_ORIGIN ["COM"]
properties('MP2/aug-cc-pvtz', properties = ['dipole'])
--------------------------------------------------------------------------

    Molecular point group: c1
  Charge       = 0
  Multiplicity = 1
  Basis Set: AUG-CC-PVTZ
    Blend: AUG-CC-PVTZ
  Basis Set: (AUG-CC-PVTZ AUX)
    Blend: AUG-CC-PVTZ-JKFIT

    Orbital Energies [Eh]
    ---------------------

    Doubly Occupied:

       1A    -20.633089     2A    -20.571189     3A    -20.559878
       4A    -11.414388     5A    -11.347112     6A    -11.271312
       7A    -11.239627     8A    -11.216150     9A     -1.479805
      10A     -1.389537    11A     -1.376540    12A     -1.086302
      13A     -1.040514    14A     -0.901179    15A     -0.838364
      16A     -0.746485    17A     -0.720087    18A     -0.712910
      19A     -0.684132    20A     -0.642945    21A     -0.632050
      22A     -0.625043    23A     -0.602488    24A     -0.575418
      25A     -0.523917    26A     -0.519493    27A     -0.512710
      28A     -0.503334    29A     -0.491208    30A     -0.468966
      31A     -0.422514

  @DF-RHF Final Energy:  -418.75557163553202

   => Energetics <=

    Nuclear Repulsion Energy =            371.9622938341512963
    One-Electron Energy =               -1309.9383575941978961
    Two-Electron Energy =                 519.2204921245145215
    Total Energy =                       -418.7555716355320783
  Basis Set: (AUG-CC-PVTZ AUX)
    Blend: AUG-CC-PVTZ-RI
    Molecular point group: c1

    Geometry (in Angstrom), charge = 0, multiplicity = 1:

       Center              X                  Y                   Z               Mass
    ------------   -----------------  -----------------  -----------------  -----------------
         O            1.219278945105    -1.384759883457     0.790269146162    15.994914619570
         O           -2.849804054895    -0.079911883457    -0.283470853838    15.994914619570
         O           -1.247610054895     1.223363116543     0.640388146162    15.994914619570
         C            1.609368945105     0.545864116543    -0.592344853838    12.000000000000
         C            0.792004945105    -0.600500883457    -0.049174853838    12.000000000000
         C           -0.611319954895    -0.717794883457    -0.686286553838    12.000000000000
         C            2.965572945105     0.673854116543     0.081177146162    12.000000000000
         C           -1.562114054895     0.238916116543    -0.004476853838    12.000000000000
         H            1.716269945105     0.393808116543    -1.675677853838     1.007825032230
         H            1.014792945105     1.458180116543    -0.473263853838     1.007825032230
         H           -0.637126054895    -0.652306883457    -1.692407853838     1.007825032230
         H           -0.972568054895    -1.777781883457    -0.367497853838     1.007825032230
         H            3.546940945105    -0.241599883457    -0.040449853838     1.007825032230
         H            3.529751945105     1.506111116543    -0.346332853838     1.007825032230
         H            2.846068945105     0.849253116543     1.151736146162     1.007825032230
         H           -3.390647054895     0.623092116543     0.133917146162     1.007825032230

  Basis Set: AUG-CC-PVTZ
    Blend: AUG-CC-PVTZ
  Basis Set: (AUG-CC-PVTZ AUX)
    Blend: AUG-CC-PVTZ-JKFIT
	 Reference Energy          =    -418.7555716355320214 [Eh]
	 Singles Energy            =      -0.0000000000000000 [Eh]
	 Same-Spin Energy          =      -0.4085651895979543 [Eh]
	 Opposite-Spin Energy      =      -1.2875848357755730 [Eh]
	 Correlation Energy        =      -1.6961500253735273 [Eh]
	 Total Energy              =    -420.4517216609055481 [Eh]

	 ================> DF-SCS-MP2 Energies <==================
	-----------------------------------------------------------
	 SCS Same-Spin Scale       =       0.3333333333333333 [-]
	 SCS Opposite-Spin Scale   =       1.2000000000000000 [-]
	 SCS Same-Spin Energy      =      -0.1361883965326514 [Eh]
	 SCS Opposite-Spin Energy  =      -1.5451018029306876 [Eh]
	 SCS Correlation Energy    =      -1.6812901994633389 [Eh]
	 SCS Total Energy          =    -420.4368618349953408 [Eh]
	-----------------------------------------------------------

  Dipole Moment: [D]
     X:    -1.3401      Y:     0.8048      Z:    -2.5642     Total:     3.0031

*** Psi4 exiting successfully. Buy a developer a beer!
