                               Psi4 1.4a2.dev612

  ==> Input File <==

--------------------------------------------------------------------------
#psi4
#
memory 32 gb

molecule  {
0 1
  O        1.2197630    -1.3791890     0.7815710
  O       -2.8493200    -0.0743410    -0.2921690
  O       -1.2471260     1.2289340     0.6316900
  C        1.6098530     0.5514350    -0.6010430
  C        0.7924890    -0.5949300    -0.0578730
  C       -0.7214235    -0.5888406    -0.3932338
  C        2.9660570     0.6794250     0.0724790
  C       -1.5616300     0.2444870    -0.0131750
  H        1.7167540     0.3993790    -1.6843760
  H        1.0152770     1.4637510    -0.4819620
  H       -0.6366420    -0.6467360    -1.7011060
  H       -0.9720840    -1.7722110    -0.3761960
  H        3.5474250    -0.2360290    -0.0491480
  H        3.5302360     1.5116820    -0.3550310
  H        2.8465530     0.8548240     1.1430380
  H       -3.3901630     0.6286630     0.1252190
units angstrom
no_reorient  #important for SAPT in psi4, default
symmetry c1  #important for SAPT in psi4, default
}

set PROPERTIES_ORIGIN ["COM"]
properties('MP2/aug-cc-pvtz', properties = ['dipole'])
--------------------------------------------------------------------------

    Molecular point group: c1
  Charge       = 0
  Multiplicity = 1
  Basis Set: AUG-CC-PVTZ
    Blend: AUG-CC-PVTZ
  Basis Set: (AUG-CC-PVTZ AUX)
    Blend: AUG-CC-PVTZ-JKFIT

    Orbital Energies [Eh]
    ---------------------

    Doubly Occupied:

       1A    -20.624829     2A    -20.563459     3A    -20.557586
       4A    -11.388821     5A    -11.354440     6A    -11.281069
       7A    -11.244549     8A    -11.219389     9A     -1.480409
      10A     -1.394470    11A     -1.372555    12A     -1.118654
      13A     -1.057467    14A     -0.916744    15A     -0.836753
      16A     -0.756331    17A     -0.729958    18A     -0.707534
      19A     -0.678633    20A     -0.648028    21A     -0.633864
      22A     -0.625218    23A     -0.595049    24A     -0.552144
      25A     -0.523676    26A     -0.516507    27A     -0.510884
      28A     -0.495280    29A     -0.472960    30A     -0.470260
      31A     -0.425232

  @DF-RHF Final Energy:  -418.66256672855309

   => Energetics <=

    Nuclear Repulsion Energy =            376.0772602224186585
    One-Electron Energy =               -1317.9741526808074923
    Two-Electron Energy =                 523.2343257298357457
    Total Energy =                       -418.6625667285530881
  Basis Set: (AUG-CC-PVTZ AUX)
    Blend: AUG-CC-PVTZ-RI
    Molecular point group: c1

    Geometry (in Angstrom), charge = 0, multiplicity = 1:

       Center              X                  Y                   Z               Mass
    ------------   -----------------  -----------------  -----------------  -----------------
         O            1.230714374413    -1.397518476179     0.759066270926    15.994914619570
         O           -2.838368625587    -0.092670476179    -0.314673729074    15.994914619570
         O           -1.236174625587     1.210604523821     0.609185270926    15.994914619570
         C            1.620804374413     0.533105523821    -0.623547729074    12.000000000000
         C            0.803440374413    -0.613259476179    -0.080377729074    12.000000000000
         C           -0.710472125587    -0.607170076179    -0.415738529074    12.000000000000
         C            2.977008374413     0.661095523821     0.049974270926    12.000000000000
         C           -1.550678625587     0.226157523821    -0.035679729074    12.000000000000
         H            1.727705374413     0.381049523821    -1.706880729074     1.007825032230
         H            1.026228374413     1.445421523821    -0.504466729074     1.007825032230
         H           -0.625690625587    -0.665065476179    -1.723610729074     1.007825032230
         H           -0.961132625587    -1.790540476179    -0.398700729074     1.007825032230
         H            3.558376374413    -0.254358476179    -0.071652729074     1.007825032230
         H            3.541187374413     1.493352523821    -0.377535729074     1.007825032230
         H            2.857504374413     0.836494523821     1.120533270926     1.007825032230
         H           -3.379211625587     0.610333523821     0.102714270926     1.007825032230

  Basis Set: AUG-CC-PVTZ
    Blend: AUG-CC-PVTZ
  Basis Set: (AUG-CC-PVTZ AUX)
    Blend: AUG-CC-PVTZ-JKFIT
	 Reference Energy          =    -418.6625667285530881 [Eh]
	 Singles Energy            =      -0.0000000000000000 [Eh]
	 Same-Spin Energy          =      -0.4133322821647425 [Eh]
	 Opposite-Spin Energy      =      -1.2946724267571210 [Eh]
	 Correlation Energy        =      -1.7080047089218635 [Eh]
	 Total Energy              =    -420.3705714374749505 [Eh]

	 ================> DF-SCS-MP2 Energies <==================
	-----------------------------------------------------------
	 SCS Same-Spin Scale       =       0.3333333333333333 [-]
	 SCS Opposite-Spin Scale   =       1.2000000000000000 [-]
	 SCS Same-Spin Energy      =      -0.1377774273882475 [Eh]
	 SCS Opposite-Spin Energy  =      -1.5536069121085452 [Eh]
	 SCS Correlation Energy    =      -1.6913843394967927 [Eh]
	 SCS Total Energy          =    -420.3539510680498665 [Eh]
	-----------------------------------------------------------

  Dipole Moment: [D]
     X:    -0.8540      Y:     0.4689      Z:    -2.6441     Total:     2.8179

*** Psi4 exiting successfully. Buy a developer a beer!
