                               Psi4 1.4a2.dev612

  ==> Input File <==

--------------------------------------------------------------------------
#psi4
#
memory 32 gb

molecule  {
0 1
  O        1.2197630    -1.3791890     0.7815710
  O       -2.8493200    -0.0743410    -0.2921690
  O       -1.2471260     1.2289340     0.6316900
  C        1.6098530     0.5514350    -0.6010430
  C        0.7924890    -0.5949300    -0.0578730
  C       -0.6038128    -0.6314146    -0.8211612
  C        2.9660570     0.6794250     0.0724790
  C       -1.5616300     0.2444870    -0.0131750
  H        1.7167540     0.3993790    -1.6843760
  H        1.0152770     1.4637510    -0.4819620
  H       -0.6366420    -0.6467360    -1.7011060
  H       -0.9720840    -1.7722110    -0.3761960
  H        3.5474250    -0.2360290    -0.0491480
  H        3.5302360     1.5116820    -0.3550310
  H        2.8465530     0.8548240     1.1430380
  H       -3.3901630     0.6286630     0.1252190
units angstrom
no_reorient  #important for SAPT in psi4, default
symmetry c1  #important for SAPT in psi4, default
}

set PROPERTIES_ORIGIN ["COM"]
properties('MP2/aug-cc-pvtz', properties = ['dipole'])
--------------------------------------------------------------------------

    Molecular point group: c1
  Charge       = 0
  Multiplicity = 1
  Basis Set: AUG-CC-PVTZ
    Blend: AUG-CC-PVTZ
  Basis Set: (AUG-CC-PVTZ AUX)
    Blend: AUG-CC-PVTZ-JKFIT

    Orbital Energies [Eh]
    ---------------------

    Doubly Occupied:

       1A    -20.633270     2A    -20.572992     3A    -20.565460
       4A    -11.418383     5A    -11.354160     6A    -11.274980
       7A    -11.238177     8A    -11.215108     9A     -1.480243
      10A     -1.391741    11A     -1.377673    12A     -1.088173
      13A     -1.039600    14A     -0.900150    15A     -0.843230
      16A     -0.764241    17A     -0.723708    18A     -0.720816
      19A     -0.680621    20A     -0.641453    21A     -0.632594
      22A     -0.626808    23A     -0.606181    24A     -0.561611
      25A     -0.523265    26A     -0.521911    27A     -0.506217
      28A     -0.501130    29A     -0.491663    30A     -0.465725
      31A     -0.416842

  @DF-RHF Final Energy:  -418.68674547289396

   => Energetics <=

    Nuclear Repulsion Energy =            371.3622427352740374
    One-Electron Energy =               -1308.5417339212888237
    Two-Electron Energy =                 518.4927457131207120
    Total Energy =                       -418.6867454728940174
  Basis Set: (AUG-CC-PVTZ AUX)
    Blend: AUG-CC-PVTZ-RI
    Molecular point group: c1

    Geometry (in Angstrom), charge = 0, multiplicity = 1:

       Center              X                  Y                   Z               Mass
    ------------   -----------------  -----------------  -----------------  -----------------
         O            1.218552713922    -1.393116066077     0.803316562383    15.994914619570
         O           -2.850530286078    -0.088268066077    -0.270423437617    15.994914619570
         O           -1.248336286078     1.215006933923     0.653435562383    15.994914619570
         C            1.608642713922     0.537507933923    -0.579297437617    12.000000000000
         C            0.791278713922    -0.608857066077    -0.036127437617    12.000000000000
         C           -0.605023086078    -0.645341666077    -0.799415637617    12.000000000000
         C            2.964846713922     0.665497933923     0.094224562383    12.000000000000
         C           -1.562840286078     0.230559933923     0.008570562383    12.000000000000
         H            1.715543713922     0.385451933923    -1.662630437617     1.007825032230
         H            1.014066713922     1.449823933923    -0.460216437617     1.007825032230
         H           -0.637852286078    -0.660663066077    -1.679360437617     1.007825032230
         H           -0.973294286078    -1.786138066077    -0.354450437617     1.007825032230
         H            3.546214713922    -0.249956066077    -0.027402437617     1.007825032230
         H            3.529025713922     1.497754933923    -0.333285437617     1.007825032230
         H            2.845342713922     0.840896933923     1.164783562383     1.007825032230
         H           -3.391373286078     0.614735933923     0.146964562383     1.007825032230

  Basis Set: AUG-CC-PVTZ
    Blend: AUG-CC-PVTZ
  Basis Set: (AUG-CC-PVTZ AUX)
    Blend: AUG-CC-PVTZ-JKFIT
	 Reference Energy          =    -418.6867454728939606 [Eh]
	 Singles Energy            =      -0.0000000000000000 [Eh]
	 Same-Spin Energy          =      -0.4098150963373708 [Eh]
	 Opposite-Spin Energy      =      -1.2913896175403214 [Eh]
	 Correlation Energy        =      -1.7012047138776922 [Eh]
	 Total Energy              =    -420.3879501867716613 [Eh]

	 ================> DF-SCS-MP2 Energies <==================
	-----------------------------------------------------------
	 SCS Same-Spin Scale       =       0.3333333333333333 [-]
	 SCS Opposite-Spin Scale   =       1.2000000000000000 [-]
	 SCS Same-Spin Energy      =      -0.1366050321124569 [Eh]
	 SCS Opposite-Spin Energy  =      -1.5496675410483858 [Eh]
	 SCS Correlation Energy    =      -1.6862725731608428 [Eh]
	 SCS Total Energy          =    -420.3730180460548240 [Eh]
	-----------------------------------------------------------

  Dipole Moment: [D]
     X:    -1.2825      Y:     0.8607      Z:    -2.5188     Total:     2.9546

*** Psi4 exiting successfully. Buy a developer a beer!
