                               Psi4 1.4a2.dev612

  ==> Input File <==

--------------------------------------------------------------------------
#psi4
#
memory 32 gb

molecule  {
0 1
  O        1.2197630    -1.3791890     0.7815710
  O       -2.8493200    -0.0743410    -0.2921690
  O       -1.2471260     1.2289340     0.6316900
  C        1.6098530     0.5514350    -0.6010430
  C        0.7924890    -0.5949300    -0.0578730
  C       -0.6684707    -0.6774688    -0.5020504
  C        2.9660570     0.6794250     0.0724790
  C       -1.5616300     0.2444870    -0.0131750
  H        1.7167540     0.3993790    -1.6843760
  H        1.0152770     1.4637510    -0.4819620
  H       -0.6366420    -0.6467360    -1.7011060
  H       -0.9720840    -1.7722110    -0.3761960
  H        3.5474250    -0.2360290    -0.0491480
  H        3.5302360     1.5116820    -0.3550310
  H        2.8465530     0.8548240     1.1430380
  H       -3.3901630     0.6286630     0.1252190
units angstrom
no_reorient  #important for SAPT in psi4, default
symmetry c1  #important for SAPT in psi4, default
}

set PROPERTIES_ORIGIN ["COM"]
properties('MP2/aug-cc-pvtz', properties = ['dipole'])
--------------------------------------------------------------------------

    Molecular point group: c1
  Charge       = 0
  Multiplicity = 1
  Basis Set: AUG-CC-PVTZ
    Blend: AUG-CC-PVTZ
  Basis Set: (AUG-CC-PVTZ AUX)
    Blend: AUG-CC-PVTZ-JKFIT

    Orbital Energies [Eh]
    ---------------------

    Doubly Occupied:

       1A    -20.629935     2A    -20.565077     3A    -20.559386
       4A    -11.404026     5A    -11.347601     6A    -11.275499
       7A    -11.242326     8A    -11.217876     9A     -1.480165
      10A     -1.391209    11A     -1.374660    12A     -1.097252
      13A     -1.049998    14A     -0.909250    15A     -0.839017
      16A     -0.742658    17A     -0.730178    18A     -0.709843
      19A     -0.677133    20A     -0.648138    21A     -0.632578
      22A     -0.624724    23A     -0.603262    24A     -0.559016
      25A     -0.522548    26A     -0.517963    27A     -0.514229
      28A     -0.498356    29A     -0.488183    30A     -0.472727
      31A     -0.425986

  @DF-RHF Final Energy:  -418.74368458580227

   => Energetics <=

    Nuclear Repulsion Energy =            374.1139496924852210
    One-Electron Energy =               -1314.2136711287200797
    Two-Electron Energy =                 521.3560368504325879
    Total Energy =                       -418.7436845858022707
  Basis Set: (AUG-CC-PVTZ AUX)
    Blend: AUG-CC-PVTZ-RI
    Molecular point group: c1

    Geometry (in Angstrom), charge = 0, multiplicity = 1:

       Center              X                  Y                   Z               Mass
    ------------   -----------------  -----------------  -----------------  -----------------
         O            1.225238733373    -1.388353782164     0.770318568081    15.994914619570
         O           -2.843844266627    -0.083505782164    -0.303421431919    15.994914619570
         O           -1.241650266627     1.219769217836     0.620437568081    15.994914619570
         C            1.615328733373     0.542270217836    -0.612295431919    12.000000000000
         C            0.797964733373    -0.604094782164    -0.069125431919    12.000000000000
         C           -0.662994966627    -0.686633582164    -0.513302831919    12.000000000000
         C            2.971532733373     0.670260217836     0.061226568081    12.000000000000
         C           -1.556154266627     0.235322217836    -0.024427431919    12.000000000000
         H            1.722229733373     0.390214217836    -1.695628431919     1.007825032230
         H            1.020752733373     1.454586217836    -0.493214431919     1.007825032230
         H           -0.631166266627    -0.655900782164    -1.712358431919     1.007825032230
         H           -0.966608266627    -1.781375782164    -0.387448431919     1.007825032230
         H            3.552900733373    -0.245193782164    -0.060400431919     1.007825032230
         H            3.535711733373     1.502517217836    -0.366283431919     1.007825032230
         H            2.852028733373     0.845659217836     1.131785568081     1.007825032230
         H           -3.384687266627     0.619498217836     0.113966568081     1.007825032230

  Basis Set: AUG-CC-PVTZ
    Blend: AUG-CC-PVTZ
  Basis Set: (AUG-CC-PVTZ AUX)
    Blend: AUG-CC-PVTZ-JKFIT
	 Reference Energy          =    -418.7436845858022707 [Eh]
	 Singles Energy            =      -0.0000000000000000 [Eh]
	 Same-Spin Energy          =      -0.4097898431795823 [Eh]
	 Opposite-Spin Energy      =      -1.2888117691085013 [Eh]
	 Correlation Energy        =      -1.6986016122880836 [Eh]
	 Total Energy              =    -420.4422861980903576 [Eh]

	 ================> DF-SCS-MP2 Energies <==================
	-----------------------------------------------------------
	 SCS Same-Spin Scale       =       0.3333333333333333 [-]
	 SCS Opposite-Spin Scale   =       1.2000000000000000 [-]
	 SCS Same-Spin Energy      =      -0.1365966143931941 [Eh]
	 SCS Opposite-Spin Energy  =      -1.5465741229302015 [Eh]
	 SCS Correlation Energy    =      -1.6831707373233955 [Eh]
	 SCS Total Energy          =    -420.4268553231256647 [Eh]
	-----------------------------------------------------------

  Dipole Moment: [D]
     X:    -1.1548      Y:     0.6325      Z:    -2.5967     Total:     2.9114

*** Psi4 exiting successfully. Buy a developer a beer!
