                               Psi4 1.4a2.dev612

  ==> Input File <==

--------------------------------------------------------------------------
#psi4
#
memory 32 gb

molecule  {
0 1
  O        1.2197630    -1.3791890     0.7815710
  O       -2.8493200    -0.0743410    -0.2921690
  O       -1.2471260     1.2289340     0.6316900
  C        1.6098530     0.5514350    -0.6010430
  C        0.7924890    -0.5949300    -0.0578730
  C       -0.6014718    -0.6044781    -0.8632200
  C        2.9660570     0.6794250     0.0724790
  C       -1.5616300     0.2444870    -0.0131750
  H        1.7167540     0.3993790    -1.6843760
  H        1.0152770     1.4637510    -0.4819620
  H       -0.6366420    -0.6467360    -1.7011060
  H       -0.9720840    -1.7722110    -0.3761960
  H        3.5474250    -0.2360290    -0.0491480
  H        3.5302360     1.5116820    -0.3550310
  H        2.8465530     0.8548240     1.1430380
  H       -3.3901630     0.6286630     0.1252190
units angstrom
no_reorient  #important for SAPT in psi4, default
symmetry c1  #important for SAPT in psi4, default
}

set PROPERTIES_ORIGIN ["COM"]
properties('MP2/aug-cc-pvtz', properties = ['dipole'])
--------------------------------------------------------------------------

    Molecular point group: c1
  Charge       = 0
  Multiplicity = 1
  Basis Set: AUG-CC-PVTZ
    Blend: AUG-CC-PVTZ
  Basis Set: (AUG-CC-PVTZ AUX)
    Blend: AUG-CC-PVTZ-JKFIT

    Orbital Energies [Eh]
    ---------------------

    Doubly Occupied:

       1A    -20.633318     2A    -20.573773     3A    -20.567531
       4A    -11.420399     5A    -11.357058     6A    -11.277259
       7A    -11.237964     8A    -11.214861     9A     -1.480413
      10A     -1.392817    11A     -1.378150    12A     -1.088967
      13A     -1.039841    14A     -0.899799    15A     -0.848060
      16A     -0.770752    17A     -0.725334    18A     -0.721241
      19A     -0.678940    20A     -0.641921    21A     -0.633137
      22A     -0.628296    23A     -0.605061    24A     -0.557471
      25A     -0.523920    26A     -0.522287    27A     -0.505659
      28A     -0.498822    29A     -0.491591    30A     -0.463189
      31A     -0.414269

  @DF-RHF Final Energy:  -418.64734428760789

   => Energetics <=

    Nuclear Repulsion Energy =            371.1271309377478929
    One-Electron Energy =               -1307.9647515312644828
    Two-Electron Energy =                 518.1902763059086965
    Total Energy =                       -418.6473442876078934
  Basis Set: (AUG-CC-PVTZ AUX)
    Blend: AUG-CC-PVTZ-RI
    Molecular point group: c1

    Geometry (in Angstrom), charge = 0, multiplicity = 1:

       Center              X                  Y                   Z               Mass
    ------------   -----------------  -----------------  -----------------  -----------------
         O            1.218310640308    -1.395901463731     0.807665697677    15.994914619570
         O           -2.850772359692    -0.091053463731    -0.266074302323    15.994914619570
         O           -1.248578359692     1.212221536269     0.657784697677    15.994914619570
         C            1.608400640308     0.534722536269    -0.574948302323    12.000000000000
         C            0.791036640308    -0.611642463731    -0.031778302323    12.000000000000
         C           -0.602924159692    -0.621190563731    -0.837125302323    12.000000000000
         C            2.964604640308     0.662712536269     0.098573697677    12.000000000000
         C           -1.563082359692     0.227774536269     0.012919697677    12.000000000000
         H            1.715301640308     0.382666536269    -1.658281302323     1.007825032230
         H            1.013824640308     1.447038536269    -0.455867302323     1.007825032230
         H           -0.638094359692    -0.663448463731    -1.675011302323     1.007825032230
         H           -0.973536359692    -1.788923463731    -0.350101302323     1.007825032230
         H            3.545972640308    -0.252741463731    -0.023053302323     1.007825032230
         H            3.528783640308     1.494969536269    -0.328936302323     1.007825032230
         H            2.845100640308     0.838111536269     1.169132697677     1.007825032230
         H           -3.391615359692     0.611950536269     0.151313697677     1.007825032230

  Basis Set: AUG-CC-PVTZ
    Blend: AUG-CC-PVTZ
  Basis Set: (AUG-CC-PVTZ AUX)
    Blend: AUG-CC-PVTZ-JKFIT
	 Reference Energy          =    -418.6473442876078934 [Eh]
	 Singles Energy            =      -0.0000000000000000 [Eh]
	 Same-Spin Energy          =      -0.4104529339059885 [Eh]
	 Opposite-Spin Energy      =      -1.2933231836253505 [Eh]
	 Correlation Energy        =      -1.7037761175313391 [Eh]
	 Total Energy              =    -420.3511204051392269 [Eh]

	 ================> DF-SCS-MP2 Energies <==================
	-----------------------------------------------------------
	 SCS Same-Spin Scale       =       0.3333333333333333 [-]
	 SCS Opposite-Spin Scale   =       1.2000000000000000 [-]
	 SCS Same-Spin Energy      =      -0.1368176446353295 [Eh]
	 SCS Opposite-Spin Energy  =      -1.5519878203504205 [Eh]
	 SCS Correlation Energy    =      -1.6888054649857500 [Eh]
	 SCS Total Energy          =    -420.3361497525936556 [Eh]
	-----------------------------------------------------------

  Dipole Moment: [D]
     X:    -1.2540      Y:     0.8834      Z:    -2.4888     Total:     2.9236

*** Psi4 exiting successfully. Buy a developer a beer!
