                               Psi4 1.4a2.dev612

  ==> Input File <==

--------------------------------------------------------------------------
#psi4
#
memory 32 gb

molecule  {
0 1
  O        1.2197630    -1.3791890     0.7815710
  O       -2.8493200    -0.0743410    -0.2921690
  O       -1.2471260     1.2289340     0.6316900
  C        1.6098530     0.5514350    -0.6010430
  C        0.7924890    -0.5949300    -0.0578730
  C       -0.6861216    -0.6479261    -0.4657782
  C        2.9660570     0.6794250     0.0724790
  C       -1.5616300     0.2444870    -0.0131750
  H        1.7167540     0.3993790    -1.6843760
  H        1.0152770     1.4637510    -0.4819620
  H       -0.6366420    -0.6467360    -1.7011060
  H       -0.9720840    -1.7722110    -0.3761960
  H        3.5474250    -0.2360290    -0.0491480
  H        3.5302360     1.5116820    -0.3550310
  H        2.8465530     0.8548240     1.1430380
  H       -3.3901630     0.6286630     0.1252190
units angstrom
no_reorient  #important for SAPT in psi4, default
symmetry c1  #important for SAPT in psi4, default
}

set PROPERTIES_ORIGIN ["COM"]
properties('MP2/aug-cc-pvtz', properties = ['dipole'])
--------------------------------------------------------------------------

    Molecular point group: c1
  Charge       = 0
  Multiplicity = 1
  Basis Set: AUG-CC-PVTZ
    Blend: AUG-CC-PVTZ
  Basis Set: (AUG-CC-PVTZ AUX)
    Blend: AUG-CC-PVTZ-JKFIT

    Orbital Energies [Eh]
    ---------------------

    Doubly Occupied:

       1A    -20.628490     2A    -20.562799     3A    -20.560584
       4A    -11.399617     5A    -11.349561     6A    -11.277341
       7A    -11.242931     8A    -11.218290     9A     -1.480263
      10A     -1.392183    11A     -1.373999    12A     -1.103348
      13A     -1.052662    14A     -0.911910    15A     -0.838470
      16A     -0.746219    17A     -0.731424    18A     -0.709190
      19A     -0.677047    20A     -0.648113    21A     -0.632826
      22A     -0.624878    23A     -0.601759    24A     -0.555536
      25A     -0.522586    26A     -0.517181    27A     -0.513258
      28A     -0.496684    29A     -0.484618    30A     -0.472856
      31A     -0.426068

  @DF-RHF Final Energy:  -418.72386436593905

   => Energetics <=

    Nuclear Repulsion Energy =            374.7531383418489099
    One-Electron Energy =               -1315.4486193098389322
    Two-Electron Energy =                 521.9716166020509718
    Total Energy =                       -418.7238643659391073
  Basis Set: (AUG-CC-PVTZ AUX)
    Blend: AUG-CC-PVTZ-RI
    Molecular point group: c1

    Geometry (in Angstrom), charge = 0, multiplicity = 1:

       Center              X                  Y                   Z               Mass
    ------------   -----------------  -----------------  -----------------  -----------------
         O            1.227063943606    -1.391408676722     0.766567802362    15.994914619570
         O           -2.842019056394    -0.086560676722    -0.307172197638    15.994914619570
         O           -1.239825056394     1.216714323278     0.616686802362    15.994914619570
         C            1.617153943606     0.539215323278    -0.616046197638    12.000000000000
         C            0.799789943606    -0.607149676722    -0.072876197638    12.000000000000
         C           -0.678820656394    -0.660145776722    -0.480781397638    12.000000000000
         C            2.973357943606     0.667205323278     0.057475802362    12.000000000000
         C           -1.554329056394     0.232267323278    -0.028178197638    12.000000000000
         H            1.724054943606     0.387159323278    -1.699379197638     1.007825032230
         H            1.022577943606     1.451531323278    -0.496965197638     1.007825032230
         H           -0.629341056394    -0.658955676722    -1.716109197638     1.007825032230
         H           -0.964783056394    -1.784430676722    -0.391199197638     1.007825032230
         H            3.554725943606    -0.248248676722    -0.064151197638     1.007825032230
         H            3.537536943606     1.499462323278    -0.370034197638     1.007825032230
         H            2.853853943606     0.842604323278     1.128034802362     1.007825032230
         H           -3.382862056394     0.616443323278     0.110215802362     1.007825032230

  Basis Set: AUG-CC-PVTZ
    Blend: AUG-CC-PVTZ
  Basis Set: (AUG-CC-PVTZ AUX)
    Blend: AUG-CC-PVTZ-JKFIT
	 Reference Energy          =    -418.7238643659390505 [Eh]
	 Singles Energy            =      -0.0000000000000000 [Eh]
	 Same-Spin Energy          =      -0.4107265337124659 [Eh]
	 Opposite-Spin Energy      =      -1.2903326745168842 [Eh]
	 Correlation Energy        =      -1.7010592082293501 [Eh]
	 Total Energy              =    -420.4249235741684174 [Eh]

	 ================> DF-SCS-MP2 Energies <==================
	-----------------------------------------------------------
	 SCS Same-Spin Scale       =       0.3333333333333333 [-]
	 SCS Opposite-Spin Scale   =       1.2000000000000000 [-]
	 SCS Same-Spin Energy      =      -0.1369088445708220 [Eh]
	 SCS Opposite-Spin Energy  =      -1.5483992094202610 [Eh]
	 SCS Correlation Energy    =      -1.6853080539910830 [Eh]
	 SCS Total Energy          =    -420.4091724199301439 [Eh]
	-----------------------------------------------------------

  Dipole Moment: [D]
     X:    -1.0668      Y:     0.5772      Z:    -2.6124     Total:     2.8803

*** Psi4 exiting successfully. Buy a developer a beer!
