                               Psi4 1.3.2 release

  ==> Input File <==

--------------------------------------------------------------------------
#psi4
#
memory 32 gb

molecule  {
0 1
  O       -1.4171200    -1.3484060     0.0002970
  O        1.4171200    -1.3484050    -0.0003020
  N       -0.0000010     0.4846070    -0.0000160
  C       -2.4067620     0.8604000    -0.0000780
  C        2.4067630     0.8604010     0.0000710
  C       -1.2583960    -0.1386330     0.0000840
  C        1.3480078    -0.1830135    -0.0001060
  C       -3.7624040     0.1688250    -0.0000540
  C        3.7624040     0.1688230     0.0000890
  H       -2.3018130     1.5105900    -0.8783980
  H       -2.3018940     1.5107780     0.8781160
  H        2.3017980     1.5106070     0.8783770
  H        2.3019150     1.5107630    -0.8781370
  H       -0.0000010     1.4988170    -0.0000010
  H       -3.8704140    -0.4663380    -0.8807980
  H       -4.5662770     0.9094320    -0.0000700
  H       -3.8703980    -0.4662950     0.8807210
  H        4.5662780     0.9094290     0.0001070
  H        3.8703950    -0.4663230     0.8808470
  H        3.8704150    -0.4663140    -0.8806720
units angstrom
no_reorient  #important for SAPT in psi4, default
symmetry c1  #important for SAPT in psi4, default
}

set PROPERTIES_ORIGIN ["COM"]
properties('MP2/aug-cc-pvtz', properties = ['dipole'])
--------------------------------------------------------------------------

    Molecular point group: c1
  Charge       = 0
  Multiplicity = 1
  Basis Set: AUG-CC-PVTZ
    Blend: AUG-CC-PVTZ
  Basis Set: (AUG-CC-PVTZ AUX)
    Blend: AUG-CC-PVTZ-JKFIT

    Orbital Energies [Eh]
    ---------------------

    Doubly Occupied:

       1A    -20.556128     2A    -20.526599     3A    -15.597710
       4A    -11.372990     5A    -11.357611     6A    -11.259856
       7A    -11.247716     8A    -11.229860     9A    -11.218633
      10A     -1.434866    11A     -1.376813    12A     -1.216855
      13A     -1.080886    14A     -1.052393    15A     -0.929235
      16A     -0.879675    17A     -0.788381    18A     -0.761041
      19A     -0.713643    20A     -0.675522    21A     -0.661279
      22A     -0.649083    23A     -0.638433    24A     -0.606038
      25A     -0.573628    26A     -0.547095    27A     -0.538000
      28A     -0.529689    29A     -0.529084    30A     -0.520094
      31A     -0.510788    32A     -0.492982    33A     -0.465213
      34A     -0.415107    35A     -0.406912

  @DF-RHF Final Energy:  -437.97318230150773

   => Energetics <=

    Nuclear Repulsion Energy =            447.9875643573890329
    One-Electron Energy =               -1485.2018146786972466
    Two-Electron Energy =                 599.2410680198003092
    Total Energy =                       -437.9731823015077907
  Basis Set: (AUG-CC-PVTZ AUX)
    Blend: AUG-CC-PVTZ-RI
    Molecular point group: c1

    Geometry (in Angstrom), charge = 0, multiplicity = 1:

       Center              X                  Y                   Z               Mass
    ------------   -----------------  -----------------  -----------------  -----------------
         O           -1.425450896633    -1.286785987714     0.000298079214    15.994914619570
         O            1.408789103367    -1.286784987714    -0.000300920786    15.994914619570
         N           -0.008331896633     0.546227012286    -0.000014920786    14.003074004430
         C           -2.415092896633     0.922020012286    -0.000076920786    12.000000000000
         C            2.398432103367     0.922021012286     0.000072079214    12.000000000000
         C           -1.266726896633    -0.077012987714     0.000085079214    12.000000000000
         C            1.339676903367    -0.121393487714    -0.000104920786    12.000000000000
         C           -3.770734896633     0.230445012286    -0.000052920786    12.000000000000
         C            3.754073103367     0.230443012286     0.000090079214    12.000000000000
         H           -2.310143896633     1.572210012286    -0.878396920786     1.007825032230
         H           -2.310224896633     1.572398012286     0.878117079214     1.007825032230
         H            2.293467103367     1.572227012286     0.878378079214     1.007825032230
         H            2.293584103367     1.572383012286    -0.878135920786     1.007825032230
         H           -0.008331896633     1.560437012286     0.000000079214     1.007825032230
         H           -3.878744896633    -0.404717987714    -0.880796920786     1.007825032230
         H           -4.574607896633     0.971052012286    -0.000068920786     1.007825032230
         H           -3.878728896633    -0.404674987714     0.880722079214     1.007825032230
         H            4.557947103367     0.971049012286     0.000108079214     1.007825032230
         H            3.862064103367    -0.404702987714     0.880848079214     1.007825032230
         H            3.862084103367    -0.404693987714    -0.880670920786     1.007825032230

  Basis Set: AUG-CC-PVTZ
    Blend: AUG-CC-PVTZ
  Basis Set: (AUG-CC-PVTZ AUX)
    Blend: AUG-CC-PVTZ-JKFIT
	 Reference Energy          =    -437.9731823015077339 [Eh]
	 Singles Energy            =      -0.0000000000000000 [Eh]
	 Same-Spin Energy          =      -0.4394758574751900 [Eh]
	 Opposite-Spin Energy      =      -1.4257256846937647 [Eh]
	 Correlation Energy        =      -1.8652015421689547 [Eh]
	 Total Energy              =    -439.8383838436766951 [Eh]

	 ================> DF-SCS-MP2 Energies <==================
	-----------------------------------------------------------
	 SCS Same-Spin Scale       =       0.3333333333333333 [-]
	 SCS Opposite-Spin Scale   =       1.2000000000000000 [-]
	 SCS Same-Spin Energy      =      -0.1464919524917300 [Eh]
	 SCS Opposite-Spin Energy  =      -1.7108708216325177 [Eh]
	 SCS Correlation Energy    =      -1.8573627741242478 [Eh]
	 SCS Total Energy          =    -439.8305450756319601 [Eh]
	-----------------------------------------------------------

  Dipole Moment: [D]
     X:     1.0442      Y:     5.4993      Z:    -0.0001     Total:     5.5976

*** Psi4 exiting successfully. Buy a developer a beer!
