                               Psi4 1.3.2 release

  ==> Input File <==

--------------------------------------------------------------------------
#psi4
#
memory 32 gb

molecule  {
0 1
  O       -1.4171200    -1.3484060     0.0002970
  O        1.4171200    -1.3484050    -0.0003020
  N       -0.0000010     0.4846070    -0.0000160
  C       -2.4067620     0.8604000    -0.0000780
  C        2.4067630     0.8604010     0.0000710
  C       -1.2583960    -0.1386330     0.0000840
  C        1.2583960    -0.1386320    -0.0001000
  C       -3.7624040     0.1688250    -0.0000540
  C        3.7624040     0.1688230     0.0000890
  H       -2.3018130     1.5105900    -0.8783980
  H       -2.3018940     1.5107780     0.8781160
  H        2.3017980     1.5106070     0.8783770
  H        2.3019150     1.5107630    -0.8781370
  H       -0.0000010     1.2988170    -0.0000040
  H       -3.8704140    -0.4663380    -0.8807980
  H       -4.5662770     0.9094320    -0.0000700
  H       -3.8703980    -0.4662950     0.8807210
  H        4.5662780     0.9094290     0.0001070
  H        3.8703950    -0.4663230     0.8808470
  H        3.8704150    -0.4663140    -0.8806720
units angstrom
no_reorient  #important for SAPT in psi4, default
symmetry c1  #important for SAPT in psi4, default
}

set PROPERTIES_ORIGIN ["COM"]
properties('MP2/aug-cc-pvtz', properties = ['dipole'])
--------------------------------------------------------------------------

    Molecular point group: c1
  Charge       = 0
  Multiplicity = 1
  Basis Set: AUG-CC-PVTZ
    Blend: AUG-CC-PVTZ
  Basis Set: (AUG-CC-PVTZ AUX)
    Blend: AUG-CC-PVTZ-JKFIT

    Orbital Energies [Eh]
    ---------------------

    Doubly Occupied:

       1A    -20.539166     2A    -20.539164     3A    -15.595028
       4A    -11.369068     5A    -11.369053     6A    -11.256452
       7A    -11.256452     8A    -11.225003     9A    -11.225003
      10A     -1.407890    11A     -1.376518    12A     -1.280771
      13A     -1.073735    14A     -1.058134    15A     -0.939920
      16A     -0.883883    17A     -0.836365    18A     -0.805767
      19A     -0.709961    20A     -0.679401    21A     -0.660604
      22A     -0.641001    23A     -0.630073    24A     -0.614848
      25A     -0.579918    26A     -0.549239    27A     -0.532913
      28A     -0.528055    29A     -0.525928    30A     -0.524996
      31A     -0.504883    32A     -0.492078    33A     -0.464527
      34A     -0.427193    35A     -0.412399

  @DF-RHF Final Energy:  -437.93654506529907

   => Energetics <=

    Nuclear Repulsion Energy =            449.5914749237967385
    One-Electron Energy =               -1488.0252644811084792
    Two-Electron Energy =                 600.4972444920125554
    Total Energy =                       -437.9365450652991285
  Basis Set: (AUG-CC-PVTZ AUX)
    Blend: AUG-CC-PVTZ-RI
    Molecular point group: c1

    Geometry (in Angstrom), charge = 0, multiplicity = 1:

       Center              X                  Y                   Z               Mass
    ------------   -----------------  -----------------  -----------------  -----------------
         O           -1.417120015713    -1.289350409878     0.000297544840    15.994914619570
         O            1.417119984287    -1.289349409878    -0.000301455160    15.994914619570
         N           -0.000001015713     0.543662590122    -0.000015455160    14.003074004430
         C           -2.406762015713     0.919455590122    -0.000077455160    12.000000000000
         C            2.406762984287     0.919456590122     0.000071544840    12.000000000000
         C           -1.258396015713    -0.079577409878     0.000084544840    12.000000000000
         C            1.258395984287    -0.079576409878    -0.000099455160    12.000000000000
         C           -3.762404015713     0.227880590122    -0.000053455160    12.000000000000
         C            3.762403984287     0.227878590122     0.000089544840    12.000000000000
         H           -2.301813015713     1.569645590122    -0.878397455160     1.007825032230
         H           -2.301894015713     1.569833590122     0.878116544840     1.007825032230
         H            2.301797984287     1.569662590122     0.878377544840     1.007825032230
         H            2.301914984287     1.569818590122    -0.878136455160     1.007825032230
         H           -0.000001015713     1.357872590122    -0.000003455160     1.007825032230
         H           -3.870414015713    -0.407282409878    -0.880797455160     1.007825032230
         H           -4.566277015713     0.968487590122    -0.000069455160     1.007825032230
         H           -3.870398015713    -0.407239409878     0.880721544840     1.007825032230
         H            4.566277984287     0.968484590122     0.000107544840     1.007825032230
         H            3.870394984287    -0.407267409878     0.880847544840     1.007825032230
         H            3.870414984287    -0.407258409878    -0.880671455160     1.007825032230

  Basis Set: AUG-CC-PVTZ
    Blend: AUG-CC-PVTZ
  Basis Set: (AUG-CC-PVTZ AUX)
    Blend: AUG-CC-PVTZ-JKFIT
	 Reference Energy          =    -437.9365450652990717 [Eh]
	 Singles Energy            =      -0.0000000000000000 [Eh]
	 Same-Spin Energy          =      -0.4386277490265766 [Eh]
	 Opposite-Spin Energy      =      -1.4243791526252987 [Eh]
	 Correlation Energy        =      -1.8630069016518753 [Eh]
	 Total Energy              =    -439.7995519669509576 [Eh]

	 ================> DF-SCS-MP2 Energies <==================
	-----------------------------------------------------------
	 SCS Same-Spin Scale       =       0.3333333333333333 [-]
	 SCS Opposite-Spin Scale   =       1.2000000000000000 [-]
	 SCS Same-Spin Energy      =      -0.1462092496755255 [Eh]
	 SCS Opposite-Spin Energy  =      -1.7092549831503583 [Eh]
	 SCS Correlation Energy    =      -1.8554642328258839 [Eh]
	 SCS Total Energy          =    -439.7920092981249809 [Eh]
	-----------------------------------------------------------

  Dipole Moment: [D]
     X:     0.0000      Y:     5.6322      Z:     0.0000     Total:     5.6322

*** Psi4 exiting successfully. Buy a developer a beer!
