                               Psi4 1.3.2 release

  ==> Input File <==

--------------------------------------------------------------------------
#psi4
#
memory 32 gb

molecule  {
0 1
  O       -1.4171200    -1.3484060     0.0002970
  O        1.4171200    -1.3484050    -0.0003020
  N       -0.0000010     0.4846070    -0.0000160
  C       -2.4067620     0.8604000    -0.0000780
  C        2.4067630     0.8604010     0.0000710
  C       -1.2690814    -0.1165761     0.0000845
  C        1.2583960    -0.1386320    -0.0001000
  C       -3.7624040     0.1688250    -0.0000540
  C        3.7624040     0.1688230     0.0000890
  H       -2.3018130     1.5105900    -0.8783980
  H       -2.3018940     1.5107780     0.8781160
  H        2.3017980     1.5106070     0.8783770
  H        2.3019150     1.5107630    -0.8781370
  H       -0.0000010     1.4988170    -0.0000010
  H       -3.8704140    -0.4663380    -0.8807980
  H       -4.5662770     0.9094320    -0.0000700
  H       -3.8703980    -0.4662950     0.8807210
  H        4.5662780     0.9094290     0.0001070
  H        3.8703950    -0.4663230     0.8808470
  H        3.8704150    -0.4663140    -0.8806720
units angstrom
no_reorient  #important for SAPT in psi4, default
symmetry c1  #important for SAPT in psi4, default
}

set PROPERTIES_ORIGIN ["COM"]
properties('MP2/aug-cc-pvtz', properties = ['dipole'])
--------------------------------------------------------------------------

    Molecular point group: c1
  Charge       = 0
  Multiplicity = 1
  Basis Set: AUG-CC-PVTZ
    Blend: AUG-CC-PVTZ
  Basis Set: (AUG-CC-PVTZ AUX)
    Blend: AUG-CC-PVTZ-JKFIT

    Orbital Energies [Eh]
    ---------------------

    Doubly Occupied:

       1A    -20.538536     2A    -20.536229     3A    -15.616840
       4A    -11.370243     5A    -11.369089     6A    -11.257036
       7A    -11.256087     8A    -11.225515     9A    -11.224496
      10A     -1.399099    11A     -1.367580    12A     -1.243904
      13A     -1.075856    14A     -1.058446    15A     -0.940602
      16A     -0.883674    17A     -0.805835    18A     -0.775664
      19A     -0.707850    20A     -0.679141    21A     -0.660147
      22A     -0.641596    23A     -0.626731    24A     -0.603882
      25A     -0.576963    26A     -0.549175    27A     -0.532812
      28A     -0.527615    29A     -0.525621    30A     -0.523796
      31A     -0.504487    32A     -0.488354    33A     -0.462365
      34A     -0.421265    35A     -0.412515

  @DF-RHF Final Energy:  -437.97692021349883

   => Energetics <=

    Nuclear Repulsion Energy =            448.0381571297439791
    One-Electron Energy =               -1485.2520677281463577
    Two-Electron Energy =                 599.2369903849036064
    Total Energy =                       -437.9769202134988291
  Basis Set: (AUG-CC-PVTZ AUX)
    Blend: AUG-CC-PVTZ-RI
    Molecular point group: c1

    Geometry (in Angstrom), charge = 0, multiplicity = 1:

       Center              X                  Y                   Z               Mass
    ------------   -----------------  -----------------  -----------------  -----------------
         O           -1.416126633201    -1.292962522489     0.000297474933    15.994914619570
         O            1.418113366799    -1.292961522489    -0.000301525067    15.994914619570
         N            0.000992366799     0.540050477511    -0.000015525067    14.003074004430
         C           -2.405768633201     0.915843477511    -0.000077525067    12.000000000000
         C            2.407756366799     0.915844477511     0.000071474933    12.000000000000
         C           -1.268088033201    -0.061132622489     0.000084974933    12.000000000000
         C            1.259389366799    -0.083188522489    -0.000099525067    12.000000000000
         C           -3.761410633201     0.224268477511    -0.000053525067    12.000000000000
         C            3.763397366799     0.224266477511     0.000089474933    12.000000000000
         H           -2.300819633201     1.566033477511    -0.878397525067     1.007825032230
         H           -2.300900633201     1.566221477511     0.878116474933     1.007825032230
         H            2.302791366799     1.566050477511     0.878377474933     1.007825032230
         H            2.302908366799     1.566206477511    -0.878136525067     1.007825032230
         H            0.000992366799     1.554260477511    -0.000000525067     1.007825032230
         H           -3.869420633201    -0.410894522489    -0.880797525067     1.007825032230
         H           -4.565283633201     0.964875477511    -0.000069525067     1.007825032230
         H           -3.869404633201    -0.410851522489     0.880721474933     1.007825032230
         H            4.567271366799     0.964872477511     0.000107474933     1.007825032230
         H            3.871388366799    -0.410879522489     0.880847474933     1.007825032230
         H            3.871408366799    -0.410870522489    -0.880671525067     1.007825032230

  Basis Set: AUG-CC-PVTZ
    Blend: AUG-CC-PVTZ
  Basis Set: (AUG-CC-PVTZ AUX)
    Blend: AUG-CC-PVTZ-JKFIT
	 Reference Energy          =    -437.9769202134988291 [Eh]
	 Singles Energy            =      -0.0000000000000000 [Eh]
	 Same-Spin Energy          =      -0.4407242293483492 [Eh]
	 Opposite-Spin Energy      =      -1.4284281682598863 [Eh]
	 Correlation Energy        =      -1.8691523976082354 [Eh]
	 Total Energy              =    -439.8460726111070471 [Eh]

	 ================> DF-SCS-MP2 Energies <==================
	-----------------------------------------------------------
	 SCS Same-Spin Scale       =       0.3333333333333333 [-]
	 SCS Opposite-Spin Scale   =       1.2000000000000000 [-]
	 SCS Same-Spin Energy      =      -0.1469080764494497 [Eh]
	 SCS Opposite-Spin Energy  =      -1.7141138019118636 [Eh]
	 SCS Correlation Energy    =      -1.8610218783613133 [Eh]
	 SCS Total Energy          =    -439.8379420918601568 [Eh]
	-----------------------------------------------------------

  Dipole Moment: [D]
     X:    -0.0355      Y:     5.8693      Z:    -0.0000     Total:     5.8694

*** Psi4 exiting successfully. Buy a developer a beer!
