                               Psi4 1.3.2 release

  ==> Input File <==

--------------------------------------------------------------------------
#psi4
#
memory 32 gb

molecule  {
0 1
  O       -1.4171200    -1.3484060     0.0002970
  O        1.4171200    -1.3484050    -0.0003020
  N       -0.0000010     0.4846070    -0.0000160
  C       -2.4067620     0.8604000    -0.0000780
  C        2.4067630     0.8604010     0.0000710
  C       -1.3166487    -0.0036807     0.0000865
  C        1.2583960    -0.1386320    -0.0001000
  C       -3.7624040     0.1688250    -0.0000540
  C        3.7624040     0.1688230     0.0000890
  H       -2.3018130     1.5105900    -0.8783980
  H       -2.3018940     1.5107780     0.8781160
  H        2.3017980     1.5106070     0.8783770
  H        2.3019150     1.5107630    -0.8781370
  H       -0.0000010     1.4988170    -0.0000010
  H       -3.8704140    -0.4663380    -0.8807980
  H       -4.5662770     0.9094320    -0.0000700
  H       -3.8703980    -0.4662950     0.8807210
  H        4.5662780     0.9094290     0.0001070
  H        3.8703950    -0.4663230     0.8808470
  H        3.8704150    -0.4663140    -0.8806720
units angstrom
no_reorient  #important for SAPT in psi4, default
symmetry c1  #important for SAPT in psi4, default
}

set PROPERTIES_ORIGIN ["COM"]
properties('MP2/aug-cc-pvtz', properties = ['dipole'])
--------------------------------------------------------------------------

    Molecular point group: c1
  Charge       = 0
  Multiplicity = 1
  Basis Set: AUG-CC-PVTZ
    Blend: AUG-CC-PVTZ
  Basis Set: (AUG-CC-PVTZ AUX)
    Blend: AUG-CC-PVTZ-JKFIT

    Orbital Energies [Eh]
    ---------------------

    Doubly Occupied:

       1A    -20.539388     2A    -20.523541     3A    -15.622879
       4A    -11.378094     5A    -11.372134     6A    -11.260782
       7A    -11.257931     8A    -11.230999     9A    -11.225258
      10A     -1.393305    11A     -1.322977    12A     -1.230948
      13A     -1.098599    14A     -1.063200    15A     -0.951550
      16A     -0.894651    17A     -0.812440    18A     -0.768755
      19A     -0.711240    20A     -0.686080    21A     -0.668467
      22A     -0.646612    23A     -0.621777    24A     -0.580427
      25A     -0.573612    26A     -0.557784    27A     -0.535855
      28A     -0.527523    29A     -0.526579    30A     -0.519860
      31A     -0.504848    32A     -0.471164    33A     -0.454162
      34A     -0.413259    35A     -0.404591

  @DF-RHF Final Energy:  -437.93446822202463

   => Energetics <=

    Nuclear Repulsion Energy =            447.3452991165424351
    One-Electron Energy =               -1483.8569958717450845
    Two-Electron Energy =                 598.5772285331779585
    Total Energy =                       -437.9344682220246341
  Basis Set: (AUG-CC-PVTZ AUX)
    Blend: AUG-CC-PVTZ-RI
    Molecular point group: c1

    Geometry (in Angstrom), charge = 0, multiplicity = 1:

       Center              X                  Y                   Z               Mass
    ------------   -----------------  -----------------  -----------------  -----------------
         O           -1.411704475494    -1.303457994445     0.000297289000    15.994914619570
         O            1.422535524506    -1.303456994445    -0.000301711000    15.994914619570
         N            0.005414524506     0.529555005555    -0.000015711000    14.003074004430
         C           -2.401346475494     0.905348005555    -0.000077711000    12.000000000000
         C            2.412178524506     0.905349005555     0.000071289000    12.000000000000
         C           -1.311233175494     0.041267305555     0.000086789000    12.000000000000
         C            1.263811524506    -0.093683994445    -0.000099711000    12.000000000000
         C           -3.756988475494     0.213773005555    -0.000053711000    12.000000000000
         C            3.767819524506     0.213771005555     0.000089289000    12.000000000000
         H           -2.296397475494     1.555538005555    -0.878397711000     1.007825032230
         H           -2.296478475494     1.555726005555     0.878116289000     1.007825032230
         H            2.307213524506     1.555555005555     0.878377289000     1.007825032230
         H            2.307330524506     1.555711005555    -0.878136711000     1.007825032230
         H            0.005414524506     1.543765005555    -0.000000711000     1.007825032230
         H           -3.864998475494    -0.421389994445    -0.880797711000     1.007825032230
         H           -4.560861475494     0.954380005555    -0.000069711000     1.007825032230
         H           -3.864982475494    -0.421346994445     0.880721289000     1.007825032230
         H            4.571693524506     0.954377005555     0.000107289000     1.007825032230
         H            3.875810524506    -0.421374994445     0.880847289000     1.007825032230
         H            3.875830524506    -0.421365994445    -0.880671711000     1.007825032230

  Basis Set: AUG-CC-PVTZ
    Blend: AUG-CC-PVTZ
  Basis Set: (AUG-CC-PVTZ AUX)
    Blend: AUG-CC-PVTZ-JKFIT
	 Reference Energy          =    -437.9344682220246341 [Eh]
	 Singles Energy            =      -0.0000000000000000 [Eh]
	 Same-Spin Energy          =      -0.4448397948052104 [Eh]
	 Opposite-Spin Energy      =      -1.4364635224798992 [Eh]
	 Correlation Energy        =      -1.8813033172851095 [Eh]
	 Total Energy              =    -439.8157715393097646 [Eh]

	 ================> DF-SCS-MP2 Energies <==================
	-----------------------------------------------------------
	 SCS Same-Spin Scale       =       0.3333333333333333 [-]
	 SCS Opposite-Spin Scale   =       1.2000000000000000 [-]
	 SCS Same-Spin Energy      =      -0.1482799316017368 [Eh]
	 SCS Opposite-Spin Energy  =      -1.7237562269758790 [Eh]
	 SCS Correlation Energy    =      -1.8720361585776157 [Eh]
	 SCS Total Energy          =    -439.8065043806022345 [Eh]
	-----------------------------------------------------------

  Dipole Moment: [D]
     X:    -0.1660      Y:     6.2913      Z:    -0.0001     Total:     6.2935

*** Psi4 exiting successfully. Buy a developer a beer!
