                               Psi4 1.3.2 release

  ==> Input File <==

--------------------------------------------------------------------------
#psi4
#
memory 32 gb

molecule  {
0 1
  O       -1.4171200    -1.3484060     0.0002970
  O        1.4171200    -1.3484050    -0.0003020
  N       -0.0000010     0.4846070    -0.0000160
  C       -2.4067620     0.8604000    -0.0000780
  C        2.4067630     0.8604010     0.0000710
  C       -1.2583960    -0.1386330     0.0000840
  C        1.4376197    -0.2273951    -0.0001120
  C       -3.7624040     0.1688250    -0.0000540
  C        3.7624040     0.1688230     0.0000890
  H       -2.3018130     1.5105900    -0.8783980
  H       -2.3018940     1.5107780     0.8781160
  H        2.3017980     1.5106070     0.8783770
  H        2.3019150     1.5107630    -0.8781370
  H       -0.0000010     1.4988170    -0.0000010
  H       -3.8704140    -0.4663380    -0.8807980
  H       -4.5662770     0.9094320    -0.0000700
  H       -3.8703980    -0.4662950     0.8807210
  H        4.5662780     0.9094290     0.0001070
  H        3.8703950    -0.4663230     0.8808470
  H        3.8704150    -0.4663140    -0.8806720
units angstrom
no_reorient  #important for SAPT in psi4, default
symmetry c1  #important for SAPT in psi4, default
}

set PROPERTIES_ORIGIN ["COM"]
properties('MP2/aug-cc-pvtz', properties = ['dipole'])
--------------------------------------------------------------------------

    Molecular point group: c1
  Charge       = 0
  Multiplicity = 1
  Basis Set: AUG-CC-PVTZ
    Blend: AUG-CC-PVTZ
  Basis Set: (AUG-CC-PVTZ AUX)
    Blend: AUG-CC-PVTZ-JKFIT

    Orbital Energies [Eh]
    ---------------------

    Doubly Occupied:

       1A    -20.575174     2A    -20.514470     3A    -15.575355
       4A    -11.379302     5A    -11.345375     6A    -11.266933
       7A    -11.238741     8A    -11.236804     9A    -11.212228
      10A     -1.479774    11A     -1.366422    12A     -1.190010
      13A     -1.095026    14A     -1.043571    15A     -0.926024
      16A     -0.874617    17A     -0.776786    18A     -0.753056
      19A     -0.719498    20A     -0.672526    21A     -0.672402
      22A     -0.667135    23A     -0.631177    24A     -0.598492
      25A     -0.582580    26A     -0.551223    27A     -0.545713
      28A     -0.530024    29A     -0.529271    30A     -0.522313
      31A     -0.512809    32A     -0.486530    33A     -0.459973
      34A     -0.399752    35A     -0.396716

  @DF-RHF Final Energy:  -437.94779302545055

   => Energetics <=

    Nuclear Repulsion Energy =            447.8601612691294349
    One-Electron Energy =               -1484.9603003216284378
    Two-Electron Energy =                 599.1523460270483383
    Total Energy =                       -437.9477930254505509
  Basis Set: (AUG-CC-PVTZ AUX)
    Blend: AUG-CC-PVTZ-RI
    Molecular point group: c1

    Geometry (in Angstrom), charge = 0, multiplicity = 1:

       Center              X                  Y                   Z               Mass
    ------------   -----------------  -----------------  -----------------  -----------------
         O           -1.433781786850    -1.282659992872     0.000298637012    15.994914619570
         O            1.400458213150    -1.282658992872    -0.000300362988    15.994914619570
         N           -0.016662786850     0.550353007128    -0.000014362988    14.003074004430
         C           -2.423423786850     0.926146007128    -0.000076362988    12.000000000000
         C            2.390101213150     0.926147007128     0.000072637012    12.000000000000
         C           -1.275057786850    -0.072886992872     0.000085637012    12.000000000000
         C            1.420957913150    -0.161649092872    -0.000110362988    12.000000000000
         C           -3.779065786850     0.234571007128    -0.000052362988    12.000000000000
         C            3.745742213150     0.234569007128     0.000090637012    12.000000000000
         H           -2.318474786850     1.576336007128    -0.878396362988     1.007825032230
         H           -2.318555786850     1.576524007128     0.878117637012     1.007825032230
         H            2.285136213150     1.576353007128     0.878378637012     1.007825032230
         H            2.285253213150     1.576509007128    -0.878135362988     1.007825032230
         H           -0.016662786850     1.564563007128     0.000000637012     1.007825032230
         H           -3.887075786850    -0.400591992872    -0.880796362988     1.007825032230
         H           -4.582938786850     0.975178007128    -0.000068362988     1.007825032230
         H           -3.887059786850    -0.400548992872     0.880722637012     1.007825032230
         H            4.549616213150     0.975175007128     0.000108637012     1.007825032230
         H            3.853733213150    -0.400576992872     0.880848637012     1.007825032230
         H            3.853753213150    -0.400567992872    -0.880670362988     1.007825032230

  Basis Set: AUG-CC-PVTZ
    Blend: AUG-CC-PVTZ
  Basis Set: (AUG-CC-PVTZ AUX)
    Blend: AUG-CC-PVTZ-JKFIT
	 Reference Energy          =    -437.9477930254505509 [Eh]
	 Singles Energy            =      -0.0000000000000000 [Eh]
	 Same-Spin Energy          =      -0.4395950033099100 [Eh]
	 Opposite-Spin Energy      =      -1.4255925739676283 [Eh]
	 Correlation Energy        =      -1.8651875772775384 [Eh]
	 Total Energy              =    -439.8129806027280893 [Eh]

	 ================> DF-SCS-MP2 Energies <==================
	-----------------------------------------------------------
	 SCS Same-Spin Scale       =       0.3333333333333333 [-]
	 SCS Opposite-Spin Scale   =       1.2000000000000000 [-]
	 SCS Same-Spin Energy      =      -0.1465316677699700 [Eh]
	 SCS Opposite-Spin Energy  =      -1.7107110887611539 [Eh]
	 SCS Correlation Energy    =      -1.8572427565311238 [Eh]
	 SCS Total Energy          =    -439.8050357819817009 [Eh]
	-----------------------------------------------------------

  Dipole Moment: [D]
     X:     2.2143      Y:     5.1996      Z:    -0.0001     Total:     5.6514

*** Psi4 exiting successfully. Buy a developer a beer!
