                               Psi4 1.3.2 release

  ==> Input File <==

--------------------------------------------------------------------------
#psi4
#
memory 32 gb

molecule  {
0 1
  O       -1.4171200    -1.3484060     0.0002970
  O        1.4171200    -1.3484050    -0.0003020
  N       -0.0000010     0.4846070    -0.0000160
  C       -2.4067620     0.8604000    -0.0000780
  C        2.4067630     0.8604010     0.0000710
  C       -1.2583960    -0.1386330     0.0000840
  C        1.2583960    -0.1386320    -0.0001000
  C       -3.7624040     0.1688250    -0.0000540
  C        3.7624040     0.1688230     0.0000890
  H       -2.3018130     1.5105900    -0.8783980
  H       -2.3018940     1.5107780     0.8781160
  H        2.3017980     1.5106070     0.8783770
  H        2.3019150     1.5107630    -0.8781370
  H       -0.0000010     1.6988170     0.0000020
  H       -3.8704140    -0.4663380    -0.8807980
  H       -4.5662770     0.9094320    -0.0000700
  H       -3.8703980    -0.4662950     0.8807210
  H        4.5662780     0.9094290     0.0001070
  H        3.8703950    -0.4663230     0.8808470
  H        3.8704150    -0.4663140    -0.8806720
units angstrom
no_reorient  #important for SAPT in psi4, default
symmetry c1  #important for SAPT in psi4, default
}

set PROPERTIES_ORIGIN ["COM"]
properties('MP2/aug-cc-pvtz', properties = ['dipole'])
--------------------------------------------------------------------------

    Molecular point group: c1
  Charge       = 0
  Multiplicity = 1
  Basis Set: AUG-CC-PVTZ
    Blend: AUG-CC-PVTZ
  Basis Set: (AUG-CC-PVTZ AUX)
    Blend: AUG-CC-PVTZ-JKFIT

    Orbital Energies [Eh]
    ---------------------

    Doubly Occupied:

       1A    -20.538331     2A    -20.538329     3A    -15.630720
       4A    -11.368588     5A    -11.368571     6A    -11.254912
       7A    -11.254912     8A    -11.223650     9A    -11.223650
      10A     -1.401961    11A     -1.375676    12A     -1.225473
      13A     -1.071740    14A     -1.055250    15A     -0.937285
      16A     -0.880290    17A     -0.803907    18A     -0.732834
      19A     -0.700197    20A     -0.677885    21A     -0.658148
      22A     -0.639538    23A     -0.628343    24A     -0.596495
      25A     -0.576923    26A     -0.544748    27A     -0.531860
      28A     -0.527407    29A     -0.524798    30A     -0.523935
      31A     -0.503671    32A     -0.491423    33A     -0.460694
      34A     -0.421206    35A     -0.410245

  @DF-RHF Final Energy:  -437.94957038695350

   => Energetics <=

    Nuclear Repulsion Energy =            447.1417120290362277
    One-Electron Energy =               -1483.5753722279580415
    Two-Electron Energy =                 598.4840898119683743
    Total Energy =                       -437.9495703869534964
  Basis Set: (AUG-CC-PVTZ AUX)
    Blend: AUG-CC-PVTZ-RI
    Molecular point group: c1

    Geometry (in Angstrom), charge = 0, multiplicity = 1:

       Center              X                  Y                   Z               Mass
    ------------   -----------------  -----------------  -----------------  -----------------
         O           -1.417120015713    -1.292473536643     0.000297497993    15.994914619570
         O            1.417119984287    -1.292472536643    -0.000301502007    15.994914619570
         N           -0.000001015713     0.540539463357    -0.000015502007    14.003074004430
         C           -2.406762015713     0.916332463357    -0.000077502007    12.000000000000
         C            2.406762984287     0.916333463357     0.000071497993    12.000000000000
         C           -1.258396015713    -0.082700536643     0.000084497993    12.000000000000
         C            1.258395984287    -0.082699536643    -0.000099502007    12.000000000000
         C           -3.762404015713     0.224757463357    -0.000053502007    12.000000000000
         C            3.762403984287     0.224755463357     0.000089497993    12.000000000000
         H           -2.301813015713     1.566522463357    -0.878397502007     1.007825032230
         H           -2.301894015713     1.566710463357     0.878116497993     1.007825032230
         H            2.301797984287     1.566539463357     0.878377497993     1.007825032230
         H            2.301914984287     1.566695463357    -0.878136502007     1.007825032230
         H           -0.000001015713     1.754749463357     0.000002497993     1.007825032230
         H           -3.870414015713    -0.410405536643    -0.880797502007     1.007825032230
         H           -4.566277015713     0.965364463357    -0.000069502007     1.007825032230
         H           -3.870398015713    -0.410362536643     0.880721497993     1.007825032230
         H            4.566277984287     0.965361463357     0.000107497993     1.007825032230
         H            3.870394984287    -0.410390536643     0.880847497993     1.007825032230
         H            3.870414984287    -0.410381536643    -0.880671502007     1.007825032230

  Basis Set: AUG-CC-PVTZ
    Blend: AUG-CC-PVTZ
  Basis Set: (AUG-CC-PVTZ AUX)
    Blend: AUG-CC-PVTZ-JKFIT
	 Reference Energy          =    -437.9495703869534964 [Eh]
	 Singles Energy            =      -0.0000000000000000 [Eh]
	 Same-Spin Energy          =      -0.4418626251748599 [Eh]
	 Opposite-Spin Energy      =      -1.4316740648215420 [Eh]
	 Correlation Energy        =      -1.8735366899964019 [Eh]
	 Total Energy              =    -439.8231070769498956 [Eh]

	 ================> DF-SCS-MP2 Energies <==================
	-----------------------------------------------------------
	 SCS Same-Spin Scale       =       0.3333333333333333 [-]
	 SCS Opposite-Spin Scale   =       1.2000000000000000 [-]
	 SCS Same-Spin Energy      =      -0.1472875417249533 [Eh]
	 SCS Opposite-Spin Energy  =      -1.7180088777858504 [Eh]
	 SCS Correlation Energy    =      -1.8652964195108037 [Eh]
	 SCS Total Energy          =    -439.8148668064642948 [Eh]
	-----------------------------------------------------------

  Dipole Moment: [D]
     X:     0.0000      Y:     5.8986      Z:     0.0000     Total:     5.8986

*** Psi4 exiting successfully. Buy a developer a beer!
