                               Psi4 1.3.2 release

  ==> Input File <==

--------------------------------------------------------------------------
#psi4
#
memory 32 gb

molecule  {
0 1
  O       -1.4171200    -1.3484060     0.0002970
  O        1.4171200    -1.3484050    -0.0003020
  N       -0.0000010     0.4846070    -0.0000160
  C       -2.4067620     0.8604000    -0.0000780
  C        2.4067630     0.8604010     0.0000710
  C       -1.2583960    -0.1386330     0.0000840
  C        1.1687842    -0.0942505    -0.0000940
  C       -3.7624040     0.1688250    -0.0000540
  C        3.7624040     0.1688230     0.0000890
  H       -2.3018130     1.5105900    -0.8783980
  H       -2.3018940     1.5107780     0.8781160
  H        2.3017980     1.5106070     0.8783770
  H        2.3019150     1.5107630    -0.8781370
  H       -0.0000010     1.4988170    -0.0000010
  H       -3.8704140    -0.4663380    -0.8807980
  H       -4.5662770     0.9094320    -0.0000700
  H       -3.8703980    -0.4662950     0.8807210
  H        4.5662780     0.9094290     0.0001070
  H        3.8703950    -0.4663230     0.8808470
  H        3.8704150    -0.4663140    -0.8806720
units angstrom
no_reorient  #important for SAPT in psi4, default
symmetry c1  #important for SAPT in psi4, default
}

set PROPERTIES_ORIGIN ["COM"]
properties('MP2/aug-cc-pvtz', properties = ['dipole'])
--------------------------------------------------------------------------

    Molecular point group: c1
  Charge       = 0
  Multiplicity = 1
  Basis Set: AUG-CC-PVTZ
    Blend: AUG-CC-PVTZ
  Basis Set: (AUG-CC-PVTZ AUX)
    Blend: AUG-CC-PVTZ-JKFIT

    Orbital Energies [Eh]
    ---------------------

    Doubly Occupied:

       1A    -20.550785     2A    -20.520021     3A    -15.630997
       4A    -11.378938     5A    -11.363823     6A    -11.263472
       7A    -11.253967     8A    -11.229877     9A    -11.219795
      10A     -1.409862    11A     -1.350926    12A     -1.266565
      13A     -1.077524    14A     -1.049926    15A     -0.953472
      16A     -0.881032    17A     -0.822207    18A     -0.797145
      19A     -0.709123    20A     -0.670567    21A     -0.666659
      22A     -0.637957    23A     -0.631011    24A     -0.588348
      25A     -0.587629    26A     -0.549942    27A     -0.535597
      28A     -0.531831    29A     -0.522977    30A     -0.514661
      31A     -0.505753    32A     -0.486559    33A     -0.461623
      34A     -0.419354    35A     -0.404993

  @DF-RHF Final Energy:  -437.96290687177225

   => Energetics <=

    Nuclear Repulsion Energy =            448.5996467590406382
    One-Electron Energy =               -1486.2352745183845855
    Two-Electron Energy =                 599.6727208875718134
    Total Energy =                       -437.9629068717722475
  Basis Set: (AUG-CC-PVTZ AUX)
    Blend: AUG-CC-PVTZ-RI
    Molecular point group: c1

    Geometry (in Angstrom), charge = 0, multiplicity = 1:

       Center              X                  Y                   Z               Mass
    ------------   -----------------  -----------------  -----------------  -----------------
         O           -1.408789134793    -1.295037958807     0.000296963618    15.994914619570
         O            1.425450865207    -1.295036958807    -0.000302036382    15.994914619570
         N            0.008329865207     0.537975041193    -0.000016036382    14.003074004430
         C           -2.398431134793     0.913768041193    -0.000078036382    12.000000000000
         C            2.415093865207     0.913769041193     0.000070963618    12.000000000000
         C           -1.250065134793    -0.085264958807     0.000083963618    12.000000000000
         C            1.177115065207    -0.040882458807    -0.000094036382    12.000000000000
         C           -3.754073134793     0.222193041193    -0.000054036382    12.000000000000
         C            3.770734865207     0.222191041193     0.000088963618    12.000000000000
         H           -2.293482134793     1.563958041193    -0.878398036382     1.007825032230
         H           -2.293563134793     1.564146041193     0.878115963618     1.007825032230
         H            2.310128865207     1.563975041193     0.878376963618     1.007825032230
         H            2.310245865207     1.564131041193    -0.878137036382     1.007825032230
         H            0.008329865207     1.552185041193    -0.000001036382     1.007825032230
         H           -3.862083134793    -0.412969958807    -0.880798036382     1.007825032230
         H           -4.557946134793     0.962800041193    -0.000070036382     1.007825032230
         H           -3.862067134793    -0.412926958807     0.880720963618     1.007825032230
         H            4.574608865207     0.962797041193     0.000106963618     1.007825032230
         H            3.878725865207    -0.412954958807     0.880846963618     1.007825032230
         H            3.878745865207    -0.412945958807    -0.880672036382     1.007825032230

  Basis Set: AUG-CC-PVTZ
    Blend: AUG-CC-PVTZ
  Basis Set: (AUG-CC-PVTZ AUX)
    Blend: AUG-CC-PVTZ-JKFIT
	 Reference Energy          =    -437.9629068717722475 [Eh]
	 Singles Energy            =      -0.0000000000000000 [Eh]
	 Same-Spin Energy          =      -0.4413611650660929 [Eh]
	 Opposite-Spin Energy      =      -1.4297649268919574 [Eh]
	 Correlation Energy        =      -1.8711260919580504 [Eh]
	 Total Energy              =    -439.8340329637302943 [Eh]

	 ================> DF-SCS-MP2 Energies <==================
	-----------------------------------------------------------
	 SCS Same-Spin Scale       =       0.3333333333333333 [-]
	 SCS Opposite-Spin Scale   =       1.2000000000000000 [-]
	 SCS Same-Spin Energy      =      -0.1471203883553643 [Eh]
	 SCS Opposite-Spin Energy  =      -1.7157179122703490 [Eh]
	 SCS Correlation Energy    =      -1.8628383006257132 [Eh]
	 SCS Total Energy          =    -439.8257451723979443 [Eh]
	-----------------------------------------------------------

  Dipole Moment: [D]
     X:    -0.9419      Y:     6.0336      Z:     0.0001     Total:     6.1067

*** Psi4 exiting successfully. Buy a developer a beer!
