                               Psi4 1.4a3.dev225

  ==> Input File <==

--------------------------------------------------------------------------
#psi4
#
memory 32 gb

molecule  {
0 1
  O        1.4171000     1.3483990     0.0000050
  O       -1.4171000     1.3483990    -0.0000070
  N        0.0000000    -0.4846440    -0.0000030
  C        2.4067740    -0.8603910    -0.0000090
  C       -2.4067740    -0.8603910     0.0000060
  C        1.2583980     0.1386290    -0.0000010
  C       -1.2763202     0.1475057    -0.0000020
  C        3.7624160    -0.1688120     0.0000070
  C       -3.7624160    -0.1688120     0.0000020
  H        2.3018640    -1.5106550    -0.8782810
  H        2.3018560    -1.5106830     0.8782410
  H       -2.3018590    -1.5106620     0.8782720
  H       -2.3018600    -1.5106760    -0.8782500
  H        0.0000000    -1.4988460    -0.0000020
  H        3.8704210     0.4663420    -0.8807450
  H        4.5662930    -0.9094080     0.0000080
  H        3.8704060     0.4663280     0.8807730
  H       -4.5662930    -0.9094090     0.0000000
  H       -3.8704160     0.4663350     0.8807610
  H       -3.8704100     0.4663350    -0.8807570
units angstrom
no_reorient  #important for SAPT in psi4, default
symmetry c1  #important for SAPT in psi4, default
}

set PROPERTIES_ORIGIN ["COM"]
properties('MP2/aug-cc-pvtz', properties = ['dipole'])
--------------------------------------------------------------------------

    Molecular point group: c1
  Charge       = 0
  Multiplicity = 1
  Basis Set: AUG-CC-PVTZ
    Blend: AUG-CC-PVTZ
  Basis Set: (AUG-CC-PVTZ AUX)
    Blend: AUG-CC-PVTZ-JKFIT

    Orbital Energies [Eh]
    ---------------------

    Doubly Occupied:

       1A    -20.542024     2A    -20.536103     3A    -15.612513
       4A    -11.369406     5A    -11.366452     6A    -11.256383
       7A    -11.254208     8A    -11.225392     9A    -11.223268
      10A     -1.406584    11A     -1.378898    12A     -1.239521
      13A     -1.073435    14A     -1.056543    15A     -0.936213
      16A     -0.881220    17A     -0.801295    18A     -0.773384
      19A     -0.708458    20A     -0.678642    21A     -0.658811
      22A     -0.640560    23A     -0.631750    24A     -0.608943
      25A     -0.576574    26A     -0.547246    27A     -0.532459
      28A     -0.528608    29A     -0.525388    30A     -0.524930
      31A     -0.504519    32A     -0.493013    33A     -0.463662
      34A     -0.422719    35A     -0.410960

  @DF-RHF Final Energy:  -437.98047965104934

   => Energetics <=

    Nuclear Repulsion Energy =            448.1539287813747023
    One-Electron Energy =               -1485.4886578656598886
    Two-Electron Energy =                 599.3542494332359638
    Total Energy =                       -437.9804796510493361
  Basis Set: (AUG-CC-PVTZ AUX)
    Blend: AUG-CC-PVTZ-RI
    Molecular point group: c1

    Geometry (in Angstrom), charge = 0, multiplicity = 1:

       Center              X                  Y                   Z               Mass
    ------------   -----------------  -----------------  -----------------  -----------------
         O            1.418766145694     1.290080869260     0.000005138230    15.994914619570
         O           -1.415433854306     1.290080869260    -0.000006861770    15.994914619570
         N            0.001666145694    -0.542962130740    -0.000002861770    14.003074004430
         C            2.408440145694    -0.918709130740    -0.000008861770    12.000000000000
         C           -2.405107854306    -0.918709130740     0.000006138230    12.000000000000
         C            1.260064145694     0.080310869260    -0.000000861770    12.000000000000
         C           -1.274654054306     0.089187569260    -0.000001861770    12.000000000000
         C            3.764082145694    -0.227130130740     0.000007138230    12.000000000000
         C           -3.760749854306    -0.227130130740     0.000002138230    12.000000000000
         H            2.303530145694    -1.568973130740    -0.878280861770     1.007825032230
         H            2.303522145694    -1.569001130740     0.878241138230     1.007825032230
         H           -2.300192854306    -1.568980130740     0.878272138230     1.007825032230
         H           -2.300193854306    -1.568994130740    -0.878249861770     1.007825032230
         H            0.001666145694    -1.557164130740    -0.000001861770     1.007825032230
         H            3.872087145694     0.408023869260    -0.880744861770     1.007825032230
         H            4.567959145694    -0.967726130740     0.000008138230     1.007825032230
         H            3.872072145694     0.408009869260     0.880773138230     1.007825032230
         H           -4.564626854306    -0.967727130740     0.000000138230     1.007825032230
         H           -3.868749854306     0.408016869260     0.880761138230     1.007825032230
         H           -3.868743854306     0.408016869260    -0.880756861770     1.007825032230

  Basis Set: AUG-CC-PVTZ
    Blend: AUG-CC-PVTZ
  Basis Set: (AUG-CC-PVTZ AUX)
    Blend: AUG-CC-PVTZ-JKFIT
	 Reference Energy          =    -437.9804796510493361 [Eh]
	 Singles Energy            =      -0.0000000000000000 [Eh]
	 Same-Spin Energy          =      -0.4398984176063556 [Eh]
	 Opposite-Spin Energy      =      -1.4267397146626832 [Eh]
	 Correlation Energy        =      -1.8666381322690389 [Eh]
	 Total Energy              =    -439.8471177833183674 [Eh]

	 ================> DF-SCS-MP2 Energies <==================
	-----------------------------------------------------------
	 SCS Same-Spin Scale       =       0.3333333333333333 [-]
	 SCS Opposite-Spin Scale   =       1.2000000000000000 [-]
	 SCS Same-Spin Energy      =      -0.1466328058687852 [Eh]
	 SCS Opposite-Spin Energy  =      -1.7120876575952197 [Eh]
	 SCS Correlation Energy    =      -1.8587204634640049 [Eh]
	 SCS Total Energy          =    -439.8392001145133463 [Eh]
	-----------------------------------------------------------

  Dipole Moment: [D]
     X:    -0.1998      Y:    -5.7183      Z:    -0.0000     Total:     5.7217

*** Psi4 exiting successfully. Buy a developer a beer!
