                               Psi4 1.3.2 release

  ==> Input File <==

--------------------------------------------------------------------------
#psi4
#
memory 32 gb

molecule  {
0 1
  O       -1.4171200    -1.3484060     0.0002970
  O        1.4171200    -1.3484050    -0.0003020
  N       -0.0000010     0.4846070    -0.0000160
  C       -2.4067620     0.8604000    -0.0000780
  C        2.4067630     0.8604010     0.0000710
  C       -1.2583960    -0.1386330     0.0000840
  C        1.0791723    -0.0498689    -0.0000880
  C       -3.7624040     0.1688250    -0.0000540
  C        3.7624040     0.1688230     0.0000890
  H       -2.3018130     1.5105900    -0.8783980
  H       -2.3018940     1.5107780     0.8781160
  H        2.3017980     1.5106070     0.8783770
  H        2.3019150     1.5107630    -0.8781370
  H       -0.0000010     1.4988170    -0.0000010
  H       -3.8704140    -0.4663380    -0.8807980
  H       -4.5662770     0.9094320    -0.0000700
  H       -3.8703980    -0.4662950     0.8807210
  H        4.5662780     0.9094290     0.0001070
  H        3.8703950    -0.4663230     0.8808470
  H        3.8704150    -0.4663140    -0.8806720
units angstrom
no_reorient  #important for SAPT in psi4, default
symmetry c1  #important for SAPT in psi4, default
}

set PROPERTIES_ORIGIN ["COM"]
properties('MP2/aug-cc-pvtz', properties = ['dipole'])
--------------------------------------------------------------------------

    Molecular point group: c1
  Charge       = 0
  Multiplicity = 1
  Basis Set: AUG-CC-PVTZ
    Blend: AUG-CC-PVTZ
  Basis Set: (AUG-CC-PVTZ AUX)
    Blend: AUG-CC-PVTZ-JKFIT

    Orbital Energies [Eh]
    ---------------------

    Doubly Occupied:

       1A    -20.563800     2A    -20.499584     3A    -15.644019
       4A    -11.389058     5A    -11.356130     6A    -11.271153
       7A    -11.253733     8A    -11.235352     9A    -11.215677
      10A     -1.427826    11A     -1.358271    12A     -1.252541
      13A     -1.087127    14A     -1.040863    15A     -0.971948
      16A     -0.881139    17A     -0.840472    18A     -0.815891
      19A     -0.716523    20A     -0.679464    21A     -0.654607
      22A     -0.640190    23A     -0.638684    24A     -0.598466
      25A     -0.564598    26A     -0.554147    27A     -0.540393
      28A     -0.533157    29A     -0.527228    30A     -0.507234
      31A     -0.496724    32A     -0.488359    33A     -0.465439
      34A     -0.402419    35A     -0.388090

  @DF-RHF Final Energy:  -437.91387910563611

   => Energetics <=

    Nuclear Repulsion Energy =            449.2312103460089929
    One-Electron Energy =               -1487.2895679718849351
    Two-Electron Energy =                 600.1444785202398862
    Total Energy =                       -437.9138791056360560
  Basis Set: (AUG-CC-PVTZ AUX)
    Blend: AUG-CC-PVTZ-RI
    Molecular point group: c1

    Geometry (in Angstrom), charge = 0, multiplicity = 1:

       Center              X                  Y                   Z               Mass
    ------------   -----------------  -----------------  -----------------  -----------------
         O           -1.400458244576    -1.299163953649     0.000296405820    15.994914619570
         O            1.433781755424    -1.299162953649    -0.000302594180    15.994914619570
         N            0.016660755424     0.533849046351    -0.000016594180    14.003074004430
         C           -2.390100244576     0.909642046351    -0.000078594180    12.000000000000
         C            2.423424755424     0.909643046351     0.000070405820    12.000000000000
         C           -1.241734244576    -0.089390953649     0.000083405820    12.000000000000
         C            1.095834055424    -0.000626853649    -0.000088594180    12.000000000000
         C           -3.745742244576     0.218067046351    -0.000054594180    12.000000000000
         C            3.779065755424     0.218065046351     0.000088405820    12.000000000000
         H           -2.285151244576     1.559832046351    -0.878398594180     1.007825032230
         H           -2.285232244576     1.560020046351     0.878115405820     1.007825032230
         H            2.318459755424     1.559849046351     0.878376405820     1.007825032230
         H            2.318576755424     1.560005046351    -0.878137594180     1.007825032230
         H            0.016660755424     1.548059046351    -0.000001594180     1.007825032230
         H           -3.853752244576    -0.417095953649    -0.880798594180     1.007825032230
         H           -4.549615244576     0.958674046351    -0.000070594180     1.007825032230
         H           -3.853736244576    -0.417052953649     0.880720405820     1.007825032230
         H            4.582939755424     0.958671046351     0.000106405820     1.007825032230
         H            3.887056755424    -0.417080953649     0.880846405820     1.007825032230
         H            3.887076755424    -0.417071953649    -0.880672594180     1.007825032230

  Basis Set: AUG-CC-PVTZ
    Blend: AUG-CC-PVTZ
  Basis Set: (AUG-CC-PVTZ AUX)
    Blend: AUG-CC-PVTZ-JKFIT
	 Reference Energy          =    -437.9138791056361129 [Eh]
	 Singles Energy            =      -0.0000000000000000 [Eh]
	 Same-Spin Energy          =      -0.4429187277949832 [Eh]
	 Opposite-Spin Energy      =      -1.4329196027369040 [Eh]
	 Correlation Energy        =      -1.8758383305318871 [Eh]
	 Total Energy              =    -439.7897174361680186 [Eh]

	 ================> DF-SCS-MP2 Energies <==================
	-----------------------------------------------------------
	 SCS Same-Spin Scale       =       0.3333333333333333 [-]
	 SCS Opposite-Spin Scale   =       1.2000000000000000 [-]
	 SCS Same-Spin Energy      =      -0.1476395759316610 [Eh]
	 SCS Opposite-Spin Energy  =      -1.7195035232842848 [Eh]
	 SCS Correlation Energy    =      -1.8671430992159459 [Eh]
	 SCS Total Energy          =    -439.7810222048520359 [Eh]
	-----------------------------------------------------------

  Dipole Moment: [D]
     X:    -1.8074      Y:     6.3181      Z:     0.0002     Total:     6.5715

*** Psi4 exiting successfully. Buy a developer a beer!
