                               Psi4 1.3.2 release

  ==> Input File <==

--------------------------------------------------------------------------
#psi4
#
memory 32 gb

molecule  {
0 1
  O       -1.4171200    -1.3484060     0.0002970
  O        1.4171200    -1.3484050    -0.0003020
  N       -0.0000010     0.4846070    -0.0000160
  C       -2.4067620     0.8604000    -0.0000780
  C        2.4067630     0.8604010     0.0000710
  C       -1.2583960    -0.1386330     0.0000840
  C        1.2583960    -0.1386320    -0.0001000
  C       -3.7624040     0.1688250    -0.0000540
  C        3.7624040     0.1688230     0.0000890
  H       -2.3018130     1.5105900    -0.8783980
  H       -2.3018940     1.5107780     0.8781160
  H        2.3017980     1.5106070     0.8783770
  H        2.3019150     1.5107630    -0.8781370
  H       -0.0000010     1.3988170    -0.0000025
  H       -3.8704140    -0.4663380    -0.8807980
  H       -4.5662770     0.9094320    -0.0000700
  H       -3.8703980    -0.4662950     0.8807210
  H        4.5662780     0.9094290     0.0001070
  H        3.8703950    -0.4663230     0.8808470
  H        3.8704150    -0.4663140    -0.8806720
units angstrom
no_reorient  #important for SAPT in psi4, default
symmetry c1  #important for SAPT in psi4, default
}

set PROPERTIES_ORIGIN ["COM"]
properties('MP2/aug-cc-pvtz', properties = ['dipole'])
--------------------------------------------------------------------------

    Molecular point group: c1
  Charge       = 0
  Multiplicity = 1
  Basis Set: AUG-CC-PVTZ
    Blend: AUG-CC-PVTZ
  Basis Set: (AUG-CC-PVTZ AUX)
    Blend: AUG-CC-PVTZ-JKFIT

    Orbital Energies [Eh]
    ---------------------

    Doubly Occupied:

       1A    -20.538771     2A    -20.538769     3A    -15.606046
       4A    -11.368759     5A    -11.368744     6A    -11.256139
       7A    -11.256138     8A    -11.224712     9A    -11.224712
      10A     -1.405234    11A     -1.376169    12A     -1.260507
      13A     -1.073308    14A     -1.057271    15A     -0.939247
      16A     -0.882157    17A     -0.806237    18A     -0.805205
      19A     -0.709042    20A     -0.678930    21A     -0.659963
      22A     -0.640713    23A     -0.629600    24A     -0.611726
      25A     -0.578971    26A     -0.548482    27A     -0.532662
      28A     -0.527975    29A     -0.525705    30A     -0.524724
      31A     -0.504621    32A     -0.491875    33A     -0.463809
      34A     -0.425255    35A     -0.411711

  @DF-RHF Final Energy:  -437.97403401927454

   => Energetics <=

    Nuclear Repulsion Energy =            448.8494027116104803
    One-Electron Energy =               -1486.7390959691658736
    Two-Electron Energy =                 599.9156592382807958
    Total Energy =                       -437.9740340192745407
  Basis Set: (AUG-CC-PVTZ AUX)
    Blend: AUG-CC-PVTZ-RI
    Molecular point group: c1

    Geometry (in Angstrom), charge = 0, multiplicity = 1:

       Center              X                  Y                   Z               Mass
    ------------   -----------------  -----------------  -----------------  -----------------
         O           -1.417120015713    -1.290131191569     0.000297533128    15.994914619570
         O            1.417119984287    -1.290130191569    -0.000301466872    15.994914619570
         N           -0.000001015713     0.542881808431    -0.000015466872    14.003074004430
         C           -2.406762015713     0.918674808431    -0.000077466872    12.000000000000
         C            2.406762984287     0.918675808431     0.000071533128    12.000000000000
         C           -1.258396015713    -0.080358191569     0.000084533128    12.000000000000
         C            1.258395984287    -0.080357191569    -0.000099466872    12.000000000000
         C           -3.762404015713     0.227099808431    -0.000053466872    12.000000000000
         C            3.762403984287     0.227097808431     0.000089533128    12.000000000000
         H           -2.301813015713     1.568864808431    -0.878397466872     1.007825032230
         H           -2.301894015713     1.569052808431     0.878116533128     1.007825032230
         H            2.301797984287     1.568881808431     0.878377533128     1.007825032230
         H            2.301914984287     1.569037808431    -0.878136466872     1.007825032230
         H           -0.000001015713     1.457091808431    -0.000001966872     1.007825032230
         H           -3.870414015713    -0.408063191569    -0.880797466872     1.007825032230
         H           -4.566277015713     0.967706808431    -0.000069466872     1.007825032230
         H           -3.870398015713    -0.408020191569     0.880721533128     1.007825032230
         H            4.566277984287     0.967703808431     0.000107533128     1.007825032230
         H            3.870394984287    -0.408048191569     0.880847533128     1.007825032230
         H            3.870414984287    -0.408039191569    -0.880671466872     1.007825032230

  Basis Set: AUG-CC-PVTZ
    Blend: AUG-CC-PVTZ
  Basis Set: (AUG-CC-PVTZ AUX)
    Blend: AUG-CC-PVTZ-JKFIT
	 Reference Energy          =    -437.9740340192745407 [Eh]
	 Singles Energy            =      -0.0000000000000000 [Eh]
	 Same-Spin Energy          =      -0.4392860181016342 [Eh]
	 Opposite-Spin Energy      =      -1.4254774033488964 [Eh]
	 Correlation Energy        =      -1.8647634214505306 [Eh]
	 Total Energy              =    -439.8387974407250454 [Eh]

	 ================> DF-SCS-MP2 Energies <==================
	-----------------------------------------------------------
	 SCS Same-Spin Scale       =       0.3333333333333333 [-]
	 SCS Opposite-Spin Scale   =       1.2000000000000000 [-]
	 SCS Same-Spin Energy      =      -0.1464286727005447 [Eh]
	 SCS Opposite-Spin Energy  =      -1.7105728840186756 [Eh]
	 SCS Correlation Energy    =      -1.8570015567192204 [Eh]
	 SCS Total Energy          =    -439.8310355759937806 [Eh]
	-----------------------------------------------------------

  Dipole Moment: [D]
     X:     0.0000      Y:     5.7020      Z:     0.0000     Total:     5.7020

*** Psi4 exiting successfully. Buy a developer a beer!
