                               Psi4 1.3.2 release

  ==> Input File <==

--------------------------------------------------------------------------
#psi4
#
memory 32 gb

molecule  {
0 1
  O       -1.4171200    -1.3484060     0.0002970
  O        1.4171200    -1.3484050    -0.0003020
  N       -0.0000010     0.4846070    -0.0000160
  C       -2.4067620     0.8604000    -0.0000780
  C        2.4067630     0.8604010     0.0000710
  C       -1.2583960    -0.1386330     0.0000840
  C        1.2583960    -0.1386320    -0.0001000
  C       -3.7624040     0.1688250    -0.0000540
  C        3.7624040     0.1688230     0.0000890
  H       -2.3018130     1.5105900    -0.8783980
  H       -2.3018940     1.5107780     0.8781160
  H        2.3017980     1.5106070     0.8783770
  H        2.3019150     1.5107630    -0.8781370
  H       -0.0000010     1.5988170     0.0000005
  H       -3.8704140    -0.4663380    -0.8807980
  H       -4.5662770     0.9094320    -0.0000700
  H       -3.8703980    -0.4662950     0.8807210
  H        4.5662780     0.9094290     0.0001070
  H        3.8703950    -0.4663230     0.8808470
  H        3.8704150    -0.4663140    -0.8806720
units angstrom
no_reorient  #important for SAPT in psi4, default
symmetry c1  #important for SAPT in psi4, default
}

set PROPERTIES_ORIGIN ["COM"]
properties('MP2/aug-cc-pvtz', properties = ['dipole'])
--------------------------------------------------------------------------

    Molecular point group: c1
  Charge       = 0
  Multiplicity = 1
  Basis Set: AUG-CC-PVTZ
    Blend: AUG-CC-PVTZ
  Basis Set: (AUG-CC-PVTZ AUX)
    Blend: AUG-CC-PVTZ-JKFIT

    Orbital Energies [Eh]
    ---------------------

    Doubly Occupied:

       1A    -20.538346     2A    -20.538344     3A    -15.624090
       4A    -11.368532     5A    -11.368516     6A    -11.255364
       7A    -11.255363     8A    -11.224028     9A    -11.224028
      10A     -1.402589    11A     -1.375742    12A     -1.233794
      13A     -1.072294    14A     -1.055851    15A     -0.937910
      16A     -0.880766    17A     -0.804282    18A     -0.751722
      19A     -0.705168    20A     -0.678172    21A     -0.658729
      22A     -0.639973    23A     -0.628725    24A     -0.602801
      25A     -0.577479    26A     -0.546297    27A     -0.532133
      28A     -0.527665    29A     -0.525138    30A     -0.524185
      31A     -0.504013    32A     -0.491544    33A     -0.461948
      34A     -0.422264    35A     -0.410640

  @DF-RHF Final Energy:  -437.96926955702224

   => Energetics <=

    Nuclear Repulsion Energy =            447.6465116380575751
    One-Electron Energy =               -1484.5346919240225816
    Two-Electron Energy =                 598.9189107289428193
    Total Energy =                       -437.9692695570222440
  Basis Set: (AUG-CC-PVTZ AUX)
    Blend: AUG-CC-PVTZ-RI
    Molecular point group: c1

    Geometry (in Angstrom), charge = 0, multiplicity = 1:

       Center              X                  Y                   Z               Mass
    ------------   -----------------  -----------------  -----------------  -----------------
         O           -1.417120015713    -1.291692754952     0.000297509704    15.994914619570
         O            1.417119984287    -1.291691754952    -0.000301490296    15.994914619570
         N           -0.000001015713     0.541320245048    -0.000015490296    14.003074004430
         C           -2.406762015713     0.917113245048    -0.000077490296    12.000000000000
         C            2.406762984287     0.917114245048     0.000071509704    12.000000000000
         C           -1.258396015713    -0.081919754952     0.000084509704    12.000000000000
         C            1.258395984287    -0.081918754952    -0.000099490296    12.000000000000
         C           -3.762404015713     0.225538245048    -0.000053490296    12.000000000000
         C            3.762403984287     0.225536245048     0.000089509704    12.000000000000
         H           -2.301813015713     1.567303245048    -0.878397490296     1.007825032230
         H           -2.301894015713     1.567491245048     0.878116509704     1.007825032230
         H            2.301797984287     1.567320245048     0.878377509704     1.007825032230
         H            2.301914984287     1.567476245048    -0.878136490296     1.007825032230
         H           -0.000001015713     1.655530245048     0.000001009704     1.007825032230
         H           -3.870414015713    -0.409624754952    -0.880797490296     1.007825032230
         H           -4.566277015713     0.966145245048    -0.000069490296     1.007825032230
         H           -3.870398015713    -0.409581754952     0.880721509704     1.007825032230
         H            4.566277984287     0.966142245048     0.000107509704     1.007825032230
         H            3.870394984287    -0.409609754952     0.880847509704     1.007825032230
         H            3.870414984287    -0.409600754952    -0.880671490296     1.007825032230

  Basis Set: AUG-CC-PVTZ
    Blend: AUG-CC-PVTZ
  Basis Set: (AUG-CC-PVTZ AUX)
    Blend: AUG-CC-PVTZ-JKFIT
	 Reference Energy          =    -437.9692695570222440 [Eh]
	 Singles Energy            =      -0.0000000000000000 [Eh]
	 Same-Spin Energy          =      -0.4409520250415116 [Eh]
	 Opposite-Spin Energy      =      -1.4292282523775315 [Eh]
	 Correlation Energy        =      -1.8701802774190430 [Eh]
	 Total Energy              =    -439.8394498344412682 [Eh]

	 ================> DF-SCS-MP2 Energies <==================
	-----------------------------------------------------------
	 SCS Same-Spin Scale       =       0.3333333333333333 [-]
	 SCS Opposite-Spin Scale   =       1.2000000000000000 [-]
	 SCS Same-Spin Energy      =      -0.1469840083471705 [Eh]
	 SCS Opposite-Spin Energy  =      -1.7150739028530377 [Eh]
	 SCS Correlation Energy    =      -1.8620579112002082 [Eh]
	 SCS Total Energy          =    -439.8313274682224687 [Eh]
	-----------------------------------------------------------

  Dipole Moment: [D]
     X:     0.0000      Y:     5.8377      Z:     0.0000     Total:     5.8377

*** Psi4 exiting successfully. Buy a developer a beer!
