                               Psi4 1.3.2 release

  ==> Input File <==

--------------------------------------------------------------------------
#psi4
#
memory 32 gb

molecule  {
0 1
  O       -1.4171200    -1.3484060     0.0002970
  O        1.4171200    -1.3484050    -0.0003020
  N       -0.0000010     0.4846070    -0.0000160
  C       -2.4067620     0.8604000    -0.0000780
  C        2.4067630     0.8604010     0.0000710
  C       -1.2988056    -0.0493336     0.0000888
  C        1.2583960    -0.1386320    -0.0001000
  C       -3.7624040     0.1688250    -0.0000540
  C        3.7624040     0.1688230     0.0000890
  H       -2.3018130     1.5105900    -0.8783980
  H       -2.3018940     1.5107780     0.8781160
  H        2.3017980     1.5106070     0.8783770
  H        2.3019150     1.5107630    -0.8781370
  H       -0.0000010     1.4988170    -0.0000010
  H       -3.8704140    -0.4663380    -0.8807980
  H       -4.5662770     0.9094320    -0.0000700
  H       -3.8703980    -0.4662950     0.8807210
  H        4.5662780     0.9094290     0.0001070
  H        3.8703950    -0.4663230     0.8808470
  H        3.8704150    -0.4663140    -0.8806720
units angstrom
no_reorient  #important for SAPT in psi4, default
symmetry c1  #important for SAPT in psi4, default
}

set PROPERTIES_ORIGIN ["COM"]
properties('MP2/aug-cc-pvtz', properties = ['dipole'])
--------------------------------------------------------------------------

    Molecular point group: c1
  Charge       = 0
  Multiplicity = 1
  Basis Set: AUG-CC-PVTZ
    Blend: AUG-CC-PVTZ
  Basis Set: (AUG-CC-PVTZ AUX)
    Blend: AUG-CC-PVTZ-JKFIT

    Orbital Energies [Eh]
    ---------------------

    Doubly Occupied:

       1A    -20.538947     2A    -20.529005     3A    -15.620285
       4A    -11.375176     5A    -11.370847     6A    -11.259682
       7A    -11.257156     8A    -11.228816     9A    -11.224926
      10A     -1.394278    11A     -1.338945    12A     -1.237873
      13A     -1.088442    14A     -1.061881    15A     -0.947073
      16A     -0.890401    17A     -0.809625    18A     -0.771481
      19A     -0.709476    20A     -0.682908    21A     -0.664292
      22A     -0.644898    23A     -0.622852    24A     -0.588845
      25A     -0.574537    26A     -0.554903    27A     -0.534486
      28A     -0.527277    29A     -0.524736    30A     -0.524321
      31A     -0.504699    32A     -0.477496    33A     -0.458043
      34A     -0.414218    35A     -0.412292

  @DF-RHF Final Energy:  -437.95648779197791

   => Energetics <=

    Nuclear Repulsion Energy =            447.5891554308805667
    One-Electron Energy =               -1484.3610519470394138
    Two-Electron Energy =                 598.8154087241809975
    Total Energy =                       -437.9564877919779065
  Basis Set: (AUG-CC-PVTZ AUX)
    Blend: AUG-CC-PVTZ-RI
    Molecular point group: c1

    Geometry (in Angstrom), charge = 0, multiplicity = 1:

       Center              X                  Y                   Z               Mass
    ------------   -----------------  -----------------  -----------------  -----------------
         O           -1.413363283166    -1.299213811497     0.000297075178    15.994914619570
         O            1.420876716834    -1.299212811497    -0.000301924822    15.994914619570
         N            0.003755716834     0.533799188503    -0.000015924822    14.003074004430
         C           -2.403005283166     0.909592188503    -0.000077924822    12.000000000000
         C            2.410519716834     0.909593188503     0.000071075178    12.000000000000
         C           -1.295048883166    -0.000141411497     0.000088875178    12.000000000000
         C            1.262152716834    -0.089439811497    -0.000099924822    12.000000000000
         C           -3.758647283166     0.218017188503    -0.000053924822    12.000000000000
         C            3.766160716834     0.218015188503     0.000089075178    12.000000000000
         H           -2.298056283166     1.559782188503    -0.878397924822     1.007825032230
         H           -2.298137283166     1.559970188503     0.878116075178     1.007825032230
         H            2.305554716834     1.559799188503     0.878377075178     1.007825032230
         H            2.305671716834     1.559955188503    -0.878136924822     1.007825032230
         H            0.003755716834     1.548009188503    -0.000000924822     1.007825032230
         H           -3.866657283166    -0.417145811497    -0.880797924822     1.007825032230
         H           -4.562520283166     0.958624188503    -0.000069924822     1.007825032230
         H           -3.866641283166    -0.417102811497     0.880721075178     1.007825032230
         H            4.570034716834     0.958621188503     0.000107075178     1.007825032230
         H            3.874151716834    -0.417130811497     0.880847075178     1.007825032230
         H            3.874171716834    -0.417121811497    -0.880671924822     1.007825032230

  Basis Set: AUG-CC-PVTZ
    Blend: AUG-CC-PVTZ
  Basis Set: (AUG-CC-PVTZ AUX)
    Blend: AUG-CC-PVTZ-JKFIT
	 Reference Energy          =    -437.9564877919779065 [Eh]
	 Singles Energy            =      -0.0000000000000000 [Eh]
	 Same-Spin Energy          =      -0.4430297272410517 [Eh]
	 Opposite-Spin Energy      =      -1.4329809315635011 [Eh]
	 Correlation Energy        =      -1.8760106588045529 [Eh]
	 Total Energy              =    -439.8324984507824524 [Eh]

	 ================> DF-SCS-MP2 Energies <==================
	-----------------------------------------------------------
	 SCS Same-Spin Scale       =       0.3333333333333333 [-]
	 SCS Opposite-Spin Scale   =       1.2000000000000000 [-]
	 SCS Same-Spin Energy      =      -0.1476765757470172 [Eh]
	 SCS Opposite-Spin Energy  =      -1.7195771178762014 [Eh]
	 SCS Correlation Energy    =      -1.8672536936232187 [Eh]
	 SCS Total Energy          =    -439.8237414856011469 [Eh]
	-----------------------------------------------------------

  Dipole Moment: [D]
     X:    -0.1200      Y:     6.1349      Z:    -0.0001     Total:     6.1361

*** Psi4 exiting successfully. Buy a developer a beer!
