                               Psi4 1.4a3.dev225

  ==> Input File <==

--------------------------------------------------------------------------
#psi4
#
memory 32 gb

molecule  {
0 1
  O        1.4171000     1.3483990     0.0000050
  O       -1.4171000     1.3483990    -0.0000070
  N        0.0000000    -0.4846440    -0.0000030
  C        2.4067740    -0.8603910    -0.0000090
  C       -2.4067740    -0.8603910     0.0000060
  C        1.2583980     0.1386290    -0.0000010
  C       -1.2583980     0.1386290    -0.0000020
  C        3.7624160    -0.1688120     0.0000070
  C       -3.7624160    -0.1688120     0.0000020
  H        2.3018640    -1.5106550    -0.8782810
  H        2.3018560    -1.5106830     0.8782410
  H       -2.3018590    -1.5106620     0.8782720
  H       -2.3018600    -1.5106760    -0.8782500
  H        0.0000000    -1.4788460    -0.0000020
  H        3.8704210     0.4663420    -0.8807450
  H        4.5662930    -0.9094080     0.0000080
  H        3.8704060     0.4663280     0.8807730
  H       -4.5662930    -0.9094090     0.0000000
  H       -3.8704160     0.4663350     0.8807610
  H       -3.8704100     0.4663350    -0.8807570
units angstrom
no_reorient  #important for SAPT in psi4, default
symmetry c1  #important for SAPT in psi4, default
}

set PROPERTIES_ORIGIN ["COM"]
properties('MP2/aug-cc-pvtz', properties = ['dipole'])
--------------------------------------------------------------------------

    Molecular point group: c1
  Charge       = 0
  Multiplicity = 1
  Basis Set: AUG-CC-PVTZ
    Blend: AUG-CC-PVTZ
  Basis Set: (AUG-CC-PVTZ AUX)
    Blend: AUG-CC-PVTZ-JKFIT

    Orbital Energies [Eh]
    ---------------------

    Doubly Occupied:

       1A    -20.538541     2A    -20.538539     3A    -15.614021
       4A    -11.368610     5A    -11.368594     6A    -11.255850
       7A    -11.255850     8A    -11.224453     9A    -11.224453
      10A     -1.403879    11A     -1.375956    12A     -1.247862
      13A     -1.072922    14A     -1.056659    15A     -0.938700
      16A     -0.881465    17A     -0.804798    18A     -0.782703
      19A     -0.707979    20A     -0.678596    21A     -0.659459
      22A     -0.640441    23A     -0.629236    24A     -0.608667
      25A     -0.578308    26A     -0.547729    27A     -0.532456
      28A     -0.527878    29A     -0.525496    30A     -0.524505
      31A     -0.504390    32A     -0.491730    33A     -0.463148
      34A     -0.423918    35A     -0.411233

  @DF-RHF Final Energy:  -437.98061334171462

   => Energetics <=

    Nuclear Repulsion Energy =            448.3305775755306968
    One-Electron Energy =               -1485.8043324041086635
    Two-Electron Energy =                 599.4931414868633510
    Total Energy =                       -437.9806133417146157
  Basis Set: (AUG-CC-PVTZ AUX)
    Blend: AUG-CC-PVTZ-RI
    Molecular point group: c1

    Geometry (in Angstrom), charge = 0, multiplicity = 1:

       Center              X                  Y                   Z               Mass
    ------------   -----------------  -----------------  -----------------  -----------------
         O            1.417099984384     1.290749947217     0.000005138230    15.994914619570
         O           -1.417100015616     1.290749947217    -0.000006861770    15.994914619570
         N           -0.000000015616    -0.542293052783    -0.000002861770    14.003074004430
         C            2.406773984384    -0.918040052783    -0.000008861770    12.000000000000
         C           -2.406774015616    -0.918040052783     0.000006138230    12.000000000000
         C            1.258397984384     0.080979947217    -0.000000861770    12.000000000000
         C           -1.258398015616     0.080979947217    -0.000001861770    12.000000000000
         C            3.762415984384    -0.226461052783     0.000007138230    12.000000000000
         C           -3.762416015616    -0.226461052783     0.000002138230    12.000000000000
         H            2.301863984384    -1.568304052783    -0.878280861770     1.007825032230
         H            2.301855984384    -1.568332052783     0.878241138230     1.007825032230
         H           -2.301859015616    -1.568311052783     0.878272138230     1.007825032230
         H           -2.301860015616    -1.568325052783    -0.878249861770     1.007825032230
         H           -0.000000015616    -1.536495052783    -0.000001861770     1.007825032230
         H            3.870420984384     0.408692947217    -0.880744861770     1.007825032230
         H            4.566292984384    -0.967057052783     0.000008138230     1.007825032230
         H            3.870405984384     0.408678947217     0.880773138230     1.007825032230
         H           -4.566293015616    -0.967058052783     0.000000138230     1.007825032230
         H           -3.870416015616     0.408685947217     0.880761138230     1.007825032230
         H           -3.870410015616     0.408685947217    -0.880756861770     1.007825032230

  Basis Set: AUG-CC-PVTZ
    Blend: AUG-CC-PVTZ
  Basis Set: (AUG-CC-PVTZ AUX)
    Blend: AUG-CC-PVTZ-JKFIT
	 Reference Energy          =    -437.9806133417146157 [Eh]
	 Singles Energy            =      -0.0000000000000000 [Eh]
	 Same-Spin Energy          =      -0.4399137037104042 [Eh]
	 Opposite-Spin Energy      =      -1.4267614919889251 [Eh]
	 Correlation Energy        =      -1.8666751956993293 [Eh]
	 Total Energy              =    -439.8472885374139310 [Eh]

	 ================> DF-SCS-MP2 Energies <==================
	-----------------------------------------------------------
	 SCS Same-Spin Scale       =       0.3333333333333333 [-]
	 SCS Opposite-Spin Scale   =       1.2000000000000000 [-]
	 SCS Same-Spin Energy      =      -0.1466379012368014 [Eh]
	 SCS Opposite-Spin Energy  =      -1.7121137903867101 [Eh]
	 SCS Correlation Energy    =      -1.8587516916235114 [Eh]
	 SCS Total Energy          =    -439.8393650333381402 [Eh]
	-----------------------------------------------------------

  Dipole Moment: [D]
     X:     0.0000      Y:    -5.7574      Z:    -0.0000     Total:     5.7574

*** Psi4 exiting successfully. Buy a developer a beer!
