                               Psi4 1.3.2 release

  ==> Input File <==

--------------------------------------------------------------------------
#psi4
#
memory 32 gb

molecule  {
0 1
  O       -1.4171200    -1.3484060     0.0002970
  O        1.4171200    -1.3484050    -0.0003020
  N       -0.0000010     0.4846070    -0.0000160
  C       -2.4067620     0.8604000    -0.0000780
  C        2.4067630     0.8604010     0.0000710
  C       -1.2473273    -0.1605001     0.0000827
  C        1.2583960    -0.1386320    -0.0001000
  C       -3.7624040     0.1688250    -0.0000540
  C        3.7624040     0.1688230     0.0000890
  H       -2.3018130     1.5105900    -0.8783980
  H       -2.3018940     1.5107780     0.8781160
  H        2.3017980     1.5106070     0.8783770
  H        2.3019150     1.5107630    -0.8781370
  H       -0.0000010     1.4988170    -0.0000010
  H       -3.8704140    -0.4663380    -0.8807980
  H       -4.5662770     0.9094320    -0.0000700
  H       -3.8703980    -0.4662950     0.8807210
  H        4.5662780     0.9094290     0.0001070
  H        3.8703950    -0.4663230     0.8808470
  H        3.8704150    -0.4663140    -0.8806720
units angstrom
no_reorient  #important for SAPT in psi4, default
symmetry c1  #important for SAPT in psi4, default
}

set PROPERTIES_ORIGIN ["COM"]
properties('MP2/aug-cc-pvtz', properties = ['dipole'])
--------------------------------------------------------------------------

    Molecular point group: c1
  Charge       = 0
  Multiplicity = 1
  Basis Set: AUG-CC-PVTZ
    Blend: AUG-CC-PVTZ
  Basis Set: (AUG-CC-PVTZ AUX)
    Blend: AUG-CC-PVTZ-JKFIT

    Orbital Energies [Eh]
    ---------------------

    Doubly Occupied:

       1A    -20.540744     2A    -20.538513     3A    -15.615006
       4A    -11.368120     5A    -11.366966     6A    -11.255493
       7A    -11.254273     8A    -11.224298     9A    -11.223226
      10A     -1.411168    11A     -1.381858    12A     -1.246166
      13A     -1.070510    14A     -1.054059    15A     -0.936625
      16A     -0.878932    17A     -0.803677    18A     -0.778544
      19A     -0.707641    20A     -0.678392    21A     -0.658808
      22A     -0.639141    23A     -0.632214    24A     -0.610820
      25A     -0.579598    26A     -0.546083    27A     -0.532254
      28A     -0.528004    29A     -0.525845    30A     -0.525113
      31A     -0.504040    32A     -0.494555    33A     -0.463043
      34A     -0.425701    35A     -0.409291

  @DF-RHF Final Energy:  -437.98143350165492

   => Energetics <=

    Nuclear Repulsion Energy =            448.3922050831639581
    One-Electron Energy =               -1485.9298323409543627
    Two-Electron Energy =                 599.5561937561355990
    Total Energy =                       -437.9814335016549194
  Basis Set: (AUG-CC-PVTZ AUX)
    Blend: AUG-CC-PVTZ-RI
    Molecular point group: c1

    Geometry (in Angstrom), charge = 0, multiplicity = 1:

       Center              X                  Y                   Z               Mass
    ------------   -----------------  -----------------  -----------------  -----------------
         O           -1.418149032223    -1.288879069043     0.000297642272    15.994914619570
         O            1.416090967777    -1.288878069043    -0.000301357728    15.994914619570
         N           -0.001030032223     0.544133930957    -0.000015357728    14.003074004430
         C           -2.407791032223     0.919926930957    -0.000077357728    12.000000000000
         C            2.405733967777     0.919927930957     0.000071642272    12.000000000000
         C           -1.248356332223    -0.100973169043     0.000083342272    12.000000000000
         C            1.257366967777    -0.079105069043    -0.000099357728    12.000000000000
         C           -3.763433032223     0.228351930957    -0.000053357728    12.000000000000
         C            3.761374967777     0.228349930957     0.000089642272    12.000000000000
         H           -2.302842032223     1.570116930957    -0.878397357728     1.007825032230
         H           -2.302923032223     1.570304930957     0.878116642272     1.007825032230
         H            2.300768967777     1.570133930957     0.878377642272     1.007825032230
         H            2.300885967777     1.570289930957    -0.878136357728     1.007825032230
         H           -0.001030032223     1.558343930957    -0.000000357728     1.007825032230
         H           -3.871443032223    -0.406811069043    -0.880797357728     1.007825032230
         H           -4.567306032223     0.968958930957    -0.000069357728     1.007825032230
         H           -3.871427032223    -0.406768069043     0.880721642272     1.007825032230
         H            4.565248967777     0.968955930957     0.000107642272     1.007825032230
         H            3.869365967777    -0.406796069043     0.880847642272     1.007825032230
         H            3.869385967777    -0.406787069043    -0.880671357728     1.007825032230

  Basis Set: AUG-CC-PVTZ
    Blend: AUG-CC-PVTZ
  Basis Set: (AUG-CC-PVTZ AUX)
    Blend: AUG-CC-PVTZ-JKFIT
	 Reference Energy          =    -437.9814335016549194 [Eh]
	 Singles Energy            =      -0.0000000000000000 [Eh]
	 Same-Spin Energy          =      -0.4395038469254897 [Eh]
	 Opposite-Spin Energy      =      -1.4259578120873293 [Eh]
	 Correlation Energy        =      -1.8654616590128190 [Eh]
	 Total Energy              =    -439.8468951606677138 [Eh]

	 ================> DF-SCS-MP2 Energies <==================
	-----------------------------------------------------------
	 SCS Same-Spin Scale       =       0.3333333333333333 [-]
	 SCS Opposite-Spin Scale   =       1.2000000000000000 [-]
	 SCS Same-Spin Energy      =      -0.1465012823084966 [Eh]
	 SCS Opposite-Spin Energy  =      -1.7111493745047952 [Eh]
	 SCS Correlation Energy    =      -1.8576506568132918 [Eh]
	 SCS Total Energy          =    -439.8390841584682107 [Eh]
	-----------------------------------------------------------

  Dipole Moment: [D]
     X:     0.0409      Y:     5.6680      Z:     0.0000     Total:     5.6681

*** Psi4 exiting successfully. Buy a developer a beer!
