                               Psi4 1.4a3.dev225

  ==> Input File <==

--------------------------------------------------------------------------
#psi4
#
memory 32 gb

molecule  {
0 1
  O        1.4171000     1.3483990     0.0000050
  O       -1.4171000     1.3483990    -0.0000070
  N        0.0000000    -0.4846440    -0.0000030
  C        2.4067740    -0.8603910    -0.0000090
  C       -2.4067740    -0.8603910     0.0000060
  C        1.2583980     0.1386290    -0.0000010
  C       -1.3032034     0.1608207    -0.0000020
  C        3.7624160    -0.1688120     0.0000070
  C       -3.7624160    -0.1688120     0.0000020
  H        2.3018640    -1.5106550    -0.8782810
  H        2.3018560    -1.5106830     0.8782410
  H       -2.3018590    -1.5106620     0.8782720
  H       -2.3018600    -1.5106760    -0.8782500
  H        0.0000000    -1.4988460    -0.0000020
  H        3.8704210     0.4663420    -0.8807450
  H        4.5662930    -0.9094080     0.0000080
  H        3.8704060     0.4663280     0.8807730
  H       -4.5662930    -0.9094090     0.0000000
  H       -3.8704160     0.4663350     0.8807610
  H       -3.8704100     0.4663350    -0.8807570
units angstrom
no_reorient  #important for SAPT in psi4, default
symmetry c1  #important for SAPT in psi4, default
}

set PROPERTIES_ORIGIN ["COM"]
properties('MP2/aug-cc-pvtz', properties = ['dipole'])
--------------------------------------------------------------------------

    Molecular point group: c1
  Charge       = 0
  Multiplicity = 1
  Basis Set: AUG-CC-PVTZ
    Blend: AUG-CC-PVTZ
  Basis Set: (AUG-CC-PVTZ AUX)
    Blend: AUG-CC-PVTZ-JKFIT

    Orbital Energies [Eh]
    ---------------------

    Doubly Occupied:

       1A    -20.547285     2A    -20.532535     3A    -15.607241
       4A    -11.370670     5A    -11.363210     6A    -11.257481
       7A    -11.251824     8A    -11.226977     9A    -11.221566
      10A     -1.415101    11A     -1.379877    12A     -1.230976
      13A     -1.075486    14A     -1.055597    15A     -0.933130
      16A     -0.880869    17A     -0.796286    18A     -0.768208
      19A     -0.710195    20A     -0.678027    21A     -0.658875
      22A     -0.640324    23A     -0.637493    24A     -0.608742
      25A     -0.574717    26A     -0.546984    27A     -0.533960
      28A     -0.529168    29A     -0.527013    30A     -0.523288
      31A     -0.505901    32A     -0.494044    33A     -0.464608
      34A     -0.420530    35A     -0.410009

  @DF-RHF Final Energy:  -437.97930436342330

   => Energetics <=

    Nuclear Repulsion Energy =            448.0819281238530607
    One-Electron Energy =               -1485.3660698716769275
    Two-Electron Energy =                 599.3048373844005710
    Total Energy =                       -437.9793043634233527
  Basis Set: (AUG-CC-PVTZ AUX)
    Blend: AUG-CC-PVTZ-RI
    Molecular point group: c1

    Geometry (in Angstrom), charge = 0, multiplicity = 1:

       Center              X                  Y                   Z               Mass
    ------------   -----------------  -----------------  -----------------  -----------------
         O            1.421265378361     1.288843022465     0.000005138230    15.994914619570
         O           -1.412934621639     1.288843022465    -0.000006861770    15.994914619570
         N            0.004165378361    -0.544199977535    -0.000002861770    14.003074004430
         C            2.410939378361    -0.919946977535    -0.000008861770    12.000000000000
         C           -2.402608621639    -0.919946977535     0.000006138230    12.000000000000
         C            1.262563378361     0.079073022465    -0.000000861770    12.000000000000
         C           -1.299038021639     0.101264722465    -0.000001861770    12.000000000000
         C            3.766581378361    -0.228367977535     0.000007138230    12.000000000000
         C           -3.758250621639    -0.228367977535     0.000002138230    12.000000000000
         H            2.306029378361    -1.570210977535    -0.878280861770     1.007825032230
         H            2.306021378361    -1.570238977535     0.878241138230     1.007825032230
         H           -2.297693621639    -1.570217977535     0.878272138230     1.007825032230
         H           -2.297694621639    -1.570231977535    -0.878249861770     1.007825032230
         H            0.004165378361    -1.558401977535    -0.000001861770     1.007825032230
         H            3.874586378361     0.406786022465    -0.880744861770     1.007825032230
         H            4.570458378361    -0.968963977535     0.000008138230     1.007825032230
         H            3.874571378361     0.406772022465     0.880773138230     1.007825032230
         H           -4.562127621639    -0.968964977535     0.000000138230     1.007825032230
         H           -3.866250621639     0.406779022465     0.880761138230     1.007825032230
         H           -3.866244621639     0.406779022465    -0.880756861770     1.007825032230

  Basis Set: AUG-CC-PVTZ
    Blend: AUG-CC-PVTZ
  Basis Set: (AUG-CC-PVTZ AUX)
    Blend: AUG-CC-PVTZ-JKFIT
	 Reference Energy          =    -437.9793043634232959 [Eh]
	 Singles Energy            =      -0.0000000000000000 [Eh]
	 Same-Spin Energy          =      -0.4396815006080307 [Eh]
	 Opposite-Spin Energy      =      -1.4262545200872792 [Eh]
	 Correlation Energy        =      -1.8659360206953099 [Eh]
	 Total Energy              =    -439.8452403841185969 [Eh]

	 ================> DF-SCS-MP2 Energies <==================
	-----------------------------------------------------------
	 SCS Same-Spin Scale       =       0.3333333333333333 [-]
	 SCS Opposite-Spin Scale   =       1.2000000000000000 [-]
	 SCS Same-Spin Energy      =      -0.1465605002026769 [Eh]
	 SCS Opposite-Spin Energy  =      -1.7115054241047349 [Eh]
	 SCS Correlation Energy    =      -1.8580659243074118 [Eh]
	 SCS Total Energy          =    -439.8373702877307210 [Eh]
	-----------------------------------------------------------

  Dipole Moment: [D]
     X:    -0.5077      Y:    -5.6378      Z:    -0.0000     Total:     5.6606

*** Psi4 exiting successfully. Buy a developer a beer!
