                               Psi4 1.3.2 release

  ==> Input File <==

--------------------------------------------------------------------------
#psi4
#
memory 32 gb

molecule  {
0 1
  O       -1.4171200    -1.3484060     0.0002970
  O        1.4171200    -1.3484050    -0.0003020
  N       -0.0000010     0.4846070    -0.0000160
  C       -2.4067620     0.8604000    -0.0000780
  C        2.4067630     0.8604010     0.0000710
  C       -1.2358787    -0.1821707     0.0000829
  C        1.2583960    -0.1386320    -0.0001000
  C       -3.7624040     0.1688250    -0.0000540
  C        3.7624040     0.1688230     0.0000890
  H       -2.3018130     1.5105900    -0.8783980
  H       -2.3018940     1.5107780     0.8781160
  H        2.3017980     1.5106070     0.8783770
  H        2.3019150     1.5107630    -0.8781370
  H       -0.0000010     1.4988170    -0.0000010
  H       -3.8704140    -0.4663380    -0.8807980
  H       -4.5662770     0.9094320    -0.0000700
  H       -3.8703980    -0.4662950     0.8807210
  H        4.5662780     0.9094290     0.0001070
  H        3.8703950    -0.4663230     0.8808470
  H        3.8704150    -0.4663140    -0.8806720
units angstrom
no_reorient  #important for SAPT in psi4, default
symmetry c1  #important for SAPT in psi4, default
}

set PROPERTIES_ORIGIN ["COM"]
properties('MP2/aug-cc-pvtz', properties = ['dipole'])
--------------------------------------------------------------------------

    Molecular point group: c1
  Charge       = 0
  Multiplicity = 1
  Basis Set: AUG-CC-PVTZ
    Blend: AUG-CC-PVTZ
  Basis Set: (AUG-CC-PVTZ AUX)
    Blend: AUG-CC-PVTZ-JKFIT

    Orbital Energies [Eh]
    ---------------------

    Doubly Occupied:

       1A    -20.543016     2A    -20.538604     3A    -15.614280
       4A    -11.367725     5A    -11.365449     6A    -11.255252
       7A    -11.252504     8A    -11.224240     9A    -11.222029
      10A     -1.421625    11A     -1.385493    12A     -1.247028
      13A     -1.068861    14A     -1.051122    15A     -0.934784
      16A     -0.876479    17A     -0.802749    18A     -0.780004
      19A     -0.707887    20A     -0.678845    21A     -0.658566
      22A     -0.637980    23A     -0.635739    24A     -0.613036
      25A     -0.581297    26A     -0.544893    27A     -0.532598
      28A     -0.528032    29A     -0.527952    30A     -0.524587
      31A     -0.503547    32A     -0.496819    33A     -0.462609
      34A     -0.427578    35A     -0.406960

  @DF-RHF Final Energy:  -437.98077526827882

   => Energetics <=

    Nuclear Repulsion Energy =            448.5848267348886225
    One-Electron Energy =               -1486.2908677005696063
    Two-Electron Energy =                 599.7252656974021647
    Total Energy =                       -437.9807752682788760
  Basis Set: (AUG-CC-PVTZ AUX)
    Blend: AUG-CC-PVTZ-RI
    Molecular point group: c1

    Geometry (in Angstrom), charge = 0, multiplicity = 1:

       Center              X                  Y                   Z               Mass
    ------------   -----------------  -----------------  -----------------  -----------------
         O           -1.419213366644    -1.286864432711     0.000297623679    15.994914619570
         O            1.415026633356    -1.286863432711    -0.000301376321    15.994914619570
         N           -0.002094366644     0.546148567289    -0.000015376321    14.003074004430
         C           -2.408855366644     0.921941567289    -0.000077376321    12.000000000000
         C            2.404669633356     0.921942567289     0.000071623679    12.000000000000
         C           -1.237972066644    -0.120629132711     0.000083523679    12.000000000000
         C            1.256302633356    -0.077090432711    -0.000099376321    12.000000000000
         C           -3.764497366644     0.230366567289    -0.000053376321    12.000000000000
         C            3.760310633356     0.230364567289     0.000089623679    12.000000000000
         H           -2.303906366644     1.572131567289    -0.878397376321     1.007825032230
         H           -2.303987366644     1.572319567289     0.878116623679     1.007825032230
         H            2.299704633356     1.572148567289     0.878377623679     1.007825032230
         H            2.299821633356     1.572304567289    -0.878136376321     1.007825032230
         H           -0.002094366644     1.560358567289    -0.000000376321     1.007825032230
         H           -3.872507366644    -0.404796432711    -0.880797376321     1.007825032230
         H           -4.568370366644     0.970973567289    -0.000069376321     1.007825032230
         H           -3.872491366644    -0.404753432711     0.880721623679     1.007825032230
         H            4.564184633356     0.970970567289     0.000107623679     1.007825032230
         H            3.868301633356    -0.404781432711     0.880847623679     1.007825032230
         H            3.868321633356    -0.404772432711    -0.880671376321     1.007825032230

  Basis Set: AUG-CC-PVTZ
    Blend: AUG-CC-PVTZ
  Basis Set: (AUG-CC-PVTZ AUX)
    Blend: AUG-CC-PVTZ-JKFIT
	 Reference Energy          =    -437.9807752682788191 [Eh]
	 Singles Energy            =      -0.0000000000000000 [Eh]
	 Same-Spin Energy          =      -0.4389939253498521 [Eh]
	 Opposite-Spin Energy      =      -1.4249104166197646 [Eh]
	 Correlation Energy        =      -1.8639043419696166 [Eh]
	 Total Energy              =    -439.8446796102484200 [Eh]

	 ================> DF-SCS-MP2 Energies <==================
	-----------------------------------------------------------
	 SCS Same-Spin Scale       =       0.3333333333333333 [-]
	 SCS Opposite-Spin Scale   =       1.2000000000000000 [-]
	 SCS Same-Spin Energy      =      -0.1463313084499507 [Eh]
	 SCS Opposite-Spin Energy  =      -1.7098924999437175 [Eh]
	 SCS Correlation Energy    =      -1.8562238083936682 [Eh]
	 SCS Total Energy          =    -439.8369990766724982 [Eh]
	-----------------------------------------------------------

  Dipole Moment: [D]
     X:     0.0881      Y:     5.5594      Z:     0.0000     Total:     5.5601

*** Psi4 exiting successfully. Buy a developer a beer!
