                               Psi4 1.4a3.dev225

  ==> Input File <==

--------------------------------------------------------------------------
#psi4
#
memory 32 gb

molecule  {
0 1
  O        1.4171000     1.3483990     0.0000050
  O       -1.4171000     1.3483990    -0.0000070
  N        0.0000000    -0.4846440    -0.0000030
  C        2.4067740    -0.8603910    -0.0000090
  C       -2.4067740    -0.8603910     0.0000060
  C        1.2583980     0.1386290    -0.0000010
  C       -1.2404758     0.1297523    -0.0000020
  C        3.7624160    -0.1688120     0.0000070
  C       -3.7624160    -0.1688120     0.0000020
  H        2.3018640    -1.5106550    -0.8782810
  H        2.3018560    -1.5106830     0.8782410
  H       -2.3018590    -1.5106620     0.8782720
  H       -2.3018600    -1.5106760    -0.8782500
  H        0.0000000    -1.4988460    -0.0000020
  H        3.8704210     0.4663420    -0.8807450
  H        4.5662930    -0.9094080     0.0000080
  H        3.8704060     0.4663280     0.8807730
  H       -4.5662930    -0.9094090     0.0000000
  H       -3.8704160     0.4663350     0.8807610
  H       -3.8704100     0.4663350    -0.8807570
units angstrom
no_reorient  #important for SAPT in psi4, default
symmetry c1  #important for SAPT in psi4, default
}

set PROPERTIES_ORIGIN ["COM"]
properties('MP2/aug-cc-pvtz', properties = ['dipole'])
--------------------------------------------------------------------------

    Molecular point group: c1
  Charge       = 0
  Multiplicity = 1
  Basis Set: AUG-CC-PVTZ
    Blend: AUG-CC-PVTZ
  Basis Set: (AUG-CC-PVTZ AUX)
    Blend: AUG-CC-PVTZ-JKFIT

    Orbital Energies [Eh]
    ---------------------

    Doubly Occupied:

       1A    -20.540903     2A    -20.534928     3A    -15.619091
       4A    -11.370679     5A    -11.367736     6A    -11.257325
       7A    -11.255254     8A    -11.225493     9A    -11.223414
      10A     -1.402830    11A     -1.371168    12A     -1.250596
      13A     -1.072869    14A     -1.055911    15A     -0.941145
      16A     -0.881360    17A     -0.808156    18A     -0.780962
      19A     -0.707187    20A     -0.677897    21A     -0.660247
      22A     -0.639975    23A     -0.627855    24A     -0.605347
      25A     -0.579948    26A     -0.547859    27A     -0.532808
      28A     -0.528133    29A     -0.524377    30A     -0.523689
      31A     -0.504488    32A     -0.490209    33A     -0.462326
      34A     -0.423978    35A     -0.410862

  @DF-RHF Final Energy:  -437.97881832232133

   => Energetics <=

    Nuclear Repulsion Energy =            448.2716734022288847
    One-Electron Energy =               -1485.6869762243641162
    Two-Electron Energy =                 599.4364844998140143
    Total Energy =                       -437.9788183223213309
  Basis Set: (AUG-CC-PVTZ AUX)
    Blend: AUG-CC-PVTZ-RI
    Molecular point group: c1

    Geometry (in Angstrom), charge = 0, multiplicity = 1:

       Center              X                  Y                   Z               Mass
    ------------   -----------------  -----------------  -----------------  -----------------
         O            1.415433823075     1.291731337851     0.000005138230    15.994914619570
         O           -1.418766176925     1.291731337851    -0.000006861770    15.994914619570
         N           -0.001666176925    -0.541311662149    -0.000002861770    14.003074004430
         C            2.405107823075    -0.917058662149    -0.000008861770    12.000000000000
         C           -2.408440176925    -0.917058662149     0.000006138230    12.000000000000
         C            1.256731823075     0.081961337851    -0.000000861770    12.000000000000
         C           -1.242141976925     0.073084637851    -0.000001861770    12.000000000000
         C            3.760749823075    -0.225479662149     0.000007138230    12.000000000000
         C           -3.764082176925    -0.225479662149     0.000002138230    12.000000000000
         H            2.300197823075    -1.567322662149    -0.878280861770     1.007825032230
         H            2.300189823075    -1.567350662149     0.878241138230     1.007825032230
         H           -2.303525176925    -1.567329662149     0.878272138230     1.007825032230
         H           -2.303526176925    -1.567343662149    -0.878249861770     1.007825032230
         H           -0.001666176925    -1.555513662149    -0.000001861770     1.007825032230
         H            3.868754823075     0.409674337851    -0.880744861770     1.007825032230
         H            4.564626823075    -0.966075662149     0.000008138230     1.007825032230
         H            3.868739823075     0.409660337851     0.880773138230     1.007825032230
         H           -4.567959176925    -0.966076662149     0.000000138230     1.007825032230
         H           -3.872082176925     0.409667337851     0.880761138230     1.007825032230
         H           -3.872076176925     0.409667337851    -0.880756861770     1.007825032230

  Basis Set: AUG-CC-PVTZ
    Blend: AUG-CC-PVTZ
  Basis Set: (AUG-CC-PVTZ AUX)
    Blend: AUG-CC-PVTZ-JKFIT
	 Reference Energy          =    -437.9788183223213309 [Eh]
	 Singles Energy            =      -0.0000000000000000 [Eh]
	 Same-Spin Energy          =      -0.4402909841116622 [Eh]
	 Opposite-Spin Energy      =      -1.4275741739948942 [Eh]
	 Correlation Energy        =      -1.8678651581065564 [Eh]
	 Total Energy              =    -439.8466834804278847 [Eh]

	 ================> DF-SCS-MP2 Energies <==================
	-----------------------------------------------------------
	 SCS Same-Spin Scale       =       0.3333333333333333 [-]
	 SCS Opposite-Spin Scale   =       1.2000000000000000 [-]
	 SCS Same-Spin Energy      =      -0.1467636613705540 [Eh]
	 SCS Opposite-Spin Energy  =      -1.7130890087938730 [Eh]
	 SCS Correlation Energy    =      -1.8598526701644271 [Eh]
	 SCS Total Energy          =    -439.8386709924857314 [Eh]
	-----------------------------------------------------------

  Dipole Moment: [D]
     X:     0.1957      Y:    -5.8236      Z:    -0.0000     Total:     5.8268

*** Psi4 exiting successfully. Buy a developer a beer!
