                               Psi4 1.4a3.dev225

  ==> Input File <==

--------------------------------------------------------------------------
#psi4
#
memory 32 gb

molecule  {
0 1
  O        1.4171000     1.3483990     0.0000050
  O       -1.4171000     1.3483990    -0.0000070
  N        0.0000000    -0.4846440    -0.0000030
  C        2.4067740    -0.8603910    -0.0000090
  C       -2.4067740    -0.8603910     0.0000060
  C        1.2583980     0.1386290    -0.0000010
  C       -1.2135926     0.1164373    -0.0000020
  C        3.7624160    -0.1688120     0.0000070
  C       -3.7624160    -0.1688120     0.0000020
  H        2.3018640    -1.5106550    -0.8782810
  H        2.3018560    -1.5106830     0.8782410
  H       -2.3018590    -1.5106620     0.8782720
  H       -2.3018600    -1.5106760    -0.8782500
  H        0.0000000    -1.4988460    -0.0000020
  H        3.8704210     0.4663420    -0.8807450
  H        4.5662930    -0.9094080     0.0000080
  H        3.8704060     0.4663280     0.8807730
  H       -4.5662930    -0.9094090     0.0000000
  H       -3.8704160     0.4663350     0.8807610
  H       -3.8704100     0.4663350    -0.8807570
units angstrom
no_reorient  #important for SAPT in psi4, default
symmetry c1  #important for SAPT in psi4, default
}

set PROPERTIES_ORIGIN ["COM"]
properties('MP2/aug-cc-pvtz', properties = ['dipole'])
--------------------------------------------------------------------------

    Molecular point group: c1
  Charge       = 0
  Multiplicity = 1
  Basis Set: AUG-CC-PVTZ
    Blend: AUG-CC-PVTZ
  Basis Set: (AUG-CC-PVTZ AUX)
    Blend: AUG-CC-PVTZ-JKFIT

    Orbital Energies [Eh]
    ---------------------

    Doubly Occupied:

       1A    -20.544558     2A    -20.529476     3A    -15.623732
       4A    -11.373798     5A    -11.366405     6A    -11.259636
       7A    -11.254633     8A    -11.227142     9A    -11.222012
      10A     -1.404258    11A     -1.362657    12A     -1.258113
      13A     -1.073986    14A     -1.054121    15A     -0.945413
      16A     -0.881292    17A     -0.813389    18A     -0.786956
      19A     -0.707255    20A     -0.675993    21A     -0.662204
      22A     -0.639192    23A     -0.627986    24A     -0.599623
      25A     -0.582928    26A     -0.548499    27A     -0.533748
      28A     -0.529525    29A     -0.522954    30A     -0.521244
      31A     -0.504980    32A     -0.488216    33A     -0.461637
      34A     -0.423414    35A     -0.409585

  @DF-RHF Final Energy:  -437.97493977497402

   => Energetics <=

    Nuclear Repulsion Energy =            448.3788317312821050
    One-Electron Energy =               -1485.8664258989160771
    Two-Electron Energy =                 599.5126543926598970
    Total Energy =                       -437.9749397749740183
  Basis Set: (AUG-CC-PVTZ AUX)
    Blend: AUG-CC-PVTZ-RI
    Molecular point group: c1

    Geometry (in Angstrom), charge = 0, multiplicity = 1:

       Center              X                  Y                   Z               Mass
    ------------   -----------------  -----------------  -----------------  -----------------
         O            1.412934590407     1.292969184647     0.000005138230    15.994914619570
         O           -1.421265409593     1.292969184647    -0.000006861770    15.994914619570
         N           -0.004165409593    -0.540073815353    -0.000002861770    14.003074004430
         C            2.402608590407    -0.915820815353    -0.000008861770    12.000000000000
         C           -2.410939409593    -0.915820815353     0.000006138230    12.000000000000
         C            1.254232590407     0.083199184647    -0.000000861770    12.000000000000
         C           -1.217758009593     0.061007484647    -0.000001861770    12.000000000000
         C            3.758250590407    -0.224241815353     0.000007138230    12.000000000000
         C           -3.766581409593    -0.224241815353     0.000002138230    12.000000000000
         H            2.297698590407    -1.566084815353    -0.878280861770     1.007825032230
         H            2.297690590407    -1.566112815353     0.878241138230     1.007825032230
         H           -2.306024409593    -1.566091815353     0.878272138230     1.007825032230
         H           -2.306025409593    -1.566105815353    -0.878249861770     1.007825032230
         H           -0.004165409593    -1.554275815353    -0.000001861770     1.007825032230
         H            3.866255590407     0.410912184647    -0.880744861770     1.007825032230
         H            4.562127590407    -0.964837815353     0.000008138230     1.007825032230
         H            3.866240590407     0.410898184647     0.880773138230     1.007825032230
         H           -4.570458409593    -0.964838815353     0.000000138230     1.007825032230
         H           -3.874581409593     0.410905184647     0.880761138230     1.007825032230
         H           -3.874575409593     0.410905184647    -0.880756861770     1.007825032230

  Basis Set: AUG-CC-PVTZ
    Blend: AUG-CC-PVTZ
  Basis Set: (AUG-CC-PVTZ AUX)
    Blend: AUG-CC-PVTZ-JKFIT
	 Reference Energy          =    -437.9749397749740183 [Eh]
	 Singles Energy            =      -0.0000000000000000 [Eh]
	 Same-Spin Energy          =      -0.4406543198623749 [Eh]
	 Opposite-Spin Energy      =      -1.4283258358612643 [Eh]
	 Correlation Energy        =      -1.8689801557236392 [Eh]
	 Total Energy              =    -439.8439199306976661 [Eh]

	 ================> DF-SCS-MP2 Energies <==================
	-----------------------------------------------------------
	 SCS Same-Spin Scale       =       0.3333333333333333 [-]
	 SCS Opposite-Spin Scale   =       1.2000000000000000 [-]
	 SCS Same-Spin Energy      =      -0.1468847732874583 [Eh]
	 SCS Opposite-Spin Energy  =      -1.7139910030335170 [Eh]
	 SCS Correlation Energy    =      -1.8608757763209753 [Eh]
	 SCS Total Energy          =    -439.8358155512950134 [Eh]
	-----------------------------------------------------------

  Dipole Moment: [D]
     X:     0.4821      Y:    -5.9019      Z:    -0.0000     Total:     5.9215

*** Psi4 exiting successfully. Buy a developer a beer!
