                               Psi4 1.3.2 release

  ==> Input File <==

--------------------------------------------------------------------------
#psi4
#
memory 32 gb

molecule  {
0 1
  O       -1.4171200    -1.3484060     0.0002970
  O        1.4171200    -1.3484050    -0.0003020
  N       -0.0000010     0.4846070    -0.0000160
  C       -2.4067620     0.8604000    -0.0000780
  C        2.4067630     0.8604010     0.0000710
  C       -1.2118556    -0.2248960     0.0000787
  C        1.2583960    -0.1386320    -0.0001000
  C       -3.7624040     0.1688250    -0.0000540
  C        3.7624040     0.1688230     0.0000890
  H       -2.3018130     1.5105900    -0.8783980
  H       -2.3018940     1.5107780     0.8781160
  H        2.3017980     1.5106070     0.8783770
  H        2.3019150     1.5107630    -0.8781370
  H       -0.0000010     1.4988170    -0.0000010
  H       -3.8704140    -0.4663380    -0.8807980
  H       -4.5662770     0.9094320    -0.0000700
  H       -3.8703980    -0.4662950     0.8807210
  H        4.5662780     0.9094290     0.0001070
  H        3.8703950    -0.4663230     0.8808470
  H        3.8704150    -0.4663140    -0.8806720
units angstrom
no_reorient  #important for SAPT in psi4, default
symmetry c1  #important for SAPT in psi4, default
}

set PROPERTIES_ORIGIN ["COM"]
properties('MP2/aug-cc-pvtz', properties = ['dipole'])
--------------------------------------------------------------------------

    Molecular point group: c1
  Charge       = 0
  Multiplicity = 1
  Basis Set: AUG-CC-PVTZ
    Blend: AUG-CC-PVTZ
  Basis Set: (AUG-CC-PVTZ AUX)
    Blend: AUG-CC-PVTZ-JKFIT

    Orbital Energies [Eh]
    ---------------------

    Doubly Occupied:

       1A    -20.547778     2A    -20.539042     3A    -15.613316
       4A    -11.367171     5A    -11.362881     6A    -11.254915
       7A    -11.248044     8A    -11.224233     9A    -11.219477
      10A     -1.447376    11A     -1.389378    12A     -1.248531
      13A     -1.066985    14A     -1.044339    15A     -0.931471
      16A     -0.871408    17A     -0.801345    18A     -0.782873
      19A     -0.709357    20A     -0.681638    21A     -0.659029
      22A     -0.643154    23A     -0.636196    24A     -0.615964
      25A     -0.585399    26A     -0.543201    27A     -0.534821
      28A     -0.534216    29A     -0.527503    30A     -0.522579
      31A     -0.501797    32A     -0.499744    33A     -0.460555
      34A     -0.430884    35A     -0.400579

  @DF-RHF Final Energy:  -437.97336593543201

   => Energetics <=

    Nuclear Repulsion Energy =            448.9987495024514601
    One-Electron Energy =               -1487.0498751709342287
    Two-Electron Energy =                 600.0777597330506978
    Total Energy =                       -437.9733659354319570
  Basis Set: (AUG-CC-PVTZ AUX)
    Blend: AUG-CC-PVTZ-RI
    Molecular point group: c1

    Geometry (in Angstrom), charge = 0, multiplicity = 1:

       Center              X                  Y                   Z               Mass
    ------------   -----------------  -----------------  -----------------  -----------------
         O           -1.421446706287    -1.282892418014     0.000298014138    15.994914619570
         O            1.412793293713    -1.282891418014    -0.000300985862    15.994914619570
         N           -0.004327706287     0.550120581986    -0.000014985862    14.003074004430
         C           -2.411088706287     0.925913581986    -0.000076985862    12.000000000000
         C            2.402436293713     0.925914581986     0.000072014138    12.000000000000
         C           -1.216182306287    -0.159382418014     0.000079714138    12.000000000000
         C            1.254069293713    -0.073118418014    -0.000098985862    12.000000000000
         C           -3.766730706287     0.234338581986    -0.000052985862    12.000000000000
         C            3.758077293713     0.234336581986     0.000090014138    12.000000000000
         H           -2.306139706287     1.576103581986    -0.878396985862     1.007825032230
         H           -2.306220706287     1.576291581986     0.878117014138     1.007825032230
         H            2.297471293713     1.576120581986     0.878378014138     1.007825032230
         H            2.297588293713     1.576276581986    -0.878135985862     1.007825032230
         H           -0.004327706287     1.564330581986     0.000000014138     1.007825032230
         H           -3.874740706287    -0.400824418014    -0.880796985862     1.007825032230
         H           -4.570603706287     0.974945581986    -0.000068985862     1.007825032230
         H           -3.874724706287    -0.400781418014     0.880722014138     1.007825032230
         H            4.561951293713     0.974942581986     0.000108014138     1.007825032230
         H            3.866068293713    -0.400809418014     0.880848014138     1.007825032230
         H            3.866088293713    -0.400800418014    -0.880670985862     1.007825032230

  Basis Set: AUG-CC-PVTZ
    Blend: AUG-CC-PVTZ
  Basis Set: (AUG-CC-PVTZ AUX)
    Blend: AUG-CC-PVTZ-JKFIT
	 Reference Energy          =    -437.9733659354320139 [Eh]
	 Singles Energy            =      -0.0000000000000000 [Eh]
	 Same-Spin Energy          =      -0.4381751519920688 [Eh]
	 Opposite-Spin Energy      =      -1.4232018045806560 [Eh]
	 Correlation Energy        =      -1.8613769565727249 [Eh]
	 Total Energy              =    -439.8347428920047264 [Eh]

	 ================> DF-SCS-MP2 Energies <==================
	-----------------------------------------------------------
	 SCS Same-Spin Scale       =       0.3333333333333333 [-]
	 SCS Opposite-Spin Scale   =       1.2000000000000000 [-]
	 SCS Same-Spin Energy      =      -0.1460583839973563 [Eh]
	 SCS Opposite-Spin Energy  =      -1.7078421654967872 [Eh]
	 SCS Correlation Energy    =      -1.8539005494941434 [Eh]
	 SCS Total Energy          =    -439.8272664849261560 [Eh]
	-----------------------------------------------------------

  Dipole Moment: [D]
     X:     0.2060      Y:     5.3258      Z:     0.0001     Total:     5.3298

*** Psi4 exiting successfully. Buy a developer a beer!
