                               Psi4 1.3.2 release

  ==> Input File <==

--------------------------------------------------------------------------
#psi4
#
memory 32 gb

molecule  {
0 1
  O       -1.4171200    -1.3484060     0.0002970
  O        1.4171200    -1.3484050    -0.0003020
  N       -0.0000010     0.4846070    -0.0000160
  C       -2.4067620     0.8604000    -0.0000780
  C        2.4067630     0.8604010     0.0000710
  C       -1.1863561    -0.2667569     0.0000759
  C        1.2583960    -0.1386320    -0.0001000
  C       -3.7624040     0.1688250    -0.0000540
  C        3.7624040     0.1688230     0.0000890
  H       -2.3018130     1.5105900    -0.8783980
  H       -2.3018940     1.5107780     0.8781160
  H        2.3017980     1.5106070     0.8783770
  H        2.3019150     1.5107630    -0.8781370
  H       -0.0000010     1.4988170    -0.0000010
  H       -3.8704140    -0.4663380    -0.8807980
  H       -4.5662770     0.9094320    -0.0000700
  H       -3.8703980    -0.4662950     0.8807210
  H        4.5662780     0.9094290     0.0001070
  H        3.8703950    -0.4663230     0.8808470
  H        3.8704150    -0.4663140    -0.8806720
units angstrom
no_reorient  #important for SAPT in psi4, default
symmetry c1  #important for SAPT in psi4, default
}

set PROPERTIES_ORIGIN ["COM"]
properties('MP2/aug-cc-pvtz', properties = ['dipole'])
--------------------------------------------------------------------------

    Molecular point group: c1
  Charge       = 0
  Multiplicity = 1
  Basis Set: AUG-CC-PVTZ
    Blend: AUG-CC-PVTZ
  Basis Set: (AUG-CC-PVTZ AUX)
    Blend: AUG-CC-PVTZ-JKFIT

    Orbital Energies [Eh]
    ---------------------

    Doubly Occupied:

       1A    -20.553092     2A    -20.539896     3A    -15.613156
       4A    -11.367016     5A    -11.361257     6A    -11.254829
       7A    -11.242171     8A    -11.224411     9A    -11.216635
      10A     -1.475941    11A     -1.391967    12A     -1.250059
      13A     -1.066259    14A     -1.036999    15A     -0.928743
      16A     -0.866133    17A     -0.800973    18A     -0.785326
      19A     -0.712732    20A     -0.686435    21A     -0.661147
      22A     -0.650352    23A     -0.635920    24A     -0.618061
      25A     -0.589718    26A     -0.542284    27A     -0.541185
      28A     -0.537999    29A     -0.527388    30A     -0.519153
      31A     -0.501602    32A     -0.498855    33A     -0.457829
      34A     -0.433876    35A     -0.391551

  @DF-RHF Final Energy:  -437.95759953674673

   => Energetics <=

    Nuclear Repulsion Energy =            449.4460515726916583
    One-Electron Energy =               -1487.8454027875447991
    Two-Electron Energy =                 600.4417516781063568
    Total Energy =                       -437.9575995367467840
  Basis Set: (AUG-CC-PVTZ AUX)
    Blend: AUG-CC-PVTZ-RI
    Molecular point group: c1

    Geometry (in Angstrom), charge = 0, multiplicity = 1:

       Center              X                  Y                   Z               Mass
    ------------   -----------------  -----------------  -----------------  -----------------
         O           -1.423817301432    -1.279000763421     0.000298274443    15.994914619570
         O            1.410422698568    -1.278999763421    -0.000300725557    15.994914619570
         N           -0.006698301432     0.554012236579    -0.000014725557    14.003074004430
         C           -2.413459301432     0.929805236579    -0.000076725557    12.000000000000
         C            2.400065698568     0.929806236579     0.000072274443    12.000000000000
         C           -1.193053401432    -0.197351663421     0.000077174443    12.000000000000
         C            1.251698698568    -0.069226763421    -0.000098725557    12.000000000000
         C           -3.769101301432     0.238230236579    -0.000052725557    12.000000000000
         C            3.755706698568     0.238228236579     0.000090274443    12.000000000000
         H           -2.308510301432     1.579995236579    -0.878396725557     1.007825032230
         H           -2.308591301432     1.580183236579     0.878117274443     1.007825032230
         H            2.295100698568     1.580012236579     0.878378274443     1.007825032230
         H            2.295217698568     1.580168236579    -0.878135725557     1.007825032230
         H           -0.006698301432     1.568222236579     0.000000274443     1.007825032230
         H           -3.877111301432    -0.396932763421    -0.880796725557     1.007825032230
         H           -4.572974301432     0.978837236579    -0.000068725557     1.007825032230
         H           -3.877095301432    -0.396889763421     0.880722274443     1.007825032230
         H            4.559580698568     0.978834236579     0.000108274443     1.007825032230
         H            3.863697698568    -0.396917763421     0.880848274443     1.007825032230
         H            3.863717698568    -0.396908763421    -0.880670725557     1.007825032230

  Basis Set: AUG-CC-PVTZ
    Blend: AUG-CC-PVTZ
  Basis Set: (AUG-CC-PVTZ AUX)
    Blend: AUG-CC-PVTZ-JKFIT
	 Reference Energy          =    -437.9575995367467272 [Eh]
	 Singles Energy            =      -0.0000000000000000 [Eh]
	 Same-Spin Energy          =      -0.4376162040866081 [Eh]
	 Opposite-Spin Energy      =      -1.4219975420792768 [Eh]
	 Correlation Energy        =      -1.8596137461658848 [Eh]
	 Total Energy              =    -439.8172132829126326 [Eh]

	 ================> DF-SCS-MP2 Energies <==================
	-----------------------------------------------------------
	 SCS Same-Spin Scale       =       0.3333333333333333 [-]
	 SCS Opposite-Spin Scale   =       1.2000000000000000 [-]
	 SCS Same-Spin Energy      =      -0.1458720680288693 [Eh]
	 SCS Opposite-Spin Energy  =      -1.7063970504951320 [Eh]
	 SCS Correlation Energy    =      -1.8522691185240014 [Eh]
	 SCS Total Energy          =    -439.8098686552707477 [Eh]
	-----------------------------------------------------------

  Dipole Moment: [D]
     X:     0.3623      Y:     5.0696      Z:     0.0001     Total:     5.0826

*** Psi4 exiting successfully. Buy a developer a beer!
