                               Psi4 1.3.2 release

  ==> Input File <==

--------------------------------------------------------------------------
#psi4
#
memory 32 gb

molecule  {
0 1
  O       -1.4171200    -1.3484060     0.0002970
  O        1.4171200    -1.3484050    -0.0003020
  N       -0.0000010     0.4846070    -0.0000160
  C       -2.4067620     0.8604000    -0.0000780
  C        2.4067630     0.8604010     0.0000710
  C       -1.2793802    -0.0943360     0.0000850
  C        1.2583960    -0.1386320    -0.0001000
  C       -3.7624040     0.1688250    -0.0000540
  C        3.7624040     0.1688230     0.0000890
  H       -2.3018130     1.5105900    -0.8783980
  H       -2.3018940     1.5107780     0.8781160
  H        2.3017980     1.5106070     0.8783770
  H        2.3019150     1.5107630    -0.8781370
  H       -0.0000010     1.4988170    -0.0000010
  H       -3.8704140    -0.4663380    -0.8807980
  H       -4.5662770     0.9094320    -0.0000700
  H       -3.8703980    -0.4662950     0.8807210
  H        4.5662780     0.9094290     0.0001070
  H        3.8703950    -0.4663230     0.8808470
  H        3.8704150    -0.4663140    -0.8806720
units angstrom
no_reorient  #important for SAPT in psi4, default
symmetry c1  #important for SAPT in psi4, default
}

set PROPERTIES_ORIGIN ["COM"]
properties('MP2/aug-cc-pvtz', properties = ['dipole'])
--------------------------------------------------------------------------

    Molecular point group: c1
  Charge       = 0
  Multiplicity = 1
  Basis Set: AUG-CC-PVTZ
    Blend: AUG-CC-PVTZ
  Basis Set: (AUG-CC-PVTZ AUX)
    Blend: AUG-CC-PVTZ-JKFIT

    Orbital Energies [Eh]
    ---------------------

    Doubly Occupied:

       1A    -20.538631     2A    -20.533913     3A    -15.617911
       4A    -11.371921     5A    -11.369643     6A    -11.258088
       7A    -11.256425     8A    -11.226625     9A    -11.224625
      10A     -1.396606    11A     -1.358002    12A     -1.242343
      13A     -1.079554    14A     -1.059904    15A     -0.942708
      16A     -0.885966    17A     -0.807033    18A     -0.774253
      19A     -0.708237    20A     -0.680148    21A     -0.661241
      22A     -0.642780    23A     -0.624968    24A     -0.599189
      25A     -0.575981    26A     -0.551019    27A     -0.533323
      28A     -0.527401    29A     -0.525614    30A     -0.523729
      31A     -0.504576    32A     -0.484735    33A     -0.461283
      34A     -0.418615    35A     -0.413485

  @DF-RHF Final Energy:  -437.97186899108073

   => Energetics <=

    Nuclear Repulsion Energy =            447.8773828449861298
    One-Electron Energy =               -1484.9375553752561245
    Two-Electron Energy =                 599.0883035391892690
    Total Energy =                       -437.9718689910806688
  Basis Set: (AUG-CC-PVTZ AUX)
    Blend: AUG-CC-PVTZ-RI
    Molecular point group: c1

    Geometry (in Angstrom), charge = 0, multiplicity = 1:

       Center              X                  Y                   Z               Mass
    ------------   -----------------  -----------------  -----------------  -----------------
         O           -1.415169191476    -1.295030103151     0.000297428450    15.994914619570
         O            1.419070808524    -1.295029103151    -0.000301571550    15.994914619570
         N            0.001949808524     0.537982896849    -0.000015571550    14.003074004430
         C           -2.404811191476     0.913775896849    -0.000077571550    12.000000000000
         C            2.408713808524     0.913776896849     0.000071428450    12.000000000000
         C           -1.277429391476    -0.040960103151     0.000085428450    12.000000000000
         C            1.260346808524    -0.085256103151    -0.000099571550    12.000000000000
         C           -3.760453191476     0.222200896849    -0.000053571550    12.000000000000
         C            3.764354808524     0.222198896849     0.000089428450    12.000000000000
         H           -2.299862191476     1.563965896849    -0.878397571550     1.007825032230
         H           -2.299943191476     1.564153896849     0.878116428450     1.007825032230
         H            2.303748808524     1.563982896849     0.878377428450     1.007825032230
         H            2.303865808524     1.564138896849    -0.878136571550     1.007825032230
         H            0.001949808524     1.552192896849    -0.000000571550     1.007825032230
         H           -3.868463191476    -0.412962103151    -0.880797571550     1.007825032230
         H           -4.564326191476     0.962807896849    -0.000069571550     1.007825032230
         H           -3.868447191476    -0.412919103151     0.880721428450     1.007825032230
         H            4.568228808524     0.962804896849     0.000107428450     1.007825032230
         H            3.872345808524    -0.412947103151     0.880847428450     1.007825032230
         H            3.872365808524    -0.412938103151    -0.880671571550     1.007825032230

  Basis Set: AUG-CC-PVTZ
    Blend: AUG-CC-PVTZ
  Basis Set: (AUG-CC-PVTZ AUX)
    Blend: AUG-CC-PVTZ-JKFIT
	 Reference Energy          =    -437.9718689910807257 [Eh]
	 Singles Energy            =      -0.0000000000000000 [Eh]
	 Same-Spin Energy          =      -0.4414320741557681 [Eh]
	 Opposite-Spin Energy      =      -1.4298408603804023 [Eh]
	 Correlation Energy        =      -1.8712729345361703 [Eh]
	 Total Energy              =    -439.8431419256169193 [Eh]

	 ================> DF-SCS-MP2 Energies <==================
	-----------------------------------------------------------
	 SCS Same-Spin Scale       =       0.3333333333333333 [-]
	 SCS Opposite-Spin Scale   =       1.2000000000000000 [-]
	 SCS Same-Spin Energy      =      -0.1471440247185893 [Eh]
	 SCS Opposite-Spin Energy  =      -1.7158090324564828 [Eh]
	 SCS Correlation Energy    =      -1.8629530571750721 [Eh]
	 SCS Total Energy          =    -439.8348220482557736 [Eh]
	-----------------------------------------------------------

  Dipole Moment: [D]
     X:    -0.0668      Y:     5.9625      Z:    -0.0000     Total:     5.9628

*** Psi4 exiting successfully. Buy a developer a beer!
