                               Psi4 1.3.2 release

  ==> Input File <==

--------------------------------------------------------------------------
#psi4
#
memory 32 gb

molecule  {
0 1
  O       -0.1791250    -0.4779340     0.0014420
  O        1.2676250     1.2989270     0.0090110
  N        2.0163350    -0.8804990    -0.0657410
  C       -1.2686920     0.4722670    -0.0022460
  C       -2.5451940    -0.3377090     0.0025190
  C        1.0558770     0.0965110    -0.0009640
  H       -1.1847720     1.1155630     0.8776850
  H       -1.1852960     1.1054120    -0.8894660
  H       -3.4102260     0.3314020    -0.0008760
  H       -2.5967230    -0.9775020    -0.8809700
  H       -2.5969010    -0.9678970     0.8929970
  H        1.7497370    -1.8166910     0.2040380
  H        2.9498840    -0.5811480     0.1773000
units angstrom
no_reorient  #important for SAPT in psi4, default
symmetry c1  #important for SAPT in psi4, default
}

set PROPERTIES_ORIGIN ["COM"]
properties('MP2/aug-cc-pvtz', properties = ['dipole'])
--------------------------------------------------------------------------

    Molecular point group: c1
  Charge       = 0
  Multiplicity = 1
  Basis Set: AUG-CC-PVTZ
    Blend: AUG-CC-PVTZ
  Basis Set: (AUG-CC-PVTZ AUX)
    Blend: AUG-CC-PVTZ-JKFIT

    Orbital Energies [Eh]
    ---------------------

    Doubly Occupied:

       1A    -20.601614     2A    -20.530174     3A    -15.589355
       4A    -11.405639     5A    -11.288136     6A    -11.224875
       7A     -1.456990     8A     -1.350842     9A     -1.216906
      10A     -1.035188    11A     -0.875319    12A     -0.800032
      13A     -0.744636    14A     -0.700897    15A     -0.683254
      16A     -0.642569    17A     -0.598532    18A     -0.580772
      19A     -0.546182    20A     -0.521867    21A     -0.514091
      22A     -0.462975    23A     -0.457572    24A     -0.431067

  @DF-RHF Final Energy:  -322.01270082891961

   => Energetics <=

    Nuclear Repulsion Energy =            246.1035652994343650
    One-Electron Energy =                -927.7135635973754688
    Two-Electron Energy =                 359.5972974690214414
    Total Energy =                       -322.0127008289196056
  Basis Set: (AUG-CC-PVTZ AUX)
    Blend: AUG-CC-PVTZ-RI
    Molecular point group: c1

    Geometry (in Angstrom), charge = 0, multiplicity = 1:

       Center              X                  Y                   Z               Mass
    ------------   -----------------  -----------------  -----------------  -----------------
         O           -0.249040929499    -0.497810697134     0.005686761904    15.994914619570
         O            1.197709070501     1.279050302866     0.013255761904    15.994914619570
         N            1.946419070501    -0.900375697134    -0.061496238096    14.003074004430
         C           -1.338607929499     0.452390302866     0.001998761904    12.000000000000
         C           -2.615109929499    -0.357585697134     0.006763761904    12.000000000000
         C            0.985961070501     0.076634302866     0.003280761904    12.000000000000
         H           -1.254687929499     1.095686302866     0.881929761904     1.007825032230
         H           -1.255211929499     1.085535302866    -0.885221238096     1.007825032230
         H           -3.480141929499     0.311525302866     0.003368761904     1.007825032230
         H           -2.666638929499    -0.997378697134    -0.876725238096     1.007825032230
         H           -2.666816929499    -0.987773697134     0.897241761904     1.007825032230
         H            1.679821070501    -1.836567697134     0.208282761904     1.007825032230
         H            2.879968070501    -0.601024697134     0.181544761904     1.007825032230

  Basis Set: AUG-CC-PVTZ
    Blend: AUG-CC-PVTZ
  Basis Set: (AUG-CC-PVTZ AUX)
    Blend: AUG-CC-PVTZ-JKFIT
	 Reference Energy          =    -322.0127008289196056 [Eh]
	 Singles Energy            =      -0.0000000000000000 [Eh]
	 Same-Spin Energy          =      -0.3133146796276912 [Eh]
	 Opposite-Spin Energy      =      -0.9935237518408797 [Eh]
	 Correlation Energy        =      -1.3068384314685710 [Eh]
	 Total Energy              =    -323.3195392603881828 [Eh]

	 ================> DF-SCS-MP2 Energies <==================
	-----------------------------------------------------------
	 SCS Same-Spin Scale       =       0.3333333333333333 [-]
	 SCS Opposite-Spin Scale   =       1.2000000000000000 [-]
	 SCS Same-Spin Energy      =      -0.1044382265425637 [Eh]
	 SCS Opposite-Spin Energy  =      -1.1922285022090555 [Eh]
	 SCS Correlation Energy    =      -1.2966667287516191 [Eh]
	 SCS Total Energy          =    -323.3093675576712371 [Eh]
	-----------------------------------------------------------

  Dipole Moment: [D]
     X:    -0.6129      Y:    -2.1977      Z:     0.7154     Total:     2.3911

*** Psi4 exiting successfully. Buy a developer a beer!
