                               Psi4 1.3.2 release

  ==> Input File <==

--------------------------------------------------------------------------
#psi4
#
memory 32 gb

molecule  {
0 1
  O       -0.1791250    -0.4779340     0.0014420
  O        1.2676250     1.2989270     0.0090110
  N        2.0111492    -0.8754252    -0.2656094
  C       -1.2686920     0.4722670    -0.0022460
  C       -2.5451940    -0.3377090     0.0025190
  C        1.0558770     0.0965110    -0.0009640
  H       -1.1847720     1.1155630     0.8776850
  H       -1.1852960     1.1054120    -0.8894660
  H       -3.4102260     0.3314020    -0.0008760
  H       -2.5967230    -0.9775020    -0.8809700
  H       -2.5969010    -0.9678970     0.8929970
  H        1.7497370    -1.8166910     0.2040380
  H        2.9498840    -0.5811480     0.1773000
units angstrom
no_reorient  #important for SAPT in psi4, default
symmetry c1  #important for SAPT in psi4, default
}

set PROPERTIES_ORIGIN ["COM"]
properties('MP2/aug-cc-pvtz', properties = ['dipole'])
--------------------------------------------------------------------------

    Molecular point group: c1
  Charge       = 0
  Multiplicity = 1
  Basis Set: AUG-CC-PVTZ
    Blend: AUG-CC-PVTZ
  Basis Set: (AUG-CC-PVTZ AUX)
    Blend: AUG-CC-PVTZ-JKFIT

    Orbital Energies [Eh]
    ---------------------

    Doubly Occupied:

       1A    -20.604504     2A    -20.537197     3A    -15.604184
       4A    -11.407785     5A    -11.289668     6A    -11.225893
       7A     -1.459466     8A     -1.354761     9A     -1.204004
      10A     -1.035621    11A     -0.872202    12A     -0.793997
      13A     -0.726737    14A     -0.689655    15A     -0.678893
      16A     -0.621427    17A     -0.603641    18A     -0.577663
      19A     -0.545266    20A     -0.524363    21A     -0.515545
      22A     -0.466292    23A     -0.461496    24A     -0.442413

  @DF-RHF Final Energy:  -321.99638529417155

   => Energetics <=

    Nuclear Repulsion Energy =            245.3177186575411213
    One-Electron Energy =                -926.1428599170709504
    Two-Electron Energy =                 358.8287559653582548
    Total Energy =                       -321.9963852941715459
  Basis Set: (AUG-CC-PVTZ AUX)
    Blend: AUG-CC-PVTZ-RI
    Molecular point group: c1

    Geometry (in Angstrom), charge = 0, multiplicity = 1:

       Center              X                  Y                   Z               Mass
    ------------   -----------------  -----------------  -----------------  -----------------
         O           -0.248225443431    -0.498608570791     0.037116800783    15.994914619570
         O            1.198524556569     1.278252429209     0.044685800783    15.994914619570
         N            1.942048756569    -0.896099770791    -0.229934599217    14.003074004430
         C           -1.337792443431     0.451592429209     0.033428800783    12.000000000000
         C           -2.614294443431    -0.358383570791     0.038193800783    12.000000000000
         C            0.986776556569     0.075836429209     0.034710800783    12.000000000000
         H           -1.253872443431     1.094888429209     0.913359800783     1.007825032230
         H           -1.254396443431     1.084737429209    -0.853791199217     1.007825032230
         H           -3.479326443431     0.310727429209     0.034798800783     1.007825032230
         H           -2.665823443431    -0.998176570791    -0.845295199217     1.007825032230
         H           -2.666001443431    -0.988571570791     0.928671800783     1.007825032230
         H            1.680636556569    -1.837365570791     0.239712800783     1.007825032230
         H            2.880783556569    -0.601822570791     0.212974800783     1.007825032230

  Basis Set: AUG-CC-PVTZ
    Blend: AUG-CC-PVTZ
  Basis Set: (AUG-CC-PVTZ AUX)
    Blend: AUG-CC-PVTZ-JKFIT
	 Reference Energy          =    -321.9963852941715459 [Eh]
	 Singles Energy            =      -0.0000000000000000 [Eh]
	 Same-Spin Energy          =      -0.3143758142983742 [Eh]
	 Opposite-Spin Energy      =      -0.9973342530046014 [Eh]
	 Correlation Energy        =      -1.3117100673029758 [Eh]
	 Total Energy              =    -323.3080953614744999 [Eh]

	 ================> DF-SCS-MP2 Energies <==================
	-----------------------------------------------------------
	 SCS Same-Spin Scale       =       0.3333333333333333 [-]
	 SCS Opposite-Spin Scale   =       1.2000000000000000 [-]
	 SCS Same-Spin Energy      =      -0.1047919380994581 [Eh]
	 SCS Opposite-Spin Energy  =      -1.1968011036055217 [Eh]
	 SCS Correlation Energy    =      -1.3015930417049799 [Eh]
	 SCS Total Energy          =    -323.2979783358765076 [Eh]
	-----------------------------------------------------------

  Dipole Moment: [D]
     X:    -0.8103      Y:    -1.9754      Z:     1.1235     Total:     2.4127

*** Psi4 exiting successfully. Buy a developer a beer!
