                               Psi4 1.3.2 release

  ==> Input File <==

--------------------------------------------------------------------------
#psi4
#
memory 32 gb

molecule  {
0 1
  O       -0.1791250    -0.4779340     0.0014420
  O        1.2676250     1.2989270     0.0090110
  N        2.0137421    -0.8779621    -0.1656752
  C       -1.2686920     0.4722670    -0.0022460
  C       -2.5451940    -0.3377090     0.0025190
  C        1.0558770     0.0965110    -0.0009640
  H       -1.1847720     1.1155630     0.8776850
  H       -1.1852960     1.1054120    -0.8894660
  H       -3.4102260     0.3314020    -0.0008760
  H       -2.5967230    -0.9775020    -0.8809700
  H       -2.5969010    -0.9678970     0.8929970
  H        1.7497370    -1.8166910     0.2040380
  H        2.9498840    -0.5811480     0.1773000
units angstrom
no_reorient  #important for SAPT in psi4, default
symmetry c1  #important for SAPT in psi4, default
}

set PROPERTIES_ORIGIN ["COM"]
properties('MP2/aug-cc-pvtz', properties = ['dipole'])
--------------------------------------------------------------------------

    Molecular point group: c1
  Charge       = 0
  Multiplicity = 1
  Basis Set: AUG-CC-PVTZ
    Blend: AUG-CC-PVTZ
  Basis Set: (AUG-CC-PVTZ AUX)
    Blend: AUG-CC-PVTZ-JKFIT

    Orbital Energies [Eh]
    ---------------------

    Doubly Occupied:

       1A    -20.602824     2A    -20.533128     3A    -15.595694
       4A    -11.406280     5A    -11.288760     6A    -11.225296
       7A     -1.458135     8A     -1.352516     9A     -1.211868
      10A     -1.035329    11A     -0.873753    12A     -0.797292
      13A     -0.735973    14A     -0.693719    15A     -0.682271
      16A     -0.634864    17A     -0.600909    18A     -0.579528
      19A     -0.545931    20A     -0.522972    21A     -0.514701
      22A     -0.464225    23A     -0.459376    24A     -0.436334

  @DF-RHF Final Energy:  -322.00782331791197

   => Energetics <=

    Nuclear Repulsion Energy =            245.8021214903044438
    One-Electron Energy =                -927.1165342197991777
    Two-Electron Energy =                 359.3065894115827632
    Total Energy =                       -322.0078233179119707
  Basis Set: (AUG-CC-PVTZ AUX)
    Blend: AUG-CC-PVTZ-RI
    Molecular point group: c1

    Geometry (in Angstrom), charge = 0, multiplicity = 1:

       Center              X                  Y                   Z               Mass
    ------------   -----------------  -----------------  -----------------  -----------------
         O           -0.248633186465    -0.498209633962     0.021401781344    15.994914619570
         O            1.198116813535     1.278651366038     0.028970781344    15.994914619570
         N            1.944233913535    -0.898237733962    -0.145715418656    14.003074004430
         C           -1.338200186465     0.451991366038     0.017713781344    12.000000000000
         C           -2.614702186465    -0.357984633962     0.022478781344    12.000000000000
         C            0.986368813535     0.076235366038     0.018995781344    12.000000000000
         H           -1.254280186465     1.095287366038     0.897644781344     1.007825032230
         H           -1.254804186465     1.085136366038    -0.869506218656     1.007825032230
         H           -3.479734186465     0.311126366038     0.019083781344     1.007825032230
         H           -2.666231186465    -0.997777633962    -0.861010218656     1.007825032230
         H           -2.666409186465    -0.988172633962     0.912956781344     1.007825032230
         H            1.680228813535    -1.836966633962     0.223997781344     1.007825032230
         H            2.880375813535    -0.601423633962     0.197259781344     1.007825032230

  Basis Set: AUG-CC-PVTZ
    Blend: AUG-CC-PVTZ
  Basis Set: (AUG-CC-PVTZ AUX)
    Blend: AUG-CC-PVTZ-JKFIT
	 Reference Energy          =    -322.0078233179119707 [Eh]
	 Singles Energy            =      -0.0000000000000000 [Eh]
	 Same-Spin Energy          =      -0.3137162898316056 [Eh]
	 Opposite-Spin Energy      =      -0.9950088904510797 [Eh]
	 Correlation Energy        =      -1.3087251802826851 [Eh]
	 Total Energy              =    -323.3165484981946634 [Eh]

	 ================> DF-SCS-MP2 Energies <==================
	-----------------------------------------------------------
	 SCS Same-Spin Scale       =       0.3333333333333333 [-]
	 SCS Opposite-Spin Scale   =       1.2000000000000000 [-]
	 SCS Same-Spin Energy      =      -0.1045720966105352 [Eh]
	 SCS Opposite-Spin Energy  =      -1.1940106685412955 [Eh]
	 SCS Correlation Energy    =      -1.2985827651518307 [Eh]
	 SCS Total Energy          =    -323.3064060830637914 [Eh]
	-----------------------------------------------------------

  Dipole Moment: [D]
     X:    -0.6958      Y:    -2.1033      Z:     0.9362     Total:     2.4051

*** Psi4 exiting successfully. Buy a developer a beer!
