                               Psi4 1.3.2 release

  ==> Input File <==

--------------------------------------------------------------------------
#psi4
#
memory 32 gb

molecule  {
0 1
  O       -0.1791250    -0.4779340     0.0014420
  O        1.2676250     1.2989270     0.0090110
  N        2.0124456    -0.8766937    -0.2156423
  C       -1.2686920     0.4722670    -0.0022460
  C       -2.5451940    -0.3377090     0.0025190
  C        1.0558770     0.0965110    -0.0009640
  H       -1.1847720     1.1155630     0.8776850
  H       -1.1852960     1.1054120    -0.8894660
  H       -3.4102260     0.3314020    -0.0008760
  H       -2.5967230    -0.9775020    -0.8809700
  H       -2.5969010    -0.9678970     0.8929970
  H        1.7497370    -1.8166910     0.2040380
  H        2.9498840    -0.5811480     0.1773000
units angstrom
no_reorient  #important for SAPT in psi4, default
symmetry c1  #important for SAPT in psi4, default
}

set PROPERTIES_ORIGIN ["COM"]
properties('MP2/aug-cc-pvtz', properties = ['dipole'])
--------------------------------------------------------------------------

    Molecular point group: c1
  Charge       = 0
  Multiplicity = 1
  Basis Set: AUG-CC-PVTZ
    Blend: AUG-CC-PVTZ
  Basis Set: (AUG-CC-PVTZ AUX)
    Blend: AUG-CC-PVTZ-JKFIT

    Orbital Energies [Eh]
    ---------------------

    Doubly Occupied:

       1A    -20.603619     2A    -20.535056     3A    -15.599666
       4A    -11.406929     5A    -11.289185     6A    -11.225577
       7A     -1.458788     8A     -1.353585     9A     -1.208285
      10A     -1.035460    11A     -0.872948    12A     -0.795655
      13A     -0.731431    14A     -0.691104    15A     -0.680897
      16A     -0.628908    17A     -0.602250    18A     -0.578672
      19A     -0.545681    20A     -0.523635    21A     -0.515101
      22A     -0.465139    23A     -0.460429    24A     -0.439335

  @DF-RHF Final Energy:  -322.00302429493530

   => Energetics <=

    Nuclear Repulsion Energy =            245.5814281591900965
    One-Electron Energy =                -926.6742306501253097
    Two-Electron Energy =                 359.0897781959999406
    Total Energy =                       -322.0030242949353010
  Basis Set: (AUG-CC-PVTZ AUX)
    Blend: AUG-CC-PVTZ-RI
    Molecular point group: c1

    Geometry (in Angstrom), charge = 0, multiplicity = 1:

       Center              X                  Y                   Z               Mass
    ------------   -----------------  -----------------  -----------------  -----------------
         O           -0.248429307085    -0.498409094514     0.029259291063    15.994914619570
         O            1.198320692915     1.278451905486     0.036828291063    15.994914619570
         N            1.943141292915    -0.897168794514    -0.187825008937    14.003074004430
         C           -1.337996307085     0.451791905486     0.025571291063    12.000000000000
         C           -2.614498307085    -0.358184094514     0.030336291063    12.000000000000
         C            0.986572692915     0.076035905486     0.026853291063    12.000000000000
         H           -1.254076307085     1.095087905486     0.905502291063     1.007825032230
         H           -1.254600307085     1.084936905486    -0.861648708937     1.007825032230
         H           -3.479530307085     0.310926905486     0.026941291063     1.007825032230
         H           -2.666027307085    -0.997977094514    -0.853152708937     1.007825032230
         H           -2.666205307085    -0.988372094514     0.920814291063     1.007825032230
         H            1.680432692915    -1.837166094514     0.231855291063     1.007825032230
         H            2.880579692915    -0.601623094514     0.205117291063     1.007825032230

  Basis Set: AUG-CC-PVTZ
    Blend: AUG-CC-PVTZ
  Basis Set: (AUG-CC-PVTZ AUX)
    Blend: AUG-CC-PVTZ-JKFIT
	 Reference Energy          =    -322.0030242949353010 [Eh]
	 Singles Energy            =      -0.0000000000000000 [Eh]
	 Same-Spin Energy          =      -0.3140105965768835 [Eh]
	 Opposite-Spin Energy      =      -0.9960591330979399 [Eh]
	 Correlation Energy        =      -1.3100697296748234 [Eh]
	 Total Energy              =    -323.3130940246101090 [Eh]

	 ================> DF-SCS-MP2 Energies <==================
	-----------------------------------------------------------
	 SCS Same-Spin Scale       =       0.3333333333333333 [-]
	 SCS Opposite-Spin Scale   =       1.2000000000000000 [-]
	 SCS Same-Spin Energy      =      -0.1046701988589612 [Eh]
	 SCS Opposite-Spin Energy  =      -1.1952709597175279 [Eh]
	 SCS Correlation Energy    =      -1.2999411585764891 [Eh]
	 SCS Total Energy          =    -323.3029654535117743 [Eh]
	-----------------------------------------------------------

  Dipole Moment: [D]
     X:    -0.7498      Y:    -2.0427      Z:     1.0343     Total:     2.4093

*** Psi4 exiting successfully. Buy a developer a beer!
