                               Psi4 1.3.2 release

  ==> Input File <==

--------------------------------------------------------------------------
#psi4
#
memory 32 gb

molecule  {
0 1
  O       -0.1791250    -0.4779340     0.0014420
  O        1.2676250     1.2989270     0.0090110
  N        2.0098527    -0.8741568    -0.3155765
  C       -1.2686920     0.4722670    -0.0022460
  C       -2.5451940    -0.3377090     0.0025190
  C        1.0558770     0.0965110    -0.0009640
  H       -1.1847720     1.1155630     0.8776850
  H       -1.1852960     1.1054120    -0.8894660
  H       -3.4102260     0.3314020    -0.0008760
  H       -2.5967230    -0.9775020    -0.8809700
  H       -2.5969010    -0.9678970     0.8929970
  H        1.7497370    -1.8166910     0.2040380
  H        2.9498840    -0.5811480     0.1773000
units angstrom
no_reorient  #important for SAPT in psi4, default
symmetry c1  #important for SAPT in psi4, default
}

set PROPERTIES_ORIGIN ["COM"]
properties('MP2/aug-cc-pvtz', properties = ['dipole'])
--------------------------------------------------------------------------

    Molecular point group: c1
  Charge       = 0
  Multiplicity = 1
  Basis Set: AUG-CC-PVTZ
    Blend: AUG-CC-PVTZ
  Basis Set: (AUG-CC-PVTZ AUX)
    Blend: AUG-CC-PVTZ-JKFIT

    Orbital Energies [Eh]
    ---------------------

    Doubly Occupied:

       1A    -20.605453     2A    -20.539488     3A    -15.609235
       4A    -11.408843     5A    -11.290197     6A    -11.226238
       7A     -1.460150     8A     -1.356012     9A     -1.199046
      10A     -1.035806    11A     -0.871552    12A     -0.792431
      13A     -0.721900    14A     -0.689049    15A     -0.676643
      16A     -0.612691    17A     -0.605043    18A     -0.576501
      19A     -0.544587    20A     -0.525145    21A     -0.516020
      22A     -0.467717    23A     -0.462523    24A     -0.445417

  @DF-RHF Final Energy:  -321.98777483242219

   => Energetics <=

    Nuclear Repulsion Energy =            245.0139629938130668
    One-Electron Energy =                -925.5280992548370023
    Two-Electron Energy =                 358.5263614286017742
    Total Energy =                       -321.9877748324221898
  Basis Set: (AUG-CC-PVTZ AUX)
    Blend: AUG-CC-PVTZ-RI
    Molecular point group: c1

    Geometry (in Angstrom), charge = 0, multiplicity = 1:

       Center              X                  Y                   Z               Mass
    ------------   -----------------  -----------------  -----------------  -----------------
         O           -0.248021564051    -0.498808031343     0.044974310503    15.994914619570
         O            1.198728435949     1.278052968657     0.052543310503    15.994914619570
         N            1.940956135949    -0.895030831343    -0.272044189497    14.003074004430
         C           -1.337588564051     0.451392968657     0.041286310503    12.000000000000
         C           -2.614090564051    -0.358583031343     0.046051310503    12.000000000000
         C            0.986980435949     0.075636968657     0.042568310503    12.000000000000
         H           -1.253668564051     1.094688968657     0.921217310503     1.007825032230
         H           -1.254192564051     1.084537968657    -0.845933689497     1.007825032230
         H           -3.479122564051     0.310527968657     0.042656310503     1.007825032230
         H           -2.665619564051    -0.998376031343    -0.837437689497     1.007825032230
         H           -2.665797564051    -0.988771031343     0.936529310503     1.007825032230
         H            1.680840435949    -1.837565031343     0.247570310503     1.007825032230
         H            2.880987435949    -0.602022031343     0.220832310503     1.007825032230

  Basis Set: AUG-CC-PVTZ
    Blend: AUG-CC-PVTZ
  Basis Set: (AUG-CC-PVTZ AUX)
    Blend: AUG-CC-PVTZ-JKFIT
	 Reference Energy          =    -321.9877748324221898 [Eh]
	 Singles Energy            =      -0.0000000000000000 [Eh]
	 Same-Spin Energy          =      -0.3148186020786558 [Eh]
	 Opposite-Spin Energy      =      -0.9988499773234378 [Eh]
	 Correlation Energy        =      -1.3136685794020937 [Eh]
	 Total Energy              =    -323.3014434118242661 [Eh]

	 ================> DF-SCS-MP2 Energies <==================
	-----------------------------------------------------------
	 SCS Same-Spin Scale       =       0.3333333333333333 [-]
	 SCS Opposite-Spin Scale   =       1.2000000000000000 [-]
	 SCS Same-Spin Energy      =      -0.1049395340262186 [Eh]
	 SCS Opposite-Spin Energy  =      -1.1986199727881253 [Eh]
	 SCS Correlation Energy    =      -1.3035595068143440 [Eh]
	 SCS Total Energy          =    -323.2913343392365277 [Eh]
	-----------------------------------------------------------

  Dipole Moment: [D]
     X:    -0.8758      Y:    -1.9030      Z:     1.2034     Total:     2.4159

*** Psi4 exiting successfully. Buy a developer a beer!
