                               Psi4 1.3.2 release

  ==> Input File <==

--------------------------------------------------------------------------
#psi4
#
memory 32 gb

molecule  {
0 1
  O       -0.1791250    -0.4779340     0.0014420
  O        1.2676250     1.2989270     0.0090110
  N        2.0150385    -0.8792306    -0.1157081
  C       -1.2686920     0.4722670    -0.0022460
  C       -2.5451940    -0.3377090     0.0025190
  C        1.0558770     0.0965110    -0.0009640
  H       -1.1847720     1.1155630     0.8776850
  H       -1.1852960     1.1054120    -0.8894660
  H       -3.4102260     0.3314020    -0.0008760
  H       -2.5967230    -0.9775020    -0.8809700
  H       -2.5969010    -0.9678970     0.8929970
  H        1.7497370    -1.8166910     0.2040380
  H        2.9498840    -0.5811480     0.1773000
units angstrom
no_reorient  #important for SAPT in psi4, default
symmetry c1  #important for SAPT in psi4, default
}

set PROPERTIES_ORIGIN ["COM"]
properties('MP2/aug-cc-pvtz', properties = ['dipole'])
--------------------------------------------------------------------------

    Molecular point group: c1
  Charge       = 0
  Multiplicity = 1
  Basis Set: AUG-CC-PVTZ
    Blend: AUG-CC-PVTZ
  Basis Set: (AUG-CC-PVTZ AUX)
    Blend: AUG-CC-PVTZ-JKFIT

    Orbital Energies [Eh]
    ---------------------

    Doubly Occupied:

       1A    -20.602146     2A    -20.531479     3A    -15.592262
       4A    -11.405848     5A    -11.288406     6A    -11.225059
       7A     -1.457527     8A     -1.351590     9A     -1.214743
      10A     -1.035235    11A     -0.874563    12A     -0.798788
      13A     -0.740381    14A     -0.697219    15A     -0.682974
      16A     -0.639330    17A     -0.599656    18A     -0.580231
      19A     -0.546082    20A     -0.522381    21A     -0.514359
      22A     -0.463513    23A     -0.458402    24A     -0.433540

  @DF-RHF Final Energy:  -322.01097012314733

   => Energetics <=

    Nuclear Repulsion Energy =            245.9770095194090516
    One-Electron Energy =                -927.4645294472431942
    Two-Electron Energy =                 359.4765498046867833
    Total Energy =                       -322.0109701231473309
  Basis Set: (AUG-CC-PVTZ AUX)
    Blend: AUG-CC-PVTZ-RI
    Molecular point group: c1

    Geometry (in Angstrom), charge = 0, multiplicity = 1:

       Center              X                  Y                   Z               Mass
    ------------   -----------------  -----------------  -----------------  -----------------
         O           -0.248837050119    -0.498010157685     0.013544271624    15.994914619570
         O            1.197912949881     1.278850842315     0.021113271624    15.994914619570
         N            1.945326449881    -0.899306757685    -0.103605828376    14.003074004430
         C           -1.338404050119     0.452190842315     0.009856271624    12.000000000000
         C           -2.614906050119    -0.357785157685     0.014621271624    12.000000000000
         C            0.986164949881     0.076434842315     0.011138271624    12.000000000000
         H           -1.254484050119     1.095486842315     0.889787271624     1.007825032230
         H           -1.255008050119     1.085335842315    -0.877363728376     1.007825032230
         H           -3.479938050119     0.311325842315     0.011226271624     1.007825032230
         H           -2.666435050119    -0.997578157685    -0.868867728376     1.007825032230
         H           -2.666613050119    -0.987973157685     0.905099271624     1.007825032230
         H            1.680024949881    -1.836767157685     0.216140271624     1.007825032230
         H            2.880171949881    -0.601224157685     0.189402271624     1.007825032230

  Basis Set: AUG-CC-PVTZ
    Blend: AUG-CC-PVTZ
  Basis Set: (AUG-CC-PVTZ AUX)
    Blend: AUG-CC-PVTZ-JKFIT
	 Reference Energy          =    -322.0109701231473309 [Eh]
	 Singles Energy            =      -0.0000000000000000 [Eh]
	 Same-Spin Energy          =      -0.3134864316895745 [Eh]
	 Opposite-Spin Energy      =      -0.9941683063995903 [Eh]
	 Correlation Energy        =      -1.3076547380891648 [Eh]
	 Total Energy              =    -323.3186248612365148 [Eh]

	 ================> DF-SCS-MP2 Energies <==================
	-----------------------------------------------------------
	 SCS Same-Spin Scale       =       0.3333333333333333 [-]
	 SCS Opposite-Spin Scale   =       1.2000000000000000 [-]
	 SCS Same-Spin Energy      =      -0.1044954772298581 [Eh]
	 SCS Opposite-Spin Energy  =      -1.1930019676795083 [Eh]
	 SCS Correlation Energy    =      -1.2974974449093664 [Eh]
	 SCS Total Energy          =    -323.3084675680566988 [Eh]
	-----------------------------------------------------------

  Dipole Moment: [D]
     X:    -0.6497      Y:    -2.1555      Z:     0.8298     Total:     2.3994

*** Psi4 exiting successfully. Buy a developer a beer!
