                               Psi4 1.3.2 release

  ==> Input File <==

--------------------------------------------------------------------------
#psi4
#
memory 32 gb

molecule  {
0 1
  N        0.6331050     1.8115130    -0.0000210
  C        0.1785470    -0.3913160     0.0000090
  C       -0.4036780     0.9062970    -0.0000200
  C        1.6027310    -0.2274780     0.0000040
  C        1.8344040     1.1305020     0.0000620
  C       -0.6692560    -1.5149550    -0.0000180
  C       -1.7891546     1.1099890    -0.2000270
  C        2.6263130    -1.3178960     0.0000690
  C       -2.0437110    -1.3184960    -0.0000320
  C       -2.5979760    -0.0198630    -0.0000430
  H        0.5326130     2.8174890    -0.0000320
  H        2.7737950     1.6707360     0.0000730
  H       -0.2550790    -2.5217040    -0.0000060
  H       -2.2189390     2.1099340    -0.0000460
  H        2.5289900    -1.9586870     0.8831790
  H        2.5285290    -1.9592090    -0.8826100
  H        3.6376590    -0.9002700    -0.0003210
  H       -2.7095800    -2.1783550    -0.0000520
  H       -3.6790270     0.0987570    -0.0000620
units angstrom
no_reorient  #important for SAPT in psi4, default
symmetry c1  #important for SAPT in psi4, default
}

set PROPERTIES_ORIGIN ["COM"]
properties('MP2/aug-cc-pvtz', properties = ['dipole'])
--------------------------------------------------------------------------

    Molecular point group: c1
  Charge       = 0
  Multiplicity = 1
  Basis Set: AUG-CC-PVTZ
    Blend: AUG-CC-PVTZ
  Basis Set: (AUG-CC-PVTZ AUX)
    Blend: AUG-CC-PVTZ-JKFIT

    Orbital Energies [Eh]
    ---------------------

    Doubly Occupied:

       1A    -15.600150     2A    -11.267810     3A    -11.264504
       4A    -11.234732     5A    -11.233187     6A    -11.233137
       7A    -11.223094     8A    -11.222037     9A    -11.221680
      10A    -11.221255    11A     -1.291859    12A     -1.126242
      13A     -1.071625    14A     -0.995991    15A     -0.985649
      16A     -0.930980    17A     -0.838796    18A     -0.802606
      19A     -0.754988    20A     -0.718656    21A     -0.660116
      22A     -0.642714    23A     -0.602332    24A     -0.592458
      25A     -0.588214    26A     -0.568620    27A     -0.551035
      28A     -0.542620    29A     -0.529240    30A     -0.497645
      31A     -0.474479    32A     -0.461092    33A     -0.374380
      34A     -0.298831    35A     -0.277870

  @DF-RHF Final Energy:  -400.62850411638692

   => Energetics <=

    Nuclear Repulsion Energy =            482.8092774829829068
    One-Electron Energy =               -1499.0743141126054070
    Two-Electron Energy =                 615.6365325132355792
    Total Energy =                       -400.6285041163869209
  Basis Set: (AUG-CC-PVTZ AUX)
    Blend: AUG-CC-PVTZ-RI
    Molecular point group: c1

    Geometry (in Angstrom), charge = 0, multiplicity = 1:

       Center              X                  Y                   Z               Mass
    ------------   -----------------  -----------------  -----------------  -----------------
         N            0.656850666196     1.790114526775     0.018290268983    14.003074004430
         C            0.202292666196    -0.412714473225     0.018320268983    12.000000000000
         C           -0.379932333804     0.884898526775     0.018291268983    12.000000000000
         C            1.626476666196    -0.248876473225     0.018315268983    12.000000000000
         C            1.858149666196     1.109103526775     0.018373268983    12.000000000000
         C           -0.645510333804    -1.536353473225     0.018293268983    12.000000000000
         C           -1.765408933804     1.088590526775    -0.181715731017    12.000000000000
         C            2.650058666196    -1.339294473225     0.018380268983    12.000000000000
         C           -2.019965333804    -1.339894473225     0.018279268983    12.000000000000
         C           -2.574230333804    -0.041261473225     0.018268268983    12.000000000000
         H            0.556358666196     2.796090526775     0.018279268983     1.007825032230
         H            2.797540666196     1.649337526775     0.018384268983     1.007825032230
         H           -0.231333333804    -2.543102473225     0.018305268983     1.007825032230
         H           -2.195193333804     2.088535526775     0.018265268983     1.007825032230
         H            2.552735666196    -1.980085473225     0.901490268983     1.007825032230
         H            2.552274666196    -1.980607473225    -0.864298731017     1.007825032230
         H            3.661404666196    -0.921668473225     0.017990268983     1.007825032230
         H           -2.685834333804    -2.199753473225     0.018259268983     1.007825032230
         H           -3.655281333804     0.077358526775     0.018249268983     1.007825032230

  Basis Set: AUG-CC-PVTZ
    Blend: AUG-CC-PVTZ
  Basis Set: (AUG-CC-PVTZ AUX)
    Blend: AUG-CC-PVTZ-JKFIT
	 Reference Energy          =    -400.6285041163869209 [Eh]
	 Singles Energy            =      -0.0000000000000000 [Eh]
	 Same-Spin Energy          =      -0.4522261113582812 [Eh]
	 Opposite-Spin Energy      =      -1.4056081006587284 [Eh]
	 Correlation Energy        =      -1.8578342120170097 [Eh]
	 Total Energy              =    -402.4863383284039173 [Eh]

	 ================> DF-SCS-MP2 Energies <==================
	-----------------------------------------------------------
	 SCS Same-Spin Scale       =       0.3333333333333333 [-]
	 SCS Opposite-Spin Scale   =       1.2000000000000000 [-]
	 SCS Same-Spin Energy      =      -0.1507420371194270 [Eh]
	 SCS Opposite-Spin Energy  =      -1.6867297207904741 [Eh]
	 SCS Correlation Energy    =      -1.8374717579099011 [Eh]
	 SCS Total Energy          =    -402.4659758742968165 [Eh]
	-----------------------------------------------------------

  Dipole Moment: [D]
     X:     1.0127      Y:     1.7096      Z:     0.1363     Total:     1.9917

*** Psi4 exiting successfully. Buy a developer a beer!
