                               Psi4 1.3.2 release

  ==> Input File <==

--------------------------------------------------------------------------
#psi4
#
memory 32 gb

molecule  {
0 1
  N        0.6331050     1.8115130    -0.0000210
  C        0.1785470    -0.3913160     0.0000090
  C       -0.4036780     0.9062970    -0.0000200
  C        1.6027310    -0.2274780     0.0000040
  C        1.8344040     1.1305020     0.0000620
  C       -0.6692560    -1.5149550    -0.0000180
  C       -1.7891560     1.1099920    -0.0000270
  C        2.6263130    -1.3178960     0.0000690
  C       -2.0437110    -1.3184960    -0.0000320
  C       -2.5979760    -0.0198630    -0.0000430
  H        0.5326130     2.8174890    -0.0000320
  H        2.7737950     1.6707360     0.0000730
  H       -0.2550790    -2.5217040    -0.0000060
  H       -2.2189390     2.1099340    -0.0000460
  H        2.5289900    -1.9586870     0.8831790
  H        2.5285290    -1.9592090    -0.8826100
  H        3.6376605    -0.9002749     0.0496790
  H       -2.7095800    -2.1783550    -0.0000520
  H       -3.6790270     0.0987570    -0.0000620
units angstrom
no_reorient  #important for SAPT in psi4, default
symmetry c1  #important for SAPT in psi4, default
}

set PROPERTIES_ORIGIN ["COM"]
properties('MP2/aug-cc-pvtz', properties = ['dipole'])
--------------------------------------------------------------------------

    Molecular point group: c1
  Charge       = 0
  Multiplicity = 1
  Basis Set: AUG-CC-PVTZ
    Blend: AUG-CC-PVTZ
  Basis Set: (AUG-CC-PVTZ AUX)
    Blend: AUG-CC-PVTZ-JKFIT

    Orbital Energies [Eh]
    ---------------------

    Doubly Occupied:

       1A    -15.599931     2A    -11.265272     3A    -11.264553
       4A    -11.231844     5A    -11.230642     6A    -11.229442
       7A    -11.222729     8A    -11.221867     9A    -11.221425
      10A    -11.221050    11A     -1.291666    12A     -1.127011
      13A     -1.072141    14A     -0.997311    15A     -0.985726
      16A     -0.930887    17A     -0.838987    18A     -0.803945
      19A     -0.755816    20A     -0.720057    21A     -0.659950
      22A     -0.644600    23A     -0.603602    24A     -0.592788
      25A     -0.591954    26A     -0.569744    27A     -0.551461
      28A     -0.542337    29A     -0.529236    30A     -0.497535
      31A     -0.475698    32A     -0.463069    33A     -0.374545
      34A     -0.298674    35A     -0.277702

  @DF-RHF Final Energy:  -400.63994930435456

   => Energetics <=

    Nuclear Repulsion Energy =            483.2569432391858868
    One-Electron Energy =               -1499.9833960273103912
    Two-Electron Energy =                 616.0865034837700023
    Total Energy =                       -400.6399493043545590
  Basis Set: (AUG-CC-PVTZ AUX)
    Blend: AUG-CC-PVTZ-RI
    Molecular point group: c1

    Geometry (in Angstrom), charge = 0, multiplicity = 1:

       Center              X                  Y                   Z               Mass
    ------------   -----------------  -----------------  -----------------  -----------------
         N            0.656850782835     1.790114289796    -0.000404518788    14.003074004430
         C            0.202292782835    -0.412714710204    -0.000374518788    12.000000000000
         C           -0.379932217165     0.884898289796    -0.000403518788    12.000000000000
         C            1.626476782835    -0.248876710204    -0.000379518788    12.000000000000
         C            1.858149782835     1.109103289796    -0.000321518788    12.000000000000
         C           -0.645510217165    -1.536353710204    -0.000401518788    12.000000000000
         C           -1.765410217165     1.088593289796    -0.000410518788    12.000000000000
         C            2.650058782835    -1.339294710204    -0.000314518788    12.000000000000
         C           -2.019965217165    -1.339894710204    -0.000415518788    12.000000000000
         C           -2.574230217165    -0.041261710204    -0.000426518788    12.000000000000
         H            0.556358782835     2.796090289796    -0.000415518788     1.007825032230
         H            2.797540782835     1.649337289796    -0.000310518788     1.007825032230
         H           -0.231333217165    -2.543102710204    -0.000389518788     1.007825032230
         H           -2.195193217165     2.088535289796    -0.000429518788     1.007825032230
         H            2.552735782835    -1.980085710204     0.882795481212     1.007825032230
         H            2.552274782835    -1.980607710204    -0.882993518788     1.007825032230
         H            3.661406282835    -0.921673610204     0.049295481212     1.007825032230
         H           -2.685834217165    -2.199753710204    -0.000435518788     1.007825032230
         H           -3.655281217165     0.077358289796    -0.000445518788     1.007825032230

  Basis Set: AUG-CC-PVTZ
    Blend: AUG-CC-PVTZ
  Basis Set: (AUG-CC-PVTZ AUX)
    Blend: AUG-CC-PVTZ-JKFIT
	 Reference Energy          =    -400.6399493043545590 [Eh]
	 Singles Energy            =      -0.0000000000000000 [Eh]
	 Same-Spin Energy          =      -0.4517030994727366 [Eh]
	 Opposite-Spin Energy      =      -1.4041460369872276 [Eh]
	 Correlation Energy        =      -1.8558491364599643 [Eh]
	 Total Energy              =    -402.4957984408144966 [Eh]

	 ================> DF-SCS-MP2 Energies <==================
	-----------------------------------------------------------
	 SCS Same-Spin Scale       =       0.3333333333333333 [-]
	 SCS Opposite-Spin Scale   =       1.2000000000000000 [-]
	 SCS Same-Spin Energy      =      -0.1505676998242455 [Eh]
	 SCS Opposite-Spin Energy  =      -1.6849752443846731 [Eh]
	 SCS Correlation Energy    =      -1.8355429442089186 [Eh]
	 SCS Total Energy          =    -402.4754922485634552 [Eh]
	-----------------------------------------------------------

  Dipole Moment: [D]
     X:     0.9563      Y:     1.8046      Z:     0.0172     Total:     2.0424

*** Psi4 exiting successfully. Buy a developer a beer!
