                               Psi4 1.3.2 release

  ==> Input File <==

--------------------------------------------------------------------------
#psi4
#
memory 32 gb

molecule  {
0 1
  N        0.6331050     1.8115130    -0.0000210
  C        0.1785470    -0.3913160     0.0000090
  C       -0.4036780     0.9062970    -0.0000200
  C        1.6027310    -0.2274780     0.0000040
  C        1.8344040     1.1305020     0.0000620
  C       -0.6692560    -1.5149550    -0.0000180
  C       -1.7891560     1.1099920    -0.0000270
  C        2.6263130    -1.3178960     0.0000690
  C       -2.0437110    -1.3184960    -0.0000320
  C       -2.5979760    -0.0198630    -0.0000430
  H        0.5326130     2.8174890    -0.0000320
  H        2.7737950     1.6707360     0.0000730
  H       -0.2550790    -2.5217040    -0.0000060
  H       -2.2189390     2.1099340    -0.0000460
  H        2.5289900    -1.9586870     0.8831790
  H        2.5285290    -1.9592090    -0.8826100
  H        3.6376590    -0.9002700    -0.0003210
  H       -2.7095800    -2.1783550    -0.0000520
  H       -3.6790252     0.0987570    -0.1000620
units angstrom
no_reorient  #important for SAPT in psi4, default
symmetry c1  #important for SAPT in psi4, default
}

set PROPERTIES_ORIGIN ["COM"]
properties('MP2/aug-cc-pvtz', properties = ['dipole'])
--------------------------------------------------------------------------

    Molecular point group: c1
  Charge       = 0
  Multiplicity = 1
  Basis Set: AUG-CC-PVTZ
    Blend: AUG-CC-PVTZ
  Basis Set: (AUG-CC-PVTZ AUX)
    Blend: AUG-CC-PVTZ-JKFIT

    Orbital Energies [Eh]
    ---------------------

    Doubly Occupied:

       1A    -15.599976     2A    -11.265304     3A    -11.264629
       4A    -11.231957     5A    -11.230661     6A    -11.229801
       7A    -11.222781     8A    -11.221884     9A    -11.221384
      10A    -11.221116    11A     -1.291716    12A     -1.127025
      13A     -1.072180    14A     -0.997353    15A     -0.985654
      16A     -0.930937    17A     -0.838957    18A     -0.803727
      19A     -0.755880    20A     -0.719988    21A     -0.659686
      22A     -0.644408    23A     -0.603507    24A     -0.592772
      25A     -0.591956    26A     -0.569710    27A     -0.551429
      28A     -0.542278    29A     -0.529346    30A     -0.497691
      31A     -0.475967    32A     -0.462602    33A     -0.374536
      34A     -0.298698    35A     -0.277720

  @DF-RHF Final Energy:  -400.63957072516911

   => Energetics <=

    Nuclear Repulsion Energy =            483.2435444121342698
    One-Electron Energy =               -1499.9557974621645826
    Two-Electron Energy =                 616.0726823248612618
    Total Energy =                       -400.6395707251690510
  Basis Set: (AUG-CC-PVTZ AUX)
    Blend: AUG-CC-PVTZ-RI
    Molecular point group: c1

    Geometry (in Angstrom), charge = 0, multiplicity = 1:

       Center              X                  Y                   Z               Mass
    ------------   -----------------  -----------------  -----------------  -----------------
         N            0.656850780528     1.790114252120     0.000748832238    14.003074004430
         C            0.202292780528    -0.412714747880     0.000778832238    12.000000000000
         C           -0.379932219472     0.884898252120     0.000749832238    12.000000000000
         C            1.626476780528    -0.248876747880     0.000773832238    12.000000000000
         C            1.858149780528     1.109103252120     0.000831832238    12.000000000000
         C           -0.645510219472    -1.536353747880     0.000751832238    12.000000000000
         C           -1.765410219472     1.088593252120     0.000742832238    12.000000000000
         C            2.650058780528    -1.339294747880     0.000838832238    12.000000000000
         C           -2.019965219472    -1.339894747880     0.000737832238    12.000000000000
         C           -2.574230219472    -0.041261747880     0.000726832238    12.000000000000
         H            0.556358780528     2.796090252120     0.000737832238     1.007825032230
         H            2.797540780528     1.649337252120     0.000842832238     1.007825032230
         H           -0.231333219472    -2.543102747880     0.000763832238     1.007825032230
         H           -2.195193219472     2.088535252120     0.000723832238     1.007825032230
         H            2.552735780528    -1.980085747880     0.883948832238     1.007825032230
         H            2.552274780528    -1.980607747880    -0.881840167762     1.007825032230
         H            3.661404780528    -0.921668747880     0.000448832238     1.007825032230
         H           -2.685834219472    -2.199753747880     0.000717832238     1.007825032230
         H           -3.655279419472     0.077358252120    -0.099292167762     1.007825032230

  Basis Set: AUG-CC-PVTZ
    Blend: AUG-CC-PVTZ
  Basis Set: (AUG-CC-PVTZ AUX)
    Blend: AUG-CC-PVTZ-JKFIT
	 Reference Energy          =    -400.6395707251691078 [Eh]
	 Singles Energy            =      -0.0000000000000000 [Eh]
	 Same-Spin Energy          =      -0.4517310120481491 [Eh]
	 Opposite-Spin Energy      =      -1.4041919801800877 [Eh]
	 Correlation Energy        =      -1.8559229922282370 [Eh]
	 Total Energy              =    -402.4954937173973235 [Eh]

	 ================> DF-SCS-MP2 Energies <==================
	-----------------------------------------------------------
	 SCS Same-Spin Scale       =       0.3333333333333333 [-]
	 SCS Opposite-Spin Scale   =       1.2000000000000000 [-]
	 SCS Same-Spin Energy      =      -0.1505770040160497 [Eh]
	 SCS Opposite-Spin Energy  =      -1.6850303762161052 [Eh]
	 SCS Correlation Energy    =      -1.8356073802321549 [Eh]
	 SCS Total Energy          =    -402.4751781054012554 [Eh]
	-----------------------------------------------------------

  Dipole Moment: [D]
     X:     0.9685      Y:     1.8044      Z:    -0.0656     Total:     2.0489

*** Psi4 exiting successfully. Buy a developer a beer!
