                               Psi4 1.3.2 release

  ==> Input File <==

--------------------------------------------------------------------------
#psi4
#
memory 32 gb

molecule  {
0 1
  N        0.6331050     1.8115130    -0.0000210
  C        0.1785470    -0.3913160     0.0000090
  C       -0.4036780     0.9062970    -0.0000200
  C        1.6027310    -0.2274780     0.0000040
  C        1.8344040     1.1305020     0.0000620
  C       -0.6692560    -1.5149550    -0.0000180
  C       -1.7891560     1.1099920    -0.0000270
  C        2.6263130    -1.3178960     0.0000690
  C       -2.0437110    -1.3184960    -0.0000320
  C       -2.5979760    -0.0198630    -0.0000430
  H        0.5326130     2.8174890    -0.0000320
  H        2.7737950     1.6707360     0.0000730
  H       -0.2550790    -2.5217040    -0.0000060
  H       -2.2189390     2.1099340    -0.0000460
  H        2.5289900    -1.9586870     0.8831790
  H        2.5285290    -1.9592090    -0.8826100
  H        3.6376682    -0.9002993     0.2996790
  H       -2.7095800    -2.1783550    -0.0000520
  H       -3.6790270     0.0987570    -0.0000620
units angstrom
no_reorient  #important for SAPT in psi4, default
symmetry c1  #important for SAPT in psi4, default
}

set PROPERTIES_ORIGIN ["COM"]
properties('MP2/aug-cc-pvtz', properties = ['dipole'])
--------------------------------------------------------------------------

    Molecular point group: c1
  Charge       = 0
  Multiplicity = 1
  Basis Set: AUG-CC-PVTZ
    Blend: AUG-CC-PVTZ
  Basis Set: (AUG-CC-PVTZ AUX)
    Blend: AUG-CC-PVTZ-JKFIT

    Orbital Energies [Eh]
    ---------------------

    Doubly Occupied:

       1A    -15.600034     2A    -11.265316     3A    -11.264644
       4A    -11.231904     5A    -11.230668     6A    -11.229476
       7A    -11.226529     8A    -11.222762     9A    -11.221767
      10A    -11.221115    11A     -1.291759    12A     -1.127071
      13A     -1.071965    14A     -0.997215    15A     -0.985363
      16A     -0.929807    17A     -0.839029    18A     -0.803814
      19A     -0.755393    20A     -0.720105    21A     -0.659872
      22A     -0.644620    23A     -0.606075    24A     -0.594441
      25A     -0.592130    26A     -0.570789    27A     -0.553172
      28A     -0.542897    29A     -0.519126    30A     -0.493154
      31A     -0.471764    32A     -0.463121    33A     -0.374645
      34A     -0.298742    35A     -0.277835

  @DF-RHF Final Energy:  -400.63103237587984

   => Energetics <=

    Nuclear Repulsion Energy =            483.1210917303317842
    One-Electron Energy =               -1499.7080073744452875
    Two-Electron Energy =                 615.9558832682337197
    Total Energy =                       -400.6310323758798404
  Basis Set: (AUG-CC-PVTZ AUX)
    Blend: AUG-CC-PVTZ-RI
    Molecular point group: c1

    Geometry (in Angstrom), charge = 0, multiplicity = 1:

       Center              X                  Y                   Z               Mass
    ------------   -----------------  -----------------  -----------------  -----------------
         N            0.656850723630     1.790114477408    -0.002326770497    14.003074004430
         C            0.202292723630    -0.412714522592    -0.002296770497    12.000000000000
         C           -0.379932276370     0.884898477408    -0.002325770497    12.000000000000
         C            1.626476723630    -0.248876522592    -0.002301770497    12.000000000000
         C            1.858149723630     1.109103477408    -0.002243770497    12.000000000000
         C           -0.645510276370    -1.536353522592    -0.002323770497    12.000000000000
         C           -1.765410276370     1.088593477408    -0.002332770497    12.000000000000
         C            2.650058723630    -1.339294522592    -0.002236770497    12.000000000000
         C           -2.019965276370    -1.339894522592    -0.002337770497    12.000000000000
         C           -2.574230276370    -0.041261522592    -0.002348770497    12.000000000000
         H            0.556358723630     2.796090477408    -0.002337770497     1.007825032230
         H            2.797540723630     1.649337477408    -0.002232770497     1.007825032230
         H           -0.231333276370    -2.543102522592    -0.002311770497     1.007825032230
         H           -2.195193276370     2.088535477408    -0.002351770497     1.007825032230
         H            2.552735723630    -1.980085522592     0.880873229503     1.007825032230
         H            2.552274723630    -1.980607522592    -0.884915770497     1.007825032230
         H            3.661413923630    -0.921697822592     0.297373229503     1.007825032230
         H           -2.685834276370    -2.199753522592    -0.002357770497     1.007825032230
         H           -3.655281276370     0.077358477408    -0.002367770497     1.007825032230

  Basis Set: AUG-CC-PVTZ
    Blend: AUG-CC-PVTZ
  Basis Set: (AUG-CC-PVTZ AUX)
    Blend: AUG-CC-PVTZ-JKFIT
	 Reference Energy          =    -400.6310323758798404 [Eh]
	 Singles Energy            =      -0.0000000000000000 [Eh]
	 Same-Spin Energy          =      -0.4520826282040638 [Eh]
	 Opposite-Spin Energy      =      -1.4048847396302186 [Eh]
	 Correlation Energy        =      -1.8569673678342824 [Eh]
	 Total Energy              =    -402.4879997437141128 [Eh]

	 ================> DF-SCS-MP2 Energies <==================
	-----------------------------------------------------------
	 SCS Same-Spin Scale       =       0.3333333333333333 [-]
	 SCS Opposite-Spin Scale   =       1.2000000000000000 [-]
	 SCS Same-Spin Energy      =      -0.1506942094013546 [Eh]
	 SCS Opposite-Spin Energy  =      -1.6858616875562624 [Eh]
	 SCS Correlation Energy    =      -1.8365558969576170 [Eh]
	 SCS Total Energy          =    -402.4675882728374745 [Eh]
	-----------------------------------------------------------

  Dipole Moment: [D]
     X:     0.9197      Y:     1.7873      Z:     0.1059     Total:     2.0129

*** Psi4 exiting successfully. Buy a developer a beer!
