                               Psi4 1.3.2 release

  ==> Input File <==

--------------------------------------------------------------------------
#psi4
#
memory 32 gb

molecule  {
0 1
  N        0.6331050     1.8115130    -0.0000210
  C        0.1785470    -0.3913160     0.0000090
  C       -0.4036780     0.9062970    -0.0000200
  C        1.6027310    -0.2274780     0.0000040
  C        1.8344040     1.1305020     0.0000620
  C       -0.6692560    -1.5149550    -0.0000180
  C       -1.7891560     1.1099920    -0.0000270
  C        2.6263130    -1.3178960     0.0000690
  C       -2.0437110    -1.3184960    -0.0000320
  C       -2.5979760    -0.0198630    -0.0000430
  H        0.5326130     2.8174890    -0.0000320
  H        2.7737950     1.6707360     0.0000730
  H       -0.2550790    -2.5217040    -0.0000060
  H       -2.2189390     2.1099340    -0.0000460
  H        2.5289900    -1.9586870     0.8831790
  H        2.5285290    -1.9592090    -0.8826100
  H        3.6376590    -0.9002700    -0.0003210
  H       -2.7095800    -2.1783550    -0.0000520
  H       -3.6790242     0.0987570    -0.1500620
units angstrom
no_reorient  #important for SAPT in psi4, default
symmetry c1  #important for SAPT in psi4, default
}

set PROPERTIES_ORIGIN ["COM"]
properties('MP2/aug-cc-pvtz', properties = ['dipole'])
--------------------------------------------------------------------------

    Molecular point group: c1
  Charge       = 0
  Multiplicity = 1
  Basis Set: AUG-CC-PVTZ
    Blend: AUG-CC-PVTZ
  Basis Set: (AUG-CC-PVTZ AUX)
    Blend: AUG-CC-PVTZ-JKFIT

    Orbital Energies [Eh]
    ---------------------

    Doubly Occupied:

       1A    -15.600037     2A    -11.265347     3A    -11.264728
       4A    -11.232111     5A    -11.230686     6A    -11.230239
       7A    -11.222860     8A    -11.221968     9A    -11.221439
      10A    -11.221202    11A     -1.291782    12A     -1.127046
      13A     -1.072222    14A     -0.997403    15A     -0.985555
      16A     -0.930961    17A     -0.838925    18A     -0.803459
      19A     -0.755944    20A     -0.719909    21A     -0.659374
      22A     -0.644164    23A     -0.603487    24A     -0.592830
      25A     -0.591979    26A     -0.569733    27A     -0.551512
      28A     -0.542232    29A     -0.528916    30A     -0.497741
      31A     -0.476187    32A     -0.462038    33A     -0.374529
      34A     -0.298732    35A     -0.277748

  @DF-RHF Final Energy:  -400.63876767917509

   => Energetics <=

    Nuclear Repulsion Energy =            483.2220355531462133
    One-Electron Energy =               -1499.9115578354269473
    Two-Electron Energy =                 616.0507546031055881
    Total Energy =                       -400.6387676791750891
  Basis Set: (AUG-CC-PVTZ AUX)
    Blend: AUG-CC-PVTZ-RI
    Molecular point group: c1

    Geometry (in Angstrom), charge = 0, multiplicity = 1:

       Center              X                  Y                   Z               Mass
    ------------   -----------------  -----------------  -----------------  -----------------
         N            0.656850772839     1.790114252120     0.001133282580    14.003074004430
         C            0.202292772839    -0.412714747880     0.001163282580    12.000000000000
         C           -0.379932227161     0.884898252120     0.001134282580    12.000000000000
         C            1.626476772839    -0.248876747880     0.001158282580    12.000000000000
         C            1.858149772839     1.109103252120     0.001216282580    12.000000000000
         C           -0.645510227161    -1.536353747880     0.001136282580    12.000000000000
         C           -1.765410227161     1.088593252120     0.001127282580    12.000000000000
         C            2.650058772839    -1.339294747880     0.001223282580    12.000000000000
         C           -2.019965227161    -1.339894747880     0.001122282580    12.000000000000
         C           -2.574230227161    -0.041261747880     0.001111282580    12.000000000000
         H            0.556358772839     2.796090252120     0.001122282580     1.007825032230
         H            2.797540772839     1.649337252120     0.001227282580     1.007825032230
         H           -0.231333227161    -2.543102747880     0.001148282580     1.007825032230
         H           -2.195193227161     2.088535252120     0.001108282580     1.007825032230
         H            2.552735772839    -1.980085747880     0.884333282580     1.007825032230
         H            2.552274772839    -1.980607747880    -0.881455717420     1.007825032230
         H            3.661404772839    -0.921668747880     0.000833282580     1.007825032230
         H           -2.685834227161    -2.199753747880     0.001102282580     1.007825032230
         H           -3.655278427161     0.077358252120    -0.148907717420     1.007825032230

  Basis Set: AUG-CC-PVTZ
    Blend: AUG-CC-PVTZ
  Basis Set: (AUG-CC-PVTZ AUX)
    Blend: AUG-CC-PVTZ-JKFIT
	 Reference Energy          =    -400.6387676791750891 [Eh]
	 Singles Energy            =      -0.0000000000000000 [Eh]
	 Same-Spin Energy          =      -0.4517795916785201 [Eh]
	 Opposite-Spin Energy      =      -1.4042907000732598 [Eh]
	 Correlation Energy        =      -1.8560702917517800 [Eh]
	 Total Energy              =    -402.4948379709268806 [Eh]

	 ================> DF-SCS-MP2 Energies <==================
	-----------------------------------------------------------
	 SCS Same-Spin Scale       =       0.3333333333333333 [-]
	 SCS Opposite-Spin Scale   =       1.2000000000000000 [-]
	 SCS Same-Spin Energy      =      -0.1505931972261733 [Eh]
	 SCS Opposite-Spin Energy  =      -1.6851488400879118 [Eh]
	 SCS Correlation Energy    =      -1.8357420373140851 [Eh]
	 SCS Total Energy          =    -402.4745097164891945 [Eh]
	-----------------------------------------------------------

  Dipole Moment: [D]
     X:     0.9825      Y:     1.8035      Z:    -0.0980     Total:     2.0561

*** Psi4 exiting successfully. Buy a developer a beer!
