                               Psi4 1.3.2 release

  ==> Input File <==

--------------------------------------------------------------------------
#psi4
#
memory 32 gb

molecule  {
0 1
  N        0.6331050     1.8115130    -0.0000210
  C        0.1785470    -0.3913160     0.0000090
  C       -0.4036780     0.9062970    -0.0000200
  C        1.6027310    -0.2274780     0.0000040
  C        1.8344040     1.1305020     0.0000620
  C       -0.6692560    -1.5149550    -0.0000180
  C       -1.7891540     1.1099875    -0.3000270
  C        2.6263130    -1.3178960     0.0000690
  C       -2.0437110    -1.3184960    -0.0000320
  C       -2.5979760    -0.0198630    -0.0000430
  H        0.5326130     2.8174890    -0.0000320
  H        2.7737950     1.6707360     0.0000730
  H       -0.2550790    -2.5217040    -0.0000060
  H       -2.2189390     2.1099340    -0.0000460
  H        2.5289900    -1.9586870     0.8831790
  H        2.5285290    -1.9592090    -0.8826100
  H        3.6376590    -0.9002700    -0.0003210
  H       -2.7095800    -2.1783550    -0.0000520
  H       -3.6790270     0.0987570    -0.0000620
units angstrom
no_reorient  #important for SAPT in psi4, default
symmetry c1  #important for SAPT in psi4, default
}

set PROPERTIES_ORIGIN ["COM"]
properties('MP2/aug-cc-pvtz', properties = ['dipole'])
--------------------------------------------------------------------------

    Molecular point group: c1
  Charge       = 0
  Multiplicity = 1
  Basis Set: AUG-CC-PVTZ
    Blend: AUG-CC-PVTZ
  Basis Set: (AUG-CC-PVTZ AUX)
    Blend: AUG-CC-PVTZ-JKFIT

    Orbital Energies [Eh]
    ---------------------

    Doubly Occupied:

       1A    -15.600507     2A    -11.270778     3A    -11.264497
       4A    -11.238401     5A    -11.237310     6A    -11.236367
       7A    -11.223662     8A    -11.222368     9A    -11.222088
      10A    -11.221591    11A     -1.292140    12A     -1.125487
      13A     -1.071010    14A     -0.994244    15A     -0.985618
      16A     -0.931117    17A     -0.838534    18A     -0.801220
      19A     -0.754242    20A     -0.717261    21A     -0.660473
      22A     -0.640904    23A     -0.601445    24A     -0.592079
      25A     -0.583356    26A     -0.567458    27A     -0.550703
      28A     -0.542946    29A     -0.528425    30A     -0.497465
      31A     -0.472608    32A     -0.458609    33A     -0.374253
      34A     -0.299226    35A     -0.278114

  @DF-RHF Final Energy:  -400.61361513058910

   => Energetics <=

    Nuclear Repulsion Energy =            482.2608976109075911
    One-Electron Energy =               -1497.9560116312779883
    Two-Electron Energy =                 615.0814988897813009
    Total Energy =                       -400.6136151305890962
  Basis Set: (AUG-CC-PVTZ AUX)
    Blend: AUG-CC-PVTZ-RI
    Molecular point group: c1

    Geometry (in Angstrom), charge = 0, multiplicity = 1:

       Center              X                  Y                   Z               Mass
    ------------   -----------------  -----------------  -----------------  -----------------
         N            0.656850611265     1.790114664103     0.027445437697    14.003074004430
         C            0.202292611265    -0.412714335897     0.027475437697    12.000000000000
         C           -0.379932388735     0.884898664103     0.027446437697    12.000000000000
         C            1.626476611265    -0.248876335897     0.027470437697    12.000000000000
         C            1.858149611265     1.109103664103     0.027528437697    12.000000000000
         C           -0.645510388735    -1.536353335897     0.027448437697    12.000000000000
         C           -1.765408388735     1.088589164103    -0.272560562303    12.000000000000
         C            2.650058611265    -1.339294335897     0.027535437697    12.000000000000
         C           -2.019965388735    -1.339894335897     0.027434437697    12.000000000000
         C           -2.574230388735    -0.041261335897     0.027423437697    12.000000000000
         H            0.556358611265     2.796090664103     0.027434437697     1.007825032230
         H            2.797540611265     1.649337664103     0.027539437697     1.007825032230
         H           -0.231333388735    -2.543102335897     0.027460437697     1.007825032230
         H           -2.195193388735     2.088535664103     0.027420437697     1.007825032230
         H            2.552735611265    -1.980085335897     0.910645437697     1.007825032230
         H            2.552274611265    -1.980607335897    -0.855143562303     1.007825032230
         H            3.661404611265    -0.921668335897     0.027145437697     1.007825032230
         H           -2.685834388735    -2.199753335897     0.027414437697     1.007825032230
         H           -3.655281388735     0.077358664103     0.027404437697     1.007825032230

  Basis Set: AUG-CC-PVTZ
    Blend: AUG-CC-PVTZ
  Basis Set: (AUG-CC-PVTZ AUX)
    Blend: AUG-CC-PVTZ-JKFIT
	 Reference Energy          =    -400.6136151305890962 [Eh]
	 Singles Energy            =      -0.0000000000000000 [Eh]
	 Same-Spin Energy          =      -0.4528509789530244 [Eh]
	 Opposite-Spin Energy      =      -1.4077072094027345 [Eh]
	 Correlation Energy        =      -1.8605581883557589 [Eh]
	 Total Energy              =    -402.4741733189448496 [Eh]

	 ================> DF-SCS-MP2 Energies <==================
	-----------------------------------------------------------
	 SCS Same-Spin Scale       =       0.3333333333333333 [-]
	 SCS Opposite-Spin Scale   =       1.2000000000000000 [-]
	 SCS Same-Spin Energy      =      -0.1509503263176748 [Eh]
	 SCS Opposite-Spin Energy  =      -1.6892486512832814 [Eh]
	 SCS Correlation Energy    =      -1.8401989776009562 [Eh]
	 SCS Total Energy          =    -402.4538141081900449 [Eh]
	-----------------------------------------------------------

  Dipole Moment: [D]
     X:     1.0830      Y:     1.5954      Z:     0.2114     Total:     1.9398

*** Psi4 exiting successfully. Buy a developer a beer!
