                               Psi4 1.3.2 release

  ==> Input File <==

--------------------------------------------------------------------------
#psi4
#
memory 32 gb

molecule  {
0 1
  N        0.6331050     1.8115130    -0.0000210
  C        0.1785470    -0.3913160     0.0000090
  C       -0.4036780     0.9062970    -0.0000200
  C        1.6027310    -0.2274780     0.0000040
  C        1.8344040     1.1305020     0.0000620
  C       -0.6692560    -1.5149550    -0.0000180
  C       -1.7891560     1.1099920    -0.0000270
  C        2.6263130    -1.3178960     0.0000690
  C       -2.0437110    -1.3184960    -0.0000320
  C       -2.5979760    -0.0198630    -0.0000430
  H        0.5326130     2.8174890    -0.0000320
  H        2.7737950     1.6707360     0.0000730
  H       -0.2550841    -2.5217051     0.2999940
  H       -2.2189390     2.1099340    -0.0000460
  H        2.5289900    -1.9586870     0.8831790
  H        2.5285290    -1.9592090    -0.8826100
  H        3.6376590    -0.9002700    -0.0003210
  H       -2.7095800    -2.1783550    -0.0000520
  H       -3.6790270     0.0987570    -0.0000620
units angstrom
no_reorient  #important for SAPT in psi4, default
symmetry c1  #important for SAPT in psi4, default
}

set PROPERTIES_ORIGIN ["COM"]
properties('MP2/aug-cc-pvtz', properties = ['dipole'])
--------------------------------------------------------------------------

    Molecular point group: c1
  Charge       = 0
  Multiplicity = 1
  Basis Set: AUG-CC-PVTZ
    Blend: AUG-CC-PVTZ
  Basis Set: (AUG-CC-PVTZ AUX)
    Blend: AUG-CC-PVTZ-JKFIT

    Orbital Energies [Eh]
    ---------------------

    Doubly Occupied:

       1A    -15.600222     2A    -11.265551     3A    -11.264900
       4A    -11.234021     5A    -11.232754     6A    -11.229803
       7A    -11.223024     8A    -11.222080     9A    -11.221962
      10A    -11.221193    11A     -1.291960    12A     -1.127213
      13A     -1.072266    14A     -0.996725    15A     -0.985973
      16A     -0.930696    17A     -0.838027    18A     -0.804265
      19A     -0.755142    20A     -0.717663    21A     -0.659140
      22A     -0.644887    23A     -0.602473    24A     -0.593412
      25A     -0.587669    26A     -0.569520    27A     -0.551282
      28A     -0.542020    29A     -0.529538    30A     -0.497659
      31A     -0.477838    32A     -0.458571    33A     -0.374059
      34A     -0.298963    35A     -0.277837

  @DF-RHF Final Energy:  -400.63402004368373

   => Energetics <=

    Nuclear Repulsion Energy =            483.1009808663300191
    One-Electron Energy =               -1499.6693918416629003
    Two-Electron Energy =                 615.9343909316492045
    Total Energy =                       -400.6340200436836767
  Basis Set: (AUG-CC-PVTZ AUX)
    Blend: AUG-CC-PVTZ-RI
    Molecular point group: c1

    Geometry (in Angstrom), charge = 0, multiplicity = 1:

       Center              X                  Y                   Z               Mass
    ------------   -----------------  -----------------  -----------------  -----------------
         N            0.656850833583     1.790114260578    -0.002326770497    14.003074004430
         C            0.202292833583    -0.412714739422    -0.002296770497    12.000000000000
         C           -0.379932166417     0.884898260578    -0.002325770497    12.000000000000
         C            1.626476833583    -0.248876739422    -0.002301770497    12.000000000000
         C            1.858149833583     1.109103260578    -0.002243770497    12.000000000000
         C           -0.645510166417    -1.536353739422    -0.002323770497    12.000000000000
         C           -1.765410166417     1.088593260578    -0.002332770497    12.000000000000
         C            2.650058833583    -1.339294739422    -0.002236770497    12.000000000000
         C           -2.019965166417    -1.339894739422    -0.002337770497    12.000000000000
         C           -2.574230166417    -0.041261739422    -0.002348770497    12.000000000000
         H            0.556358833583     2.796090260578    -0.002337770497     1.007825032230
         H            2.797540833583     1.649337260578    -0.002232770497     1.007825032230
         H           -0.231338266417    -2.543103839422     0.297688229503     1.007825032230
         H           -2.195193166417     2.088535260578    -0.002351770497     1.007825032230
         H            2.552735833583    -1.980085739422     0.880873229503     1.007825032230
         H            2.552274833583    -1.980607739422    -0.884915770497     1.007825032230
         H            3.661404833583    -0.921668739422    -0.002626770497     1.007825032230
         H           -2.685834166417    -2.199753739422    -0.002357770497     1.007825032230
         H           -3.655281166417     0.077358260578    -0.002367770497     1.007825032230

  Basis Set: AUG-CC-PVTZ
    Blend: AUG-CC-PVTZ
  Basis Set: (AUG-CC-PVTZ AUX)
    Blend: AUG-CC-PVTZ-JKFIT
	 Reference Energy          =    -400.6340200436837335 [Eh]
	 Singles Energy            =      -0.0000000000000000 [Eh]
	 Same-Spin Energy          =      -0.4520696207998453 [Eh]
	 Opposite-Spin Energy      =      -1.4049274794185465 [Eh]
	 Correlation Energy        =      -1.8569971002183918 [Eh]
	 Total Energy              =    -402.4910171439021269 [Eh]

	 ================> DF-SCS-MP2 Energies <==================
	-----------------------------------------------------------
	 SCS Same-Spin Scale       =       0.3333333333333333 [-]
	 SCS Opposite-Spin Scale   =       1.2000000000000000 [-]
	 SCS Same-Spin Energy      =      -0.1506898735999484 [Eh]
	 SCS Opposite-Spin Energy  =      -1.6859129753022557 [Eh]
	 SCS Correlation Energy    =      -1.8366028489022042 [Eh]
	 SCS Total Energy          =    -402.4706228925859364 [Eh]
	-----------------------------------------------------------

  Dipole Moment: [D]
     X:     0.9292      Y:     1.8765      Z:     0.1801     Total:     2.1017

*** Psi4 exiting successfully. Buy a developer a beer!
