                               Psi4 1.3.2 release

  ==> Input File <==

--------------------------------------------------------------------------
#psi4
#
memory 32 gb

molecule  {
0 1
  N        0.6331050     1.8115130    -0.0000210
  C        0.1785470    -0.3913160     0.0000090
  C       -0.4036780     0.9062970    -0.0000200
  C        1.6027310    -0.2274780     0.0000040
  C        1.8344040     1.1305020     0.0000620
  C       -0.6692528    -1.5149556    -0.3000180
  C       -1.7891560     1.1099920    -0.0000270
  C        2.6263130    -1.3178960     0.0000690
  C       -2.0437110    -1.3184960    -0.0000320
  C       -2.5979760    -0.0198630    -0.0000430
  H        0.5326130     2.8174890    -0.0000320
  H        2.7737950     1.6707360     0.0000730
  H       -0.2550790    -2.5217040    -0.0000060
  H       -2.2189390     2.1099340    -0.0000460
  H        2.5289900    -1.9586870     0.8831790
  H        2.5285290    -1.9592090    -0.8826100
  H        3.6376590    -0.9002700    -0.0003210
  H       -2.7095800    -2.1783550    -0.0000520
  H       -3.6790270     0.0987570    -0.0000620
units angstrom
no_reorient  #important for SAPT in psi4, default
symmetry c1  #important for SAPT in psi4, default
}

set PROPERTIES_ORIGIN ["COM"]
properties('MP2/aug-cc-pvtz', properties = ['dipole'])
--------------------------------------------------------------------------

    Molecular point group: c1
  Charge       = 0
  Multiplicity = 1
  Basis Set: AUG-CC-PVTZ
    Blend: AUG-CC-PVTZ
  Basis Set: (AUG-CC-PVTZ AUX)
    Blend: AUG-CC-PVTZ-JKFIT

    Orbital Energies [Eh]
    ---------------------

    Doubly Occupied:

       1A    -15.600903     2A    -11.266728     3A    -11.265009
       4A    -11.236834     5A    -11.236561     6A    -11.229823
       7A    -11.228707     8A    -11.227327     9A    -11.221928
      10A    -11.220822    11A     -1.292577    12A     -1.124004
      13A     -1.072304    14A     -0.993633    15A     -0.985085
      16A     -0.930575    17A     -0.838031    18A     -0.800565
      19A     -0.754303    20A     -0.717901    21A     -0.659384
      22A     -0.643374    23A     -0.600762    24A     -0.594500
      25A     -0.581627    26A     -0.567175    27A     -0.551098
      28A     -0.541679    29A     -0.527774    30A     -0.492869
      31A     -0.475273    32A     -0.456054    33A     -0.373295
      34A     -0.296927    35A     -0.279264

  @DF-RHF Final Energy:  -400.61176750550072

   => Energetics <=

    Nuclear Repulsion Energy =            482.2540600785051197
    One-Electron Energy =               -1497.9623068883470296
    Two-Electron Energy =                 615.0964793043413010
    Total Energy =                       -400.6117675055006657
  Basis Set: (AUG-CC-PVTZ AUX)
    Blend: AUG-CC-PVTZ-RI
    Molecular point group: c1

    Geometry (in Angstrom), charge = 0, multiplicity = 1:

       Center              X                  Y                   Z               Mass
    ------------   -----------------  -----------------  -----------------  -----------------
         N            0.656850501403     1.790114307051     0.027445437697    14.003074004430
         C            0.202292501403    -0.412714692949     0.027475437697    12.000000000000
         C           -0.379932498597     0.884898307051     0.027446437697    12.000000000000
         C            1.626476501403    -0.248876692949     0.027470437697    12.000000000000
         C            1.858149501403     1.109103307051     0.027528437697    12.000000000000
         C           -0.645507298597    -1.536354292949    -0.272551562303    12.000000000000
         C           -1.765410498597     1.088593307051     0.027439437697    12.000000000000
         C            2.650058501403    -1.339294692949     0.027535437697    12.000000000000
         C           -2.019965498597    -1.339894692949     0.027434437697    12.000000000000
         C           -2.574230498597    -0.041261692949     0.027423437697    12.000000000000
         H            0.556358501403     2.796090307051     0.027434437697     1.007825032230
         H            2.797540501403     1.649337307051     0.027539437697     1.007825032230
         H           -0.231333498597    -2.543102692949     0.027460437697     1.007825032230
         H           -2.195193498597     2.088535307051     0.027420437697     1.007825032230
         H            2.552735501403    -1.980085692949     0.910645437697     1.007825032230
         H            2.552274501403    -1.980607692949    -0.855143562303     1.007825032230
         H            3.661404501403    -0.921668692949     0.027145437697     1.007825032230
         H           -2.685834498597    -2.199753692949     0.027414437697     1.007825032230
         H           -3.655281498597     0.077358307051     0.027404437697     1.007825032230

  Basis Set: AUG-CC-PVTZ
    Blend: AUG-CC-PVTZ
  Basis Set: (AUG-CC-PVTZ AUX)
    Blend: AUG-CC-PVTZ-JKFIT
	 Reference Energy          =    -400.6117675055007226 [Eh]
	 Singles Energy            =      -0.0000000000000000 [Eh]
	 Same-Spin Energy          =      -0.4533117280533103 [Eh]
	 Opposite-Spin Energy      =      -1.4083399955292246 [Eh]
	 Correlation Energy        =      -1.8616517235825349 [Eh]
	 Total Energy              =    -402.4734192290832766 [Eh]

	 ================> DF-SCS-MP2 Energies <==================
	-----------------------------------------------------------
	 SCS Same-Spin Scale       =       0.3333333333333333 [-]
	 SCS Opposite-Spin Scale   =       1.2000000000000000 [-]
	 SCS Same-Spin Energy      =      -0.1511039093511034 [Eh]
	 SCS Opposite-Spin Energy  =      -1.6900079946350695 [Eh]
	 SCS Correlation Energy    =      -1.8411119039861730 [Eh]
	 SCS Total Energy          =    -402.4528794094869113 [Eh]
	-----------------------------------------------------------

  Dipole Moment: [D]
     X:     0.8786      Y:     2.0137      Z:     0.2123     Total:     2.2073

*** Psi4 exiting successfully. Buy a developer a beer!
