                               Psi4 1.3.2 release

  ==> Input File <==

--------------------------------------------------------------------------
#psi4
#
memory 32 gb

molecule  {
0 1
  N        0.6331050     1.8115130    -0.0000210
  C        0.1785470    -0.3913160     0.0000090
  C       -0.4036780     0.9062970    -0.0000200
  C        1.6027310    -0.2274780     0.0000040
  C        1.8344040     1.1305020     0.0000620
  C       -0.6692555    -1.5149551    -0.0500180
  C       -1.7891560     1.1099920    -0.0000270
  C        2.6263130    -1.3178960     0.0000690
  C       -2.0437110    -1.3184960    -0.0000320
  C       -2.5979760    -0.0198630    -0.0000430
  H        0.5326130     2.8174890    -0.0000320
  H        2.7737950     1.6707360     0.0000730
  H       -0.2550790    -2.5217040    -0.0000060
  H       -2.2189390     2.1099340    -0.0000460
  H        2.5289900    -1.9586870     0.8831790
  H        2.5285290    -1.9592090    -0.8826100
  H        3.6376590    -0.9002700    -0.0003210
  H       -2.7095800    -2.1783550    -0.0000520
  H       -3.6790270     0.0987570    -0.0000620
units angstrom
no_reorient  #important for SAPT in psi4, default
symmetry c1  #important for SAPT in psi4, default
}

set PROPERTIES_ORIGIN ["COM"]
properties('MP2/aug-cc-pvtz', properties = ['dipole'])
--------------------------------------------------------------------------

    Molecular point group: c1
  Charge       = 0
  Multiplicity = 1
  Basis Set: AUG-CC-PVTZ
    Blend: AUG-CC-PVTZ
  Basis Set: (AUG-CC-PVTZ AUX)
    Blend: AUG-CC-PVTZ-JKFIT

    Orbital Energies [Eh]
    ---------------------

    Doubly Occupied:

       1A    -15.599951     2A    -11.265258     3A    -11.264607
       4A    -11.231968     5A    -11.230819     6A    -11.229436
       7A    -11.222768     8A    -11.221888     9A    -11.221338
      10A    -11.221282    11A     -1.291684    12A     -1.126915
      13A     -1.072148    14A     -0.997207    15A     -0.985718
      16A     -0.930908    17A     -0.838956    18A     -0.803840
      19A     -0.755769    20A     -0.719978    21A     -0.659913
      22A     -0.644561    23A     -0.603418    24A     -0.593214
      25A     -0.591203    26A     -0.569617    27A     -0.551351
      28A     -0.542304    29A     -0.529640    30A     -0.497529
      31A     -0.475791    32A     -0.462854    33A     -0.374503
      34A     -0.298615    35A     -0.277737

  @DF-RHF Final Energy:  -400.63941392729578

   => Energetics <=

    Nuclear Repulsion Energy =            483.2321637052421011
    One-Electron Energy =               -1499.9337731760490442
    Two-Electron Energy =                 616.0621955435111659
    Total Energy =                       -400.6394139272957773
  Basis Set: (AUG-CC-PVTZ AUX)
    Blend: AUG-CC-PVTZ-RI
    Molecular point group: c1

    Geometry (in Angstrom), charge = 0, multiplicity = 1:

       Center              X                  Y                   Z               Mass
    ------------   -----------------  -----------------  -----------------  -----------------
         N            0.656850748593     1.790114261275     0.004557515911    14.003074004430
         C            0.202292748593    -0.412714738725     0.004587515911    12.000000000000
         C           -0.379932251407     0.884898261275     0.004558515911    12.000000000000
         C            1.626476748593    -0.248876738725     0.004582515911    12.000000000000
         C            1.858149748593     1.109103261275     0.004640515911    12.000000000000
         C           -0.645509751407    -1.536353838725    -0.045439484089    12.000000000000
         C           -1.765410251407     1.088593261275     0.004551515911    12.000000000000
         C            2.650058748593    -1.339294738725     0.004647515911    12.000000000000
         C           -2.019965251407    -1.339894738725     0.004546515911    12.000000000000
         C           -2.574230251407    -0.041261738725     0.004535515911    12.000000000000
         H            0.556358748593     2.796090261275     0.004546515911     1.007825032230
         H            2.797540748593     1.649337261275     0.004651515911     1.007825032230
         H           -0.231333251407    -2.543102738725     0.004572515911     1.007825032230
         H           -2.195193251407     2.088535261275     0.004532515911     1.007825032230
         H            2.552735748593    -1.980085738725     0.887757515911     1.007825032230
         H            2.552274748593    -1.980607738725    -0.878031484089     1.007825032230
         H            3.661404748593    -0.921668738725     0.004257515911     1.007825032230
         H           -2.685834251407    -2.199753738725     0.004526515911     1.007825032230
         H           -3.655281251407     0.077358261275     0.004516515911     1.007825032230

  Basis Set: AUG-CC-PVTZ
    Blend: AUG-CC-PVTZ
  Basis Set: (AUG-CC-PVTZ AUX)
    Blend: AUG-CC-PVTZ-JKFIT
	 Reference Energy          =    -400.6394139272957773 [Eh]
	 Singles Energy            =      -0.0000000000000000 [Eh]
	 Same-Spin Energy          =      -0.4517406009194694 [Eh]
	 Opposite-Spin Energy      =      -1.4041716711174095 [Eh]
	 Correlation Energy        =      -1.8559122720368788 [Eh]
	 Total Energy              =    -402.4953261993326805 [Eh]

	 ================> DF-SCS-MP2 Energies <==================
	-----------------------------------------------------------
	 SCS Same-Spin Scale       =       0.3333333333333333 [-]
	 SCS Opposite-Spin Scale   =       1.2000000000000000 [-]
	 SCS Same-Spin Energy      =      -0.1505802003064898 [Eh]
	 SCS Opposite-Spin Energy  =      -1.6850060053408913 [Eh]
	 SCS Correlation Energy    =      -1.8355862056473811 [Eh]
	 SCS Total Energy          =    -402.4750001329431370 [Eh]
	-----------------------------------------------------------

  Dipole Moment: [D]
     X:     0.9549      Y:     1.8111      Z:     0.0329     Total:     2.0477

*** Psi4 exiting successfully. Buy a developer a beer!
