                               Psi4 1.3.2 release

  ==> Input File <==

--------------------------------------------------------------------------
#psi4
#
memory 32 gb

molecule  {
0 1
  N        0.6331050     1.8115130    -0.0000210
  C        0.1785470    -0.3913160     0.0000090
  C       -0.4036780     0.9062970    -0.0000200
  C        1.6027310    -0.2274780     0.0000040
  C        1.8344040     1.1305020     0.0000620
  C       -0.6692544    -1.5149553    -0.1500180
  C       -1.7891560     1.1099920    -0.0000270
  C        2.6263130    -1.3178960     0.0000690
  C       -2.0437110    -1.3184960    -0.0000320
  C       -2.5979760    -0.0198630    -0.0000430
  H        0.5326130     2.8174890    -0.0000320
  H        2.7737950     1.6707360     0.0000730
  H       -0.2550790    -2.5217040    -0.0000060
  H       -2.2189390     2.1099340    -0.0000460
  H        2.5289900    -1.9586870     0.8831790
  H        2.5285290    -1.9592090    -0.8826100
  H        3.6376590    -0.9002700    -0.0003210
  H       -2.7095800    -2.1783550    -0.0000520
  H       -3.6790270     0.0987570    -0.0000620
units angstrom
no_reorient  #important for SAPT in psi4, default
symmetry c1  #important for SAPT in psi4, default
}

set PROPERTIES_ORIGIN ["COM"]
properties('MP2/aug-cc-pvtz', properties = ['dipole'])
--------------------------------------------------------------------------

    Molecular point group: c1
  Charge       = 0
  Multiplicity = 1
  Basis Set: AUG-CC-PVTZ
    Blend: AUG-CC-PVTZ
  Basis Set: (AUG-CC-PVTZ AUX)
    Blend: AUG-CC-PVTZ-JKFIT

    Orbital Energies [Eh]
    ---------------------

    Doubly Occupied:

       1A    -15.600147     2A    -11.265179     3A    -11.265075
       4A    -11.233028     5A    -11.232220     6A    -11.229400
       7A    -11.223610     8A    -11.223166     9A    -11.222112
      10A    -11.221235    11A     -1.291871    12A     -1.126192
      13A     -1.072173    14A     -0.996366    15A     -0.985583
      16A     -0.930828    17A     -0.838732    18A     -0.803009
      19A     -0.755343    20A     -0.719408    21A     -0.659666
      22A     -0.644267    23A     -0.602647    24A     -0.594158
      25A     -0.588303    26A     -0.569031    27A     -0.551279
      28A     -0.542172    29A     -0.529279    30A     -0.496544
      31A     -0.475837    32A     -0.461207    33A     -0.374201
      34A     -0.298180    35A     -0.278064

  @DF-RHF Final Energy:  -400.63316706027729

   => Energetics <=

    Nuclear Repulsion Energy =            483.0037191824289948
    One-Electron Energy =               -1499.4747470642416829
    Two-Electron Energy =                 615.8378608215354006
    Total Energy =                       -400.6331670602772874
  Basis Set: (AUG-CC-PVTZ AUX)
    Blend: AUG-CC-PVTZ-RI
    Molecular point group: c1

    Geometry (in Angstrom), charge = 0, multiplicity = 1:

       Center              X                  Y                   Z               Mass
    ------------   -----------------  -----------------  -----------------  -----------------
         N            0.656850647886     1.790114279586     0.013712684626    14.003074004430
         C            0.202292647886    -0.412714720414     0.013742684626    12.000000000000
         C           -0.379932352114     0.884898279586     0.013713684626    12.000000000000
         C            1.626476647886    -0.248876720414     0.013737684626    12.000000000000
         C            1.858149647886     1.109103279586     0.013795684626    12.000000000000
         C           -0.645508752114    -1.536354020414    -0.136284315374    12.000000000000
         C           -1.765410352114     1.088593279586     0.013706684626    12.000000000000
         C            2.650058647886    -1.339294720414     0.013802684626    12.000000000000
         C           -2.019965352114    -1.339894720414     0.013701684626    12.000000000000
         C           -2.574230352114    -0.041261720414     0.013690684626    12.000000000000
         H            0.556358647886     2.796090279586     0.013701684626     1.007825032230
         H            2.797540647886     1.649337279586     0.013806684626     1.007825032230
         H           -0.231333352114    -2.543102720414     0.013727684626     1.007825032230
         H           -2.195193352114     2.088535279586     0.013687684626     1.007825032230
         H            2.552735647886    -1.980085720414     0.896912684626     1.007825032230
         H            2.552274647886    -1.980607720414    -0.868876315374     1.007825032230
         H            3.661404647886    -0.921668720414     0.013412684626     1.007825032230
         H           -2.685834352114    -2.199753720414     0.013681684626     1.007825032230
         H           -3.655281352114     0.077358279586     0.013671684626     1.007825032230

  Basis Set: AUG-CC-PVTZ
    Blend: AUG-CC-PVTZ
  Basis Set: (AUG-CC-PVTZ AUX)
    Blend: AUG-CC-PVTZ-JKFIT
	 Reference Energy          =    -400.6331670602772874 [Eh]
	 Singles Energy            =      -0.0000000000000000 [Eh]
	 Same-Spin Energy          =      -0.4521157821630575 [Eh]
	 Opposite-Spin Energy      =      -1.4050363418467615 [Eh]
	 Correlation Energy        =      -1.8571521240098190 [Eh]
	 Total Energy              =    -402.4903191842871024 [Eh]

	 ================> DF-SCS-MP2 Energies <==================
	-----------------------------------------------------------
	 SCS Same-Spin Scale       =       0.3333333333333333 [-]
	 SCS Opposite-Spin Scale   =       1.2000000000000000 [-]
	 SCS Same-Spin Energy      =      -0.1507052607210192 [Eh]
	 SCS Opposite-Spin Energy  =      -1.6860436102161138 [Eh]
	 SCS Correlation Energy    =      -1.8367488709371329 [Eh]
	 SCS Total Energy          =    -402.4699159312144161 [Eh]
	-----------------------------------------------------------

  Dipole Moment: [D]
     X:     0.9364      Y:     1.8583      Z:     0.1007     Total:     2.0833

*** Psi4 exiting successfully. Buy a developer a beer!
