                               Psi4 1.3.2 release

  ==> Input File <==

--------------------------------------------------------------------------
#psi4
#
memory 32 gb

molecule  {
0 1
  N        0.6331050     1.8115130    -0.0000210
  C        0.1785470    -0.3913160     0.0000090
  C       -0.4036780     0.9062970    -0.0000200
  C        1.6027310    -0.2274780     0.0000040
  C        1.8344040     1.1305020     0.0000620
  C       -0.6692560    -1.5149550    -0.0000180
  C       -1.7891560     1.1099920    -0.0000270
  C        2.6263130    -1.3178960     0.0000690
  C       -2.0437110    -1.3184960    -0.0000320
  C       -2.5979760    -0.0198630    -0.0000430
  H        0.5326130     2.8174890    -0.0000320
  H        2.7737839     1.6707338     0.2500730
  H       -0.2550790    -2.5217040    -0.0000060
  H       -2.2189390     2.1099340    -0.0000460
  H        2.5289900    -1.9586870     0.8831790
  H        2.5285290    -1.9592090    -0.8826100
  H        3.6376590    -0.9002700    -0.0003210
  H       -2.7095800    -2.1783550    -0.0000520
  H       -3.6790270     0.0987570    -0.0000620
units angstrom
no_reorient  #important for SAPT in psi4, default
symmetry c1  #important for SAPT in psi4, default
}

set PROPERTIES_ORIGIN ["COM"]
properties('MP2/aug-cc-pvtz', properties = ['dipole'])
--------------------------------------------------------------------------

    Molecular point group: c1
  Charge       = 0
  Multiplicity = 1
  Basis Set: AUG-CC-PVTZ
    Blend: AUG-CC-PVTZ
  Basis Set: (AUG-CC-PVTZ AUX)
    Blend: AUG-CC-PVTZ-JKFIT

    Orbital Energies [Eh]
    ---------------------

    Doubly Occupied:

       1A    -15.599619     2A    -11.266299     3A    -11.265819
       4A    -11.232115     5A    -11.231205     6A    -11.230017
       7A    -11.223551     8A    -11.222245     9A    -11.221717
      10A    -11.221391    11A     -1.291599    12A     -1.127346
      13A     -1.072456    14A     -0.997644    15A     -0.985503
      16A     -0.930743    17A     -0.837601    18A     -0.803723
      19A     -0.755154    20A     -0.719433    21A     -0.659020
      22A     -0.642642    23A     -0.603847    24A     -0.593116
      25A     -0.593079    26A     -0.565628    27A     -0.551124
      28A     -0.542521    29A     -0.529323    30A     -0.497759
      31A     -0.476193    32A     -0.462825    33A     -0.374795
      34A     -0.298869    35A     -0.278081

  @DF-RHF Final Energy:  -400.63646487926763

   => Energetics <=

    Nuclear Repulsion Energy =            483.1504674107670212
    One-Electron Energy =               -1499.7658570831858924
    Two-Electron Energy =                 615.9789247931512364
    Total Energy =                       -400.6364648792675780
  Basis Set: (AUG-CC-PVTZ AUX)
    Blend: AUG-CC-PVTZ-RI
    Molecular point group: c1

    Geometry (in Angstrom), charge = 0, multiplicity = 1:

       Center              X                  Y                   Z               Mass
    ------------   -----------------  -----------------  -----------------  -----------------
         N            0.656850879717     1.790114269036    -0.001942320155    14.003074004430
         C            0.202292879717    -0.412714730964    -0.001912320155    12.000000000000
         C           -0.379932120283     0.884898269036    -0.001941320155    12.000000000000
         C            1.626476879717    -0.248876730964    -0.001917320155    12.000000000000
         C            1.858149879717     1.109103269036    -0.001859320155    12.000000000000
         C           -0.645510120283    -1.536353730964    -0.001939320155    12.000000000000
         C           -1.765410120283     1.088593269036    -0.001948320155    12.000000000000
         C            2.650058879717    -1.339294730964    -0.001852320155    12.000000000000
         C           -2.019965120283    -1.339894730964    -0.001953320155    12.000000000000
         C           -2.574230120283    -0.041261730964    -0.001964320155    12.000000000000
         H            0.556358879717     2.796090269036    -0.001953320155     1.007825032230
         H            2.797529779717     1.649335069036     0.248151679845     1.007825032230
         H           -0.231333120283    -2.543102730964    -0.001927320155     1.007825032230
         H           -2.195193120283     2.088535269036    -0.001967320155     1.007825032230
         H            2.552735879717    -1.980085730964     0.881257679845     1.007825032230
         H            2.552274879717    -1.980607730964    -0.884531320155     1.007825032230
         H            3.661404879717    -0.921668730964    -0.002242320155     1.007825032230
         H           -2.685834120283    -2.199753730964    -0.001973320155     1.007825032230
         H           -3.655281120283     0.077358269036    -0.001983320155     1.007825032230

  Basis Set: AUG-CC-PVTZ
    Blend: AUG-CC-PVTZ
  Basis Set: (AUG-CC-PVTZ AUX)
    Blend: AUG-CC-PVTZ-JKFIT
	 Reference Energy          =    -400.6364648792676348 [Eh]
	 Singles Energy            =      -0.0000000000000000 [Eh]
	 Same-Spin Energy          =      -0.4519425687808243 [Eh]
	 Opposite-Spin Energy      =      -1.4047135643959145 [Eh]
	 Correlation Energy        =      -1.8566561331767388 [Eh]
	 Total Energy              =    -402.4931210124443623 [Eh]

	 ================> DF-SCS-MP2 Energies <==================
	-----------------------------------------------------------
	 SCS Same-Spin Scale       =       0.3333333333333333 [-]
	 SCS Opposite-Spin Scale   =       1.2000000000000000 [-]
	 SCS Same-Spin Energy      =      -0.1506475229269414 [Eh]
	 SCS Opposite-Spin Energy  =      -1.6856562772750974 [Eh]
	 SCS Correlation Energy    =      -1.8363038002020389 [Eh]
	 SCS Total Energy          =    -402.4727686794696524 [Eh]
	-----------------------------------------------------------

  Dipole Moment: [D]
     X:     0.8957      Y:     1.7601      Z:     0.1948     Total:     1.9845

*** Psi4 exiting successfully. Buy a developer a beer!
