                               Psi4 1.3.2 release

  ==> Input File <==

--------------------------------------------------------------------------
#psi4
#
memory 32 gb

molecule  {
0 1
  N        0.6331050     1.8115130    -0.0000210
  C        0.1785470    -0.3913160     0.0000090
  C       -0.4036780     0.9062970    -0.0000200
  C        1.6027310    -0.2274780     0.0000040
  C        1.8344040     1.1305020     0.0000620
  C       -0.6692560    -1.5149550    -0.0000180
  C       -1.7891560     1.1099920    -0.0000270
  C        2.6263130    -1.3178960     0.0000690
  C       -2.0437110    -1.3184960    -0.0000320
  C       -2.5979760    -0.0198630    -0.0000430
  H        0.5326130     2.8174890    -0.0000320
  H        2.7737950     1.6707360     0.0000730
  H       -0.2550790    -2.5217040    -0.0000060
  H       -2.2189390     2.1099340    -0.0000460
  H        2.5289900    -1.9586870     0.8831790
  H        2.5285290    -1.9592090    -0.8826100
  H        3.6376652    -0.9002896     0.1996790
  H       -2.7095800    -2.1783550    -0.0000520
  H       -3.6790270     0.0987570    -0.0000620
units angstrom
no_reorient  #important for SAPT in psi4, default
symmetry c1  #important for SAPT in psi4, default
}

set PROPERTIES_ORIGIN ["COM"]
properties('MP2/aug-cc-pvtz', properties = ['dipole'])
--------------------------------------------------------------------------

    Molecular point group: c1
  Charge       = 0
  Multiplicity = 1
  Basis Set: AUG-CC-PVTZ
    Blend: AUG-CC-PVTZ
  Basis Set: (AUG-CC-PVTZ AUX)
    Blend: AUG-CC-PVTZ-JKFIT

    Orbital Energies [Eh]
    ---------------------

    Doubly Occupied:

       1A    -15.599974     2A    -11.265289     3A    -11.264591
       4A    -11.231868     5A    -11.230651     6A    -11.229454
       7A    -11.223879     8A    -11.222651     9A    -11.221688
      10A    -11.221076    11A     -1.291704    12A     -1.127034
      13A     -1.072059    14A     -0.997263    15A     -0.985562
      16A     -0.930409    17A     -0.839003    18A     -0.803884
      19A     -0.755625    20A     -0.720075    21A     -0.659913
      22A     -0.644607    23A     -0.604717    24A     -0.593647
      25A     -0.592061    26A     -0.570325    27A     -0.552488
      28A     -0.542579    29A     -0.523796    30A     -0.495685
      31A     -0.474289    32A     -0.463090    33A     -0.374587
      34A     -0.298701    35A     -0.277758

  @DF-RHF Final Energy:  -400.63621558767960

   => Energetics <=

    Nuclear Repulsion Energy =            483.1974297856160092
    One-Electron Energy =               -1499.8633246944987150
    Two-Electron Energy =                 616.0296793212030479
    Total Energy =                       -400.6362155876796578
  Basis Set: (AUG-CC-PVTZ AUX)
    Blend: AUG-CC-PVTZ-RI
    Molecular point group: c1

    Geometry (in Angstrom), charge = 0, multiplicity = 1:

       Center              X                  Y                   Z               Mass
    ------------   -----------------  -----------------  -----------------  -----------------
         N            0.656850746697     1.790114402825    -0.001557869813    14.003074004430
         C            0.202292746697    -0.412714597175    -0.001527869813    12.000000000000
         C           -0.379932253303     0.884898402825    -0.001556869813    12.000000000000
         C            1.626476746697    -0.248876597175    -0.001532869813    12.000000000000
         C            1.858149746697     1.109103402825    -0.001474869813    12.000000000000
         C           -0.645510253303    -1.536353597175    -0.001554869813    12.000000000000
         C           -1.765410253303     1.088593402825    -0.001563869813    12.000000000000
         C            2.650058746697    -1.339294597175    -0.001467869813    12.000000000000
         C           -2.019965253303    -1.339894597175    -0.001568869813    12.000000000000
         C           -2.574230253303    -0.041261597175    -0.001579869813    12.000000000000
         H            0.556358746697     2.796090402825    -0.001568869813     1.007825032230
         H            2.797540746697     1.649337402825    -0.001463869813     1.007825032230
         H           -0.231333253303    -2.543102597175    -0.001542869813     1.007825032230
         H           -2.195193253303     2.088535402825    -0.001582869813     1.007825032230
         H            2.552735746697    -1.980085597175     0.881642130187     1.007825032230
         H            2.552274746697    -1.980607597175    -0.884146869813     1.007825032230
         H            3.661410946697    -0.921688197175     0.198142130187     1.007825032230
         H           -2.685834253303    -2.199753597175    -0.001588869813     1.007825032230
         H           -3.655281253303     0.077358402825    -0.001598869813     1.007825032230

  Basis Set: AUG-CC-PVTZ
    Blend: AUG-CC-PVTZ
  Basis Set: (AUG-CC-PVTZ AUX)
    Blend: AUG-CC-PVTZ-JKFIT
	 Reference Energy          =    -400.6362155876796010 [Eh]
	 Singles Energy            =      -0.0000000000000000 [Eh]
	 Same-Spin Energy          =      -0.4518689579242904 [Eh]
	 Opposite-Spin Energy      =      -1.4044579813289435 [Eh]
	 Correlation Energy        =      -1.8563269392532340 [Eh]
	 Total Energy              =    -402.4925425269328230 [Eh]

	 ================> DF-SCS-MP2 Energies <==================
	-----------------------------------------------------------
	 SCS Same-Spin Scale       =       0.3333333333333333 [-]
	 SCS Opposite-Spin Scale   =       1.2000000000000000 [-]
	 SCS Same-Spin Energy      =      -0.1506229859747635 [Eh]
	 SCS Opposite-Spin Energy  =      -1.6853495775947323 [Eh]
	 SCS Correlation Energy    =      -1.8359725635694957 [Eh]
	 SCS Total Energy          =    -402.4721881512490995 [Eh]
	-----------------------------------------------------------

  Dipole Moment: [D]
     X:     0.9408      Y:     1.7970      Z:     0.0697     Total:     2.0296

*** Psi4 exiting successfully. Buy a developer a beer!
