                               Psi4 1.3.2 release

  ==> Input File <==

--------------------------------------------------------------------------
#psi4
#
memory 32 gb

molecule  {
0 1
  N        0.6331050     1.8115130    -0.0000210
  C        0.1785470    -0.3913160     0.0000090
  C       -0.4036780     0.9062970    -0.0000200
  C        1.6027310    -0.2274780     0.0000040
  C        1.8344040     1.1305020     0.0000620
  C       -0.6692560    -1.5149550    -0.0000180
  C       -1.7891553     1.1099905    -0.1000270
  C        2.6263130    -1.3178960     0.0000690
  C       -2.0437110    -1.3184960    -0.0000320
  C       -2.5979760    -0.0198630    -0.0000430
  H        0.5326130     2.8174890    -0.0000320
  H        2.7737950     1.6707360     0.0000730
  H       -0.2550790    -2.5217040    -0.0000060
  H       -2.2189390     2.1099340    -0.0000460
  H        2.5289900    -1.9586870     0.8831790
  H        2.5285290    -1.9592090    -0.8826100
  H        3.6376590    -0.9002700    -0.0003210
  H       -2.7095800    -2.1783550    -0.0000520
  H       -3.6790270     0.0987570    -0.0000620
units angstrom
no_reorient  #important for SAPT in psi4, default
symmetry c1  #important for SAPT in psi4, default
}

set PROPERTIES_ORIGIN ["COM"]
properties('MP2/aug-cc-pvtz', properties = ['dipole'])
--------------------------------------------------------------------------

    Molecular point group: c1
  Charge       = 0
  Multiplicity = 1
  Basis Set: AUG-CC-PVTZ
    Blend: AUG-CC-PVTZ
  Basis Set: (AUG-CC-PVTZ AUX)
    Blend: AUG-CC-PVTZ-JKFIT

    Orbital Energies [Eh]
    ---------------------

    Doubly Occupied:

       1A    -15.599976     2A    -11.265916     3A    -11.264533
       4A    -11.232569     5A    -11.231264     6A    -11.230387
       7A    -11.222802     8A    -11.221868     9A    -11.221423
      10A    -11.221090    11A     -1.291707    12A     -1.126800
      13A     -1.072011    14A     -0.996987    15A     -0.985705
      16A     -0.930928    17A     -0.838936    18A     -0.803589
      19A     -0.755592    20A     -0.719678    21A     -0.659975
      22A     -0.644087    23A     -0.603171    24A     -0.592721
      25A     -0.590978    26A     -0.569413    27A     -0.551275
      28A     -0.542395    29A     -0.529588    30A     -0.497657
      31A     -0.475467    32A     -0.462571    33A     -0.374495
      34A     -0.298695    35A     -0.277736

  @DF-RHF Final Energy:  -400.63729365815726

   => Energetics <=

    Nuclear Repulsion Energy =            483.1469164949498349
    One-Electron Energy =               -1499.7604455944535857
    Two-Electron Energy =                 615.9762354413464891
    Total Energy =                       -400.6372936581572048
  Basis Set: (AUG-CC-PVTZ AUX)
    Blend: AUG-CC-PVTZ-RI
    Molecular point group: c1

    Geometry (in Angstrom), charge = 0, multiplicity = 1:

       Center              X                  Y                   Z               Mass
    ------------   -----------------  -----------------  -----------------  -----------------
         N            0.656850730283     1.790114389448     0.009135100268    14.003074004430
         C            0.202292730283    -0.412714610552     0.009165100268    12.000000000000
         C           -0.379932269717     0.884898389448     0.009136100268    12.000000000000
         C            1.626476730283    -0.248876610552     0.009160100268    12.000000000000
         C            1.858149730283     1.109103389448     0.009218100268    12.000000000000
         C           -0.645510269717    -1.536353610552     0.009138100268    12.000000000000
         C           -1.765409569717     1.088591889448    -0.090870899732    12.000000000000
         C            2.650058730283    -1.339294610552     0.009225100268    12.000000000000
         C           -2.019965269717    -1.339894610552     0.009124100268    12.000000000000
         C           -2.574230269717    -0.041261610552     0.009113100268    12.000000000000
         H            0.556358730283     2.796090389448     0.009124100268     1.007825032230
         H            2.797540730283     1.649337389448     0.009229100268     1.007825032230
         H           -0.231333269717    -2.543102610552     0.009150100268     1.007825032230
         H           -2.195193269717     2.088535389448     0.009110100268     1.007825032230
         H            2.552735730283    -1.980085610552     0.892335100268     1.007825032230
         H            2.552274730283    -1.980607610552    -0.873453899732     1.007825032230
         H            3.661404730283    -0.921668610552     0.008835100268     1.007825032230
         H           -2.685834269717    -2.199753610552     0.009104100268     1.007825032230
         H           -3.655281269717     0.077358389448     0.009094100268     1.007825032230

  Basis Set: AUG-CC-PVTZ
    Blend: AUG-CC-PVTZ
  Basis Set: (AUG-CC-PVTZ AUX)
    Blend: AUG-CC-PVTZ-JKFIT
	 Reference Energy          =    -400.6372936581572617 [Eh]
	 Singles Energy            =      -0.0000000000000000 [Eh]
	 Same-Spin Energy          =      -0.4518289131027945 [Eh]
	 Opposite-Spin Energy      =      -1.4043834367266488 [Eh]
	 Correlation Energy        =      -1.8562123498294434 [Eh]
	 Total Energy              =    -402.4935060079866957 [Eh]

	 ================> DF-SCS-MP2 Energies <==================
	-----------------------------------------------------------
	 SCS Same-Spin Scale       =       0.3333333333333333 [-]
	 SCS Opposite-Spin Scale   =       1.2000000000000000 [-]
	 SCS Same-Spin Energy      =      -0.1506096377009315 [Eh]
	 SCS Opposite-Spin Energy  =      -1.6852601240719784 [Eh]
	 SCS Correlation Energy    =      -1.8358697617729098 [Eh]
	 SCS Total Energy          =    -402.4731634199301880 [Eh]
	-----------------------------------------------------------

  Dipole Moment: [D]
     X:     0.9711      Y:     1.7807      Z:     0.0664     Total:     2.0294

*** Psi4 exiting successfully. Buy a developer a beer!
