                               Psi4 1.3.2 release

  ==> Input File <==

--------------------------------------------------------------------------
#psi4
#
memory 32 gb

molecule  {
0 1
  N        0.6331050     1.8115130    -0.0000210
  C        0.1785470    -0.3913160     0.0000090
  C       -0.4036780     0.9062970    -0.0000200
  C        1.6027310    -0.2274780     0.0000040
  C        1.8344040     1.1305020     0.0000620
  C       -0.6692560    -1.5149550    -0.0000180
  C       -1.7891560     1.1099920    -0.0000270
  C        2.6263143    -1.3178957    -0.0499310
  C       -2.0437110    -1.3184960    -0.0000320
  C       -2.5979760    -0.0198630    -0.0000430
  H        0.5326130     2.8174890    -0.0000320
  H        2.7737950     1.6707360     0.0000730
  H       -0.2550790    -2.5217040    -0.0000060
  H       -2.2189390     2.1099340    -0.0000460
  H        2.5289900    -1.9586870     0.8831790
  H        2.5285290    -1.9592090    -0.8826100
  H        3.6376590    -0.9002700    -0.0003210
  H       -2.7095800    -2.1783550    -0.0000520
  H       -3.6790270     0.0987570    -0.0000620
units angstrom
no_reorient  #important for SAPT in psi4, default
symmetry c1  #important for SAPT in psi4, default
}

set PROPERTIES_ORIGIN ["COM"]
properties('MP2/aug-cc-pvtz', properties = ['dipole'])
--------------------------------------------------------------------------

    Molecular point group: c1
  Charge       = 0
  Multiplicity = 1
  Basis Set: AUG-CC-PVTZ
    Blend: AUG-CC-PVTZ
  Basis Set: (AUG-CC-PVTZ AUX)
    Blend: AUG-CC-PVTZ-JKFIT

    Orbital Energies [Eh]
    ---------------------

    Doubly Occupied:

       1A    -15.599983     2A    -11.265306     3A    -11.264619
       4A    -11.231865     5A    -11.230659     6A    -11.229466
       7A    -11.222882     8A    -11.222000     9A    -11.221601
      10A    -11.221066    11A     -1.291714    12A     -1.127034
      13A     -1.072165    14A     -0.997344    15A     -0.985781
      16A     -0.931197    17A     -0.839022    18A     -0.803975
      19A     -0.756058    20A     -0.720191    21A     -0.660178
      22A     -0.644742    23A     -0.603726    24A     -0.592987
      25A     -0.592275    26A     -0.570198    27A     -0.556898
      28A     -0.538310    29A     -0.527068    30A     -0.497158
      31A     -0.475724    32A     -0.463092    33A     -0.374375
      34A     -0.298696    35A     -0.277682

  @DF-RHF Final Energy:  -400.63764861215907

   => Energetics <=

    Nuclear Repulsion Energy =            483.2512074199238441
    One-Electron Energy =               -1499.9636422862461131
    Two-Electron Energy =                 616.0747862541632003
    Total Energy =                       -400.6376486121590688
  Basis Set: (AUG-CC-PVTZ AUX)
    Blend: AUG-CC-PVTZ-RI
    Molecular point group: c1

    Geometry (in Angstrom), charge = 0, multiplicity = 1:

       Center              X                  Y                   Z               Mass
    ------------   -----------------  -----------------  -----------------  -----------------
         N            0.656850675351     1.790114224655     0.004557515911    14.003074004430
         C            0.202292675351    -0.412714775345     0.004587515911    12.000000000000
         C           -0.379932324649     0.884898224655     0.004558515911    12.000000000000
         C            1.626476675351    -0.248876775345     0.004582515911    12.000000000000
         C            1.858149675351     1.109103224655     0.004640515911    12.000000000000
         C           -0.645510324649    -1.536353775345     0.004560515911    12.000000000000
         C           -1.765410324649     1.088593224655     0.004551515911    12.000000000000
         C            2.650059975351    -1.339294475345    -0.045352484089    12.000000000000
         C           -2.019965324649    -1.339894775345     0.004546515911    12.000000000000
         C           -2.574230324649    -0.041261775345     0.004535515911    12.000000000000
         H            0.556358675351     2.796090224655     0.004546515911     1.007825032230
         H            2.797540675351     1.649337224655     0.004651515911     1.007825032230
         H           -0.231333324649    -2.543102775345     0.004572515911     1.007825032230
         H           -2.195193324649     2.088535224655     0.004532515911     1.007825032230
         H            2.552735675351    -1.980085775345     0.887757515911     1.007825032230
         H            2.552274675351    -1.980607775345    -0.878031484089     1.007825032230
         H            3.661404675351    -0.921668775345     0.004257515911     1.007825032230
         H           -2.685834324649    -2.199753775345     0.004526515911     1.007825032230
         H           -3.655281324649     0.077358224655     0.004516515911     1.007825032230

  Basis Set: AUG-CC-PVTZ
    Blend: AUG-CC-PVTZ
  Basis Set: (AUG-CC-PVTZ AUX)
    Blend: AUG-CC-PVTZ-JKFIT
	 Reference Energy          =    -400.6376486121590688 [Eh]
	 Singles Energy            =      -0.0000000000000000 [Eh]
	 Same-Spin Energy          =      -0.4517205037224984 [Eh]
	 Opposite-Spin Energy      =      -1.4042228139951924 [Eh]
	 Correlation Energy        =      -1.8559433177176907 [Eh]
	 Total Energy              =    -402.4935919298767431 [Eh]

	 ================> DF-SCS-MP2 Energies <==================
	-----------------------------------------------------------
	 SCS Same-Spin Scale       =       0.3333333333333333 [-]
	 SCS Opposite-Spin Scale   =       1.2000000000000000 [-]
	 SCS Same-Spin Energy      =      -0.1505735012408328 [Eh]
	 SCS Opposite-Spin Energy  =      -1.6850673767942308 [Eh]
	 SCS Correlation Energy    =      -1.8356408780350635 [Eh]
	 SCS Total Energy          =    -402.4732894901941336 [Eh]
	-----------------------------------------------------------

  Dipole Moment: [D]
     X:     0.9543      Y:     1.8095      Z:    -0.0335     Total:     2.0460

*** Psi4 exiting successfully. Buy a developer a beer!
