                               Psi4 1.3.2 release

  ==> Input File <==

--------------------------------------------------------------------------
#psi4
#
memory 32 gb

molecule  {
0 1
  N        0.6331050     1.8115130    -0.0000210
  C        0.1785470    -0.3913160     0.0000090
  C       -0.4036780     0.9062970    -0.0000200
  C        1.6027310    -0.2274780     0.0000040
  C        1.8344040     1.1305020     0.0000620
  C       -0.6692560    -1.5149550    -0.0000180
  C       -1.7891550     1.1099897    -0.1500270
  C        2.6263130    -1.3178960     0.0000690
  C       -2.0437110    -1.3184960    -0.0000320
  C       -2.5979760    -0.0198630    -0.0000430
  H        0.5326130     2.8174890    -0.0000320
  H        2.7737950     1.6707360     0.0000730
  H       -0.2550790    -2.5217040    -0.0000060
  H       -2.2189390     2.1099340    -0.0000460
  H        2.5289900    -1.9586870     0.8831790
  H        2.5285290    -1.9592090    -0.8826100
  H        3.6376590    -0.9002700    -0.0003210
  H       -2.7095800    -2.1783550    -0.0000520
  H       -3.6790270     0.0987570    -0.0000620
units angstrom
no_reorient  #important for SAPT in psi4, default
symmetry c1  #important for SAPT in psi4, default
}

set PROPERTIES_ORIGIN ["COM"]
properties('MP2/aug-cc-pvtz', properties = ['dipole'])
--------------------------------------------------------------------------

    Molecular point group: c1
  Charge       = 0
  Multiplicity = 1
  Basis Set: AUG-CC-PVTZ
    Blend: AUG-CC-PVTZ
  Basis Set: (AUG-CC-PVTZ AUX)
    Blend: AUG-CC-PVTZ-JKFIT

    Orbital Energies [Eh]
    ---------------------

    Doubly Occupied:

       1A    -15.600044     2A    -11.266715     3A    -11.264518
       4A    -11.233476     5A    -11.232052     6A    -11.231560
       7A    -11.222918     8A    -11.221937     9A    -11.221530
      10A    -11.221155    11A     -1.291768    12A     -1.126557
      13A     -1.071849    14A     -0.996576    15A     -0.985677
      16A     -0.930946    17A     -0.838879    18A     -0.803164
      19A     -0.755323    20A     -0.719234    21A     -0.660024
      22A     -0.643487    23A     -0.602786    24A     -0.592620
      25A     -0.589840    26A     -0.569075    27A     -0.551172
      28A     -0.542490    29A     -0.529456    30A     -0.497660
      31A     -0.475067    32A     -0.461954    33A     -0.374443
      34A     -0.298742    35A     -0.277791

  @DF-RHF Final Energy:  -400.63364745365590

   => Energetics <=

    Nuclear Repulsion Energy =            483.0054264639188091
    One-Electron Energy =               -1499.4731773919943407
    Two-Electron Energy =                 615.8341034744196349
    Total Energy =                       -400.6336474536558399
  Basis Set: (AUG-CC-PVTZ AUX)
    Blend: AUG-CC-PVTZ-RI
    Molecular point group: c1

    Geometry (in Angstrom), charge = 0, multiplicity = 1:

       Center              X                  Y                   Z               Mass
    ------------   -----------------  -----------------  -----------------  -----------------
         N            0.656850702817     1.790114462689     0.013712684626    14.003074004430
         C            0.202292702817    -0.412714537311     0.013742684626    12.000000000000
         C           -0.379932297183     0.884898462689     0.013713684626    12.000000000000
         C            1.626476702817    -0.248876537311     0.013737684626    12.000000000000
         C            1.858149702817     1.109103462689     0.013795684626    12.000000000000
         C           -0.645510297183    -1.536353537311     0.013715684626    12.000000000000
         C           -1.765409297183     1.088591162689    -0.136293315374    12.000000000000
         C            2.650058702817    -1.339294537311     0.013802684626    12.000000000000
         C           -2.019965297183    -1.339894537311     0.013701684626    12.000000000000
         C           -2.574230297183    -0.041261537311     0.013690684626    12.000000000000
         H            0.556358702817     2.796090462689     0.013701684626     1.007825032230
         H            2.797540702817     1.649337462689     0.013806684626     1.007825032230
         H           -0.231333297183    -2.543102537311     0.013727684626     1.007825032230
         H           -2.195193297183     2.088535462689     0.013687684626     1.007825032230
         H            2.552735702817    -1.980085537311     0.896912684626     1.007825032230
         H            2.552274702817    -1.980607537311    -0.868876315374     1.007825032230
         H            3.661404702817    -0.921668537311     0.013412684626     1.007825032230
         H           -2.685834297183    -2.199753537311     0.013681684626     1.007825032230
         H           -3.655281297183     0.077358462689     0.013671684626     1.007825032230

  Basis Set: AUG-CC-PVTZ
    Blend: AUG-CC-PVTZ
  Basis Set: (AUG-CC-PVTZ AUX)
    Blend: AUG-CC-PVTZ-JKFIT
	 Reference Energy          =    -400.6336474536558967 [Eh]
	 Singles Energy            =      -0.0000000000000000 [Eh]
	 Same-Spin Energy          =      -0.4519963268772147 [Eh]
	 Opposite-Spin Energy      =      -1.4048770232435135 [Eh]
	 Correlation Energy        =      -1.8568733501207282 [Eh]
	 Total Energy              =    -402.4905208037766329 [Eh]

	 ================> DF-SCS-MP2 Energies <==================
	-----------------------------------------------------------
	 SCS Same-Spin Scale       =       0.3333333333333333 [-]
	 SCS Opposite-Spin Scale   =       1.2000000000000000 [-]
	 SCS Same-Spin Energy      =      -0.1506654422924049 [Eh]
	 SCS Opposite-Spin Energy  =      -1.6858524278922162 [Eh]
	 SCS Correlation Energy    =      -1.8365178701846212 [Eh]
	 SCS Total Energy          =    -402.4701653238404901 [Eh]
	-----------------------------------------------------------

  Dipole Moment: [D]
     X:     0.9884      Y:     1.7508      Z:     0.1007     Total:     2.0131

*** Psi4 exiting successfully. Buy a developer a beer!
