                               Psi4 1.3.2 release

  ==> Input File <==

--------------------------------------------------------------------------
#psi4
#
memory 32 gb

molecule  {
0 1
  N        0.6331050     1.8115130    -0.0000210
  C        0.1785470    -0.3913160     0.0000090
  C       -0.4036780     0.9062970    -0.0000200
  C        1.6027310    -0.2274780     0.0000040
  C        1.8344040     1.1305020     0.0000620
  C       -0.6692560    -1.5149550    -0.0000180
  C       -1.7891560     1.1099920    -0.0000270
  C        2.6263130    -1.3178960     0.0000690
  C       -2.0437110    -1.3184960    -0.0000320
  C       -2.5979760    -0.0198630    -0.0000430
  H        0.5326130     2.8174890    -0.0000320
  H        2.7737950     1.6707360     0.0000730
  H       -0.2550832    -2.5217049     0.2499940
  H       -2.2189390     2.1099340    -0.0000460
  H        2.5289900    -1.9586870     0.8831790
  H        2.5285290    -1.9592090    -0.8826100
  H        3.6376590    -0.9002700    -0.0003210
  H       -2.7095800    -2.1783550    -0.0000520
  H       -3.6790270     0.0987570    -0.0000620
units angstrom
no_reorient  #important for SAPT in psi4, default
symmetry c1  #important for SAPT in psi4, default
}

set PROPERTIES_ORIGIN ["COM"]
properties('MP2/aug-cc-pvtz', properties = ['dipole'])
--------------------------------------------------------------------------

    Molecular point group: c1
  Charge       = 0
  Multiplicity = 1
  Basis Set: AUG-CC-PVTZ
    Blend: AUG-CC-PVTZ
  Basis Set: (AUG-CC-PVTZ AUX)
    Blend: AUG-CC-PVTZ-JKFIT

    Orbital Energies [Eh]
    ---------------------

    Doubly Occupied:

       1A    -15.600131     2A    -11.265463     3A    -11.264794
       4A    -11.233009     5A    -11.232477     6A    -11.229692
       7A    -11.222915     8A    -11.222000     9A    -11.221685
      10A    -11.221246    11A     -1.291868    12A     -1.127146
      13A     -1.072227    14A     -0.996884    15A     -0.985901
      16A     -0.930758    17A     -0.838289    18A     -0.804167
      19A     -0.755319    20A     -0.718340    21A     -0.659367
      22A     -0.644796    23A     -0.602719    24A     -0.593333
      25A     -0.588866    26A     -0.569586    27A     -0.551305
      28A     -0.542117    29A     -0.529584    30A     -0.497666
      31A     -0.477346    32A     -0.459814    33A     -0.374203
      34A     -0.298873    35A     -0.277791

  @DF-RHF Final Energy:  -400.63603528756505

   => Energetics <=

    Nuclear Repulsion Energy =            483.1485307486786382
    One-Electron Energy =               -1499.7657795489167256
    Two-Electron Energy =                 615.9812135126729800
    Total Energy =                       -400.6360352875650506
  Basis Set: (AUG-CC-PVTZ AUX)
    Blend: AUG-CC-PVTZ-RI
    Molecular point group: c1

    Geometry (in Angstrom), charge = 0, multiplicity = 1:

       Center              X                  Y                   Z               Mass
    ------------   -----------------  -----------------  -----------------  -----------------
         N            0.656850826663     1.790114259040    -0.001942320155    14.003074004430
         C            0.202292826663    -0.412714740960    -0.001912320155    12.000000000000
         C           -0.379932173337     0.884898259040    -0.001941320155    12.000000000000
         C            1.626476826663    -0.248876740960    -0.001917320155    12.000000000000
         C            1.858149826663     1.109103259040    -0.001859320155    12.000000000000
         C           -0.645510173337    -1.536353740960    -0.001939320155    12.000000000000
         C           -1.765410173337     1.088593259040    -0.001948320155    12.000000000000
         C            2.650058826663    -1.339294740960    -0.001852320155    12.000000000000
         C           -2.019965173337    -1.339894740960    -0.001953320155    12.000000000000
         C           -2.574230173337    -0.041261740960    -0.001964320155    12.000000000000
         H            0.556358826663     2.796090259040    -0.001953320155     1.007825032230
         H            2.797540826663     1.649337259040    -0.001848320155     1.007825032230
         H           -0.231337373337    -2.543103640960     0.248072679845     1.007825032230
         H           -2.195193173337     2.088535259040    -0.001967320155     1.007825032230
         H            2.552735826663    -1.980085740960     0.881257679845     1.007825032230
         H            2.552274826663    -1.980607740960    -0.884531320155     1.007825032230
         H            3.661404826663    -0.921668740960    -0.002242320155     1.007825032230
         H           -2.685834173337    -2.199753740960    -0.001973320155     1.007825032230
         H           -3.655281173337     0.077358259040    -0.001983320155     1.007825032230

  Basis Set: AUG-CC-PVTZ
    Blend: AUG-CC-PVTZ
  Basis Set: (AUG-CC-PVTZ AUX)
    Blend: AUG-CC-PVTZ-JKFIT
	 Reference Energy          =    -400.6360352875650506 [Eh]
	 Singles Energy            =      -0.0000000000000000 [Eh]
	 Same-Spin Energy          =      -0.4519571200109195 [Eh]
	 Opposite-Spin Energy      =      -1.4046638966298990 [Eh]
	 Correlation Energy        =      -1.8566210166408186 [Eh]
	 Total Energy              =    -402.4926563042058660 [Eh]

	 ================> DF-SCS-MP2 Energies <==================
	-----------------------------------------------------------
	 SCS Same-Spin Scale       =       0.3333333333333333 [-]
	 SCS Opposite-Spin Scale   =       1.2000000000000000 [-]
	 SCS Same-Spin Energy      =      -0.1506523733369731 [Eh]
	 SCS Opposite-Spin Energy  =      -1.6855966759558787 [Eh]
	 SCS Correlation Energy    =      -1.8362490492928518 [Eh]
	 SCS Total Energy          =    -402.4722843368579106 [Eh]
	-----------------------------------------------------------

  Dipole Moment: [D]
     X:     0.9376      Y:     1.8551      Z:     0.1516     Total:     2.0841

*** Psi4 exiting successfully. Buy a developer a beer!
