                               Psi4 1.3.2 release

  ==> Input File <==

--------------------------------------------------------------------------
#psi4
#
memory 32 gb

molecule  {
0 1
  N        0.6331050     1.8115130    -0.0000210
  C        0.1785470    -0.3913160     0.0000090
  C       -0.4036780     0.9062970    -0.0000200
  C        1.6027310    -0.2274780     0.0000040
  C        1.8344040     1.1305020     0.0000620
  C       -0.6692560    -1.5149550    -0.0000180
  C       -1.7891560     1.1099920    -0.0000270
  C        2.6263157    -1.3178954    -0.0999310
  C       -2.0437110    -1.3184960    -0.0000320
  C       -2.5979760    -0.0198630    -0.0000430
  H        0.5326130     2.8174890    -0.0000320
  H        2.7737950     1.6707360     0.0000730
  H       -0.2550790    -2.5217040    -0.0000060
  H       -2.2189390     2.1099340    -0.0000460
  H        2.5289900    -1.9586870     0.8831790
  H        2.5285290    -1.9592090    -0.8826100
  H        3.6376590    -0.9002700    -0.0003210
  H       -2.7095800    -2.1783550    -0.0000520
  H       -3.6790270     0.0987570    -0.0000620
units angstrom
no_reorient  #important for SAPT in psi4, default
symmetry c1  #important for SAPT in psi4, default
}

set PROPERTIES_ORIGIN ["COM"]
properties('MP2/aug-cc-pvtz', properties = ['dipole'])
--------------------------------------------------------------------------

    Molecular point group: c1
  Charge       = 0
  Multiplicity = 1
  Basis Set: AUG-CC-PVTZ
    Blend: AUG-CC-PVTZ
  Basis Set: (AUG-CC-PVTZ AUX)
    Blend: AUG-CC-PVTZ-JKFIT

    Orbital Energies [Eh]
    ---------------------

    Doubly Occupied:

       1A    -15.600146     2A    -11.265409     3A    -11.264823
       4A    -11.231933     5A    -11.230709     6A    -11.229539
       7A    -11.223506     8A    -11.222854     9A    -11.221946
      10A    -11.221121    11A     -1.291865    12A     -1.127108
      13A     -1.072218    14A     -0.997436    15A     -0.985913
      16A     -0.932039    17A     -0.839131    18A     -0.804053
      19A     -0.756764    20A     -0.720600    21A     -0.660877
      22A     -0.645164    23A     -0.604494    24A     -0.594543
      25A     -0.592519    26A     -0.572538    27A     -0.562642
      28A     -0.535703    29A     -0.519952    30A     -0.495338
      31A     -0.475528    32A     -0.463164    33A     -0.373870
      34A     -0.298767    35A     -0.277634

  @DF-RHF Final Energy:  -400.62998217711652

   => Energetics <=

    Nuclear Repulsion Energy =            483.2220632418196260
    One-Electron Energy =               -1499.8803983919838174
    Two-Electron Energy =                 616.0283529730477312
    Total Energy =                       -400.6299821771165171
  Basis Set: (AUG-CC-PVTZ AUX)
    Blend: AUG-CC-PVTZ-RI
    Molecular point group: c1

    Geometry (in Angstrom), charge = 0, multiplicity = 1:

       Center              X                  Y                   Z               Mass
    ------------   -----------------  -----------------  -----------------  -----------------
         N            0.656850547179     1.790114197189     0.009135100268    14.003074004430
         C            0.202292547179    -0.412714802811     0.009165100268    12.000000000000
         C           -0.379932452821     0.884898197189     0.009136100268    12.000000000000
         C            1.626476547179    -0.248876802811     0.009160100268    12.000000000000
         C            1.858149547179     1.109103197189     0.009218100268    12.000000000000
         C           -0.645510452821    -1.536353802811     0.009138100268    12.000000000000
         C           -1.765410452821     1.088593197189     0.009129100268    12.000000000000
         C            2.650061247179    -1.339294202811    -0.090774899732    12.000000000000
         C           -2.019965452821    -1.339894802811     0.009124100268    12.000000000000
         C           -2.574230452821    -0.041261802811     0.009113100268    12.000000000000
         H            0.556358547179     2.796090197189     0.009124100268     1.007825032230
         H            2.797540547179     1.649337197189     0.009229100268     1.007825032230
         H           -0.231333452821    -2.543102802811     0.009150100268     1.007825032230
         H           -2.195193452821     2.088535197189     0.009110100268     1.007825032230
         H            2.552735547179    -1.980085802811     0.892335100268     1.007825032230
         H            2.552274547179    -1.980607802811    -0.873453899732     1.007825032230
         H            3.661404547179    -0.921668802811     0.008835100268     1.007825032230
         H           -2.685834452821    -2.199753802811     0.009104100268     1.007825032230
         H           -3.655281452821     0.077358197189     0.009094100268     1.007825032230

  Basis Set: AUG-CC-PVTZ
    Blend: AUG-CC-PVTZ
  Basis Set: (AUG-CC-PVTZ AUX)
    Blend: AUG-CC-PVTZ-JKFIT
	 Reference Energy          =    -400.6299821771165171 [Eh]
	 Singles Energy            =      -0.0000000000000000 [Eh]
	 Same-Spin Energy          =      -0.4518070239275240 [Eh]
	 Opposite-Spin Energy      =      -1.4045213888479777 [Eh]
	 Correlation Energy        =      -1.8563284127755018 [Eh]
	 Total Energy              =    -402.4863105898920139 [Eh]

	 ================> DF-SCS-MP2 Energies <==================
	-----------------------------------------------------------
	 SCS Same-Spin Scale       =       0.3333333333333333 [-]
	 SCS Opposite-Spin Scale   =       1.2000000000000000 [-]
	 SCS Same-Spin Energy      =      -0.1506023413091747 [Eh]
	 SCS Opposite-Spin Energy  =      -1.6854256666175733 [Eh]
	 SCS Correlation Energy    =      -1.8360280079267479 [Eh]
	 SCS Total Energy          =    -402.4660101850432739 [Eh]
	-----------------------------------------------------------

  Dipole Moment: [D]
     X:     0.9452      Y:     1.8228      Z:    -0.0662     Total:     2.0544

*** Psi4 exiting successfully. Buy a developer a beer!
