                               Psi4 1.3.2 release

  ==> Input File <==

--------------------------------------------------------------------------
#psi4
#
memory 32 gb

molecule  {
0 1
  N        0.6331050     1.8115130    -0.0000210
  C        0.1785470    -0.3913160     0.0000090
  C       -0.4036780     0.9062970    -0.0000200
  C        1.6027310    -0.2274780     0.0000040
  C        1.8344040     1.1305020     0.0000620
  C       -0.6692560    -1.5149550    -0.0000180
  C       -1.7891560     1.1099920    -0.0000270
  C        2.6263130    -1.3178960     0.0000690
  C       -2.0437110    -1.3184960    -0.0000320
  C       -2.5979760    -0.0198630    -0.0000430
  H        0.5326130     2.8174890    -0.0000320
  H        2.7737950     1.6707360     0.0000730
  H       -0.2550790    -2.5217040    -0.0000060
  H       -2.2189390     2.1099340    -0.0000460
  H        2.5289900    -1.9586870     0.8831790
  H        2.5285290    -1.9592090    -0.8826100
  H        3.6376590    -0.9002700    -0.0003210
  H       -2.7095847    -2.1783560     0.2999480
  H       -3.6790270     0.0987570    -0.0000620
units angstrom
no_reorient  #important for SAPT in psi4, default
symmetry c1  #important for SAPT in psi4, default
}

set PROPERTIES_ORIGIN ["COM"]
properties('MP2/aug-cc-pvtz', properties = ['dipole'])
--------------------------------------------------------------------------

    Molecular point group: c1
  Charge       = 0
  Multiplicity = 1
  Basis Set: AUG-CC-PVTZ
    Blend: AUG-CC-PVTZ
  Basis Set: (AUG-CC-PVTZ AUX)
    Blend: AUG-CC-PVTZ-JKFIT

    Orbital Energies [Eh]
    ---------------------

    Doubly Occupied:

       1A    -15.600536     2A    -11.266166     3A    -11.264909
       4A    -11.232163     5A    -11.231588     6A    -11.230086
       7A    -11.224475     8A    -11.223177     9A    -11.222221
      10A    -11.221689    11A     -1.292242    12A     -1.127261
      13A     -1.072582    14A     -0.996986    15A     -0.985698
      16A     -0.931312    17A     -0.838329    18A     -0.803274
      19A     -0.755392    20A     -0.720506    21A     -0.659357
      22A     -0.640338    23A     -0.603911    24A     -0.593004
      25A     -0.591514    26A     -0.569949    27A     -0.551801
      28A     -0.542123    29A     -0.529324    30A     -0.497016
      31A     -0.476304    32A     -0.459065    33A     -0.374997
      34A     -0.298583    35A     -0.278105

  @DF-RHF Final Energy:  -400.63407354625616

   => Energetics <=

    Nuclear Repulsion Energy =            483.1097405061927361
    One-Electron Energy =               -1499.6756622033894928
    Two-Electron Energy =                 615.9318481509404819
    Total Energy =                       -400.6340735462562179
  Basis Set: (AUG-CC-PVTZ AUX)
    Blend: AUG-CC-PVTZ-RI
    Molecular point group: c1

    Geometry (in Angstrom), charge = 0, multiplicity = 1:

       Center              X                  Y                   Z               Mass
    ------------   -----------------  -----------------  -----------------  -----------------
         N            0.656850830507     1.790114259809    -0.002326770497    14.003074004430
         C            0.202292830507    -0.412714740191    -0.002296770497    12.000000000000
         C           -0.379932169493     0.884898259809    -0.002325770497    12.000000000000
         C            1.626476830507    -0.248876740191    -0.002301770497    12.000000000000
         C            1.858149830507     1.109103259809    -0.002243770497    12.000000000000
         C           -0.645510169493    -1.536353740191    -0.002323770497    12.000000000000
         C           -1.765410169493     1.088593259809    -0.002332770497    12.000000000000
         C            2.650058830507    -1.339294740191    -0.002236770497    12.000000000000
         C           -2.019965169493    -1.339894740191    -0.002337770497    12.000000000000
         C           -2.574230169493    -0.041261740191    -0.002348770497    12.000000000000
         H            0.556358830507     2.796090259809    -0.002337770497     1.007825032230
         H            2.797540830507     1.649337259809    -0.002232770497     1.007825032230
         H           -0.231333169493    -2.543102740191    -0.002311770497     1.007825032230
         H           -2.195193169493     2.088535259809    -0.002351770497     1.007825032230
         H            2.552735830507    -1.980085740191     0.880873229503     1.007825032230
         H            2.552274830507    -1.980607740191    -0.884915770497     1.007825032230
         H            3.661404830507    -0.921668740191    -0.002626770497     1.007825032230
         H           -2.685838869493    -2.199754740191     0.297642229503     1.007825032230
         H           -3.655281169493     0.077358259809    -0.002367770497     1.007825032230

  Basis Set: AUG-CC-PVTZ
    Blend: AUG-CC-PVTZ
  Basis Set: (AUG-CC-PVTZ AUX)
    Blend: AUG-CC-PVTZ-JKFIT
	 Reference Energy          =    -400.6340735462561611 [Eh]
	 Singles Energy            =      -0.0000000000000000 [Eh]
	 Same-Spin Energy          =      -0.4519597075837227 [Eh]
	 Opposite-Spin Energy      =      -1.4047860316988192 [Eh]
	 Correlation Energy        =      -1.8567457392825419 [Eh]
	 Total Energy              =    -402.4908192855386915 [Eh]

	 ================> DF-SCS-MP2 Energies <==================
	-----------------------------------------------------------
	 SCS Same-Spin Scale       =       0.3333333333333333 [-]
	 SCS Opposite-Spin Scale   =       1.2000000000000000 [-]
	 SCS Same-Spin Energy      =      -0.1506532358612409 [Eh]
	 SCS Opposite-Spin Energy  =      -1.6857432380385831 [Eh]
	 SCS Correlation Energy    =      -1.8363964738998240 [Eh]
	 SCS Total Energy          =    -402.4704700201559717 [Eh]
	-----------------------------------------------------------

  Dipole Moment: [D]
     X:     1.0254      Y:     1.8748      Z:     0.1882     Total:     2.1452

*** Psi4 exiting successfully. Buy a developer a beer!
