                               Psi4 1.3.2 release

  ==> Input File <==

--------------------------------------------------------------------------
#psi4
#
memory 32 gb

molecule  {
0 1
  N        0.6331050     1.8115130    -0.0000210
  C        0.1785470    -0.3913160     0.0000090
  C       -0.4036780     0.9062970    -0.0000200
  C        1.6027310    -0.2274780     0.0000040
  C        1.8344040     1.1305020     0.0000620
  C       -0.6692560    -1.5149550    -0.0000180
  C       -1.7891560     1.1099920    -0.0000270
  C        2.6263197    -1.3178946    -0.2499310
  C       -2.0437110    -1.3184960    -0.0000320
  C       -2.5979760    -0.0198630    -0.0000430
  H        0.5326130     2.8174890    -0.0000320
  H        2.7737950     1.6707360     0.0000730
  H       -0.2550790    -2.5217040    -0.0000060
  H       -2.2189390     2.1099340    -0.0000460
  H        2.5289900    -1.9586870     0.8831790
  H        2.5285290    -1.9592090    -0.8826100
  H        3.6376590    -0.9002700    -0.0003210
  H       -2.7095800    -2.1783550    -0.0000520
  H       -3.6790270     0.0987570    -0.0000620
units angstrom
no_reorient  #important for SAPT in psi4, default
symmetry c1  #important for SAPT in psi4, default
}

set PROPERTIES_ORIGIN ["COM"]
properties('MP2/aug-cc-pvtz', properties = ['dipole'])
--------------------------------------------------------------------------

    Molecular point group: c1
  Charge       = 0
  Multiplicity = 1
  Basis Set: AUG-CC-PVTZ
    Blend: AUG-CC-PVTZ
  Basis Set: (AUG-CC-PVTZ AUX)
    Blend: AUG-CC-PVTZ-JKFIT

    Orbital Energies [Eh]
    ---------------------

    Doubly Occupied:

       1A    -15.601261     2A    -11.266216     3A    -11.266107
       4A    -11.232401     5A    -11.231056     6A    -11.230893
       7A    -11.230042     8A    -11.227339     9A    -11.222645
      10A    -11.221496    11A     -1.292889    12A     -1.127616
      13A     -1.072590    14A     -0.998124    15A     -0.986925
      16A     -0.938225    17A     -0.839872    18A     -0.804590
      19A     -0.762281    20A     -0.723361    21A     -0.666269
      22A     -0.647810    23A     -0.614792    24A     -0.599767
      25A     -0.592837    26A     -0.582253    27A     -0.564334
      28A     -0.532511    29A     -0.507260    30A     -0.479961
      31A     -0.469789    32A     -0.463566    33A     -0.370216
      34A     -0.299254    35A     -0.277231

  @DF-RHF Final Energy:  -400.57504840329108

   => Energetics <=

    Nuclear Repulsion Energy =            483.0206883020203463
    One-Electron Energy =               -1499.3039098997837755
    Two-Electron Energy =                 615.7081731944724652
    Total Energy =                       -400.5750484032910208
  Basis Set: (AUG-CC-PVTZ AUX)
    Blend: AUG-CC-PVTZ-RI
    Molecular point group: c1

    Geometry (in Angstrom), charge = 0, multiplicity = 1:

       Center              X                  Y                   Z               Mass
    ------------   -----------------  -----------------  -----------------  -----------------
         N            0.656850180972     1.790114123948     0.022867853340    14.003074004430
         C            0.202292180972    -0.412714876052     0.022897853340    12.000000000000
         C           -0.379932819028     0.884898123948     0.022868853340    12.000000000000
         C            1.626476180972    -0.248876876052     0.022892853340    12.000000000000
         C            1.858149180972     1.109103123948     0.022950853340    12.000000000000
         C           -0.645510819028    -1.536353876052     0.022870853340    12.000000000000
         C           -1.765410819028     1.088593123948     0.022861853340    12.000000000000
         C            2.650064880972    -1.339293476052    -0.227042146660    12.000000000000
         C           -2.019965819028    -1.339894876052     0.022856853340    12.000000000000
         C           -2.574230819028    -0.041261876052     0.022845853340    12.000000000000
         H            0.556358180972     2.796090123948     0.022856853340     1.007825032230
         H            2.797540180972     1.649337123948     0.022961853340     1.007825032230
         H           -0.231333819028    -2.543102876052     0.022882853340     1.007825032230
         H           -2.195193819028     2.088535123948     0.022842853340     1.007825032230
         H            2.552735180972    -1.980085876052     0.906067853340     1.007825032230
         H            2.552274180972    -1.980607876052    -0.859721146660     1.007825032230
         H            3.661404180972    -0.921668876052     0.022567853340     1.007825032230
         H           -2.685834819028    -2.199753876052     0.022836853340     1.007825032230
         H           -3.655281819028     0.077358123948     0.022826853340     1.007825032230

  Basis Set: AUG-CC-PVTZ
    Blend: AUG-CC-PVTZ
  Basis Set: (AUG-CC-PVTZ AUX)
    Blend: AUG-CC-PVTZ-JKFIT
	 Reference Energy          =    -400.5750484032910776 [Eh]
	 Singles Energy            =      -0.0000000000000000 [Eh]
	 Same-Spin Energy          =      -0.4524334726636305 [Eh]
	 Opposite-Spin Energy      =      -1.4067998189872792 [Eh]
	 Correlation Energy        =      -1.8592332916509098 [Eh]
	 Total Energy              =    -402.4342816949420012 [Eh]

	 ================> DF-SCS-MP2 Energies <==================
	-----------------------------------------------------------
	 SCS Same-Spin Scale       =       0.3333333333333333 [-]
	 SCS Opposite-Spin Scale   =       1.2000000000000000 [-]
	 SCS Same-Spin Energy      =      -0.1508111575545435 [Eh]
	 SCS Opposite-Spin Energy  =      -1.6881597827847350 [Eh]
	 SCS Correlation Energy    =      -1.8389709403392784 [Eh]
	 SCS Total Energy          =    -402.4140193436303434 [Eh]
	-----------------------------------------------------------

  Dipole Moment: [D]
     X:     0.8822      Y:     1.9074      Z:    -0.1505     Total:     2.1070

*** Psi4 exiting successfully. Buy a developer a beer!
