                               Psi4 1.3.2 release

  ==> Input File <==

--------------------------------------------------------------------------
#psi4
#
memory 32 gb

molecule  {
0 1
  N        0.6331050     1.8115130    -0.0000210
  C        0.1785470    -0.3913160     0.0000090
  C       -0.4036780     0.9062970    -0.0000200
  C        1.6027310    -0.2274780     0.0000040
  C        1.8344040     1.1305020     0.0000620
  C       -0.6692560    -1.5149550    -0.0000180
  C       -1.7891560     1.1099920    -0.0000270
  C        2.6263130    -1.3178960     0.0000690
  C       -2.0437110    -1.3184960    -0.0000320
  C       -2.5979760    -0.0198630    -0.0000430
  H        0.5326130     2.8174890    -0.0000320
  H        2.7737950     1.6707360     0.0000730
  H       -0.2550790    -2.5217040    -0.0000060
  H       -2.2189390     2.1099340    -0.0000460
  H        2.5289900    -1.9586870     0.8831790
  H        2.5285290    -1.9592090    -0.8826100
  H        3.6376590    -0.9002700    -0.0003210
  H       -2.7095800    -2.1783550    -0.0000520
  H       -3.6790215     0.0987570    -0.3000620
units angstrom
no_reorient  #important for SAPT in psi4, default
symmetry c1  #important for SAPT in psi4, default
}

set PROPERTIES_ORIGIN ["COM"]
properties('MP2/aug-cc-pvtz', properties = ['dipole'])
--------------------------------------------------------------------------

    Molecular point group: c1
  Charge       = 0
  Multiplicity = 1
  Basis Set: AUG-CC-PVTZ
    Blend: AUG-CC-PVTZ
  Basis Set: (AUG-CC-PVTZ AUX)
    Blend: AUG-CC-PVTZ-JKFIT

    Orbital Energies [Eh]
    ---------------------

    Doubly Occupied:

       1A    -15.600368     2A    -11.265590     3A    -11.265256
       4A    -11.233433     5A    -11.232080     6A    -11.230828
       7A    -11.223315     8A    -11.222411     9A    -11.221721
      10A    -11.221675    11A     -1.292142    12A     -1.127181
      13A     -1.072461    14A     -0.997688    15A     -0.985083
      16A     -0.931103    17A     -0.838815    18A     -0.802147
      19A     -0.756296    20A     -0.719563    21A     -0.658030
      22A     -0.642747    23A     -0.603398    24A     -0.593136
      25A     -0.592110    26A     -0.569866    27A     -0.551918
      28A     -0.542102    29A     -0.526500    30A     -0.497997
      31A     -0.477152    32A     -0.459216    33A     -0.374500
      34A     -0.298926    35A     -0.277914

  @DF-RHF Final Energy:  -400.63400138424993

   => Energetics <=

    Nuclear Repulsion Energy =            483.1101078702206451
    One-Electron Energy =               -1499.6788840644096581
    Two-Electron Energy =                 615.9347748099390856
    Total Energy =                       -400.6340013842499275
  Basis Set: (AUG-CC-PVTZ AUX)
    Blend: AUG-CC-PVTZ-RI
    Molecular point group: c1

    Geometry (in Angstrom), charge = 0, multiplicity = 1:

       Center              X                  Y                   Z               Mass
    ------------   -----------------  -----------------  -----------------  -----------------
         N            0.656850752079     1.790114252120     0.002286633605    14.003074004430
         C            0.202292752079    -0.412714747880     0.002316633605    12.000000000000
         C           -0.379932247921     0.884898252120     0.002287633605    12.000000000000
         C            1.626476752079    -0.248876747880     0.002311633605    12.000000000000
         C            1.858149752079     1.109103252120     0.002369633605    12.000000000000
         C           -0.645510247921    -1.536353747880     0.002289633605    12.000000000000
         C           -1.765410247921     1.088593252120     0.002280633605    12.000000000000
         C            2.650058752079    -1.339294747880     0.002376633605    12.000000000000
         C           -2.019965247921    -1.339894747880     0.002275633605    12.000000000000
         C           -2.574230247921    -0.041261747880     0.002264633605    12.000000000000
         H            0.556358752079     2.796090252120     0.002275633605     1.007825032230
         H            2.797540752079     1.649337252120     0.002380633605     1.007825032230
         H           -0.231333247921    -2.543102747880     0.002301633605     1.007825032230
         H           -2.195193247921     2.088535252120     0.002261633605     1.007825032230
         H            2.552735752079    -1.980085747880     0.885486633605     1.007825032230
         H            2.552274752079    -1.980607747880    -0.880302366395     1.007825032230
         H            3.661404752079    -0.921668747880     0.001986633605     1.007825032230
         H           -2.685834247921    -2.199753747880     0.002255633605     1.007825032230
         H           -3.655275747921     0.077358252120    -0.297754366395     1.007825032230

  Basis Set: AUG-CC-PVTZ
    Blend: AUG-CC-PVTZ
  Basis Set: (AUG-CC-PVTZ AUX)
    Blend: AUG-CC-PVTZ-JKFIT
	 Reference Energy          =    -400.6340013842499275 [Eh]
	 Singles Energy            =      -0.0000000000000000 [Eh]
	 Same-Spin Energy          =      -0.4520334266488678 [Eh]
	 Opposite-Spin Energy      =      -1.4049073022041672 [Eh]
	 Correlation Energy        =      -1.8569407288530351 [Eh]
	 Total Energy              =    -402.4909421131029603 [Eh]

	 ================> DF-SCS-MP2 Energies <==================
	-----------------------------------------------------------
	 SCS Same-Spin Scale       =       0.3333333333333333 [-]
	 SCS Opposite-Spin Scale   =       1.2000000000000000 [-]
	 SCS Same-Spin Energy      =      -0.1506778088829559 [Eh]
	 SCS Opposite-Spin Energy  =      -1.6858887626450005 [Eh]
	 SCS Correlation Energy    =      -1.8365665715279564 [Eh]
	 SCS Total Energy          =    -402.4705679557778808 [Eh]
	-----------------------------------------------------------

  Dipole Moment: [D]
     X:     1.0557      Y:     1.7987      Z:    -0.1913     Total:     2.0944

*** Psi4 exiting successfully. Buy a developer a beer!
