                               Psi4 1.3.2 release

  ==> Input File <==

--------------------------------------------------------------------------
#psi4
#
memory 32 gb

molecule  {
0 1
  N        0.6331050     1.8115130    -0.0000210
  C        0.1785470    -0.3913160     0.0000090
  C       -0.4036780     0.9062970    -0.0000200
  C        1.6027310    -0.2274780     0.0000040
  C        1.8344040     1.1305020     0.0000620
  C       -0.6692549    -1.5149552    -0.1000180
  C       -1.7891560     1.1099920    -0.0000270
  C        2.6263130    -1.3178960     0.0000690
  C       -2.0437110    -1.3184960    -0.0000320
  C       -2.5979760    -0.0198630    -0.0000430
  H        0.5326130     2.8174890    -0.0000320
  H        2.7737950     1.6707360     0.0000730
  H       -0.2550790    -2.5217040    -0.0000060
  H       -2.2189390     2.1099340    -0.0000460
  H        2.5289900    -1.9586870     0.8831790
  H        2.5285290    -1.9592090    -0.8826100
  H        3.6376590    -0.9002700    -0.0003210
  H       -2.7095800    -2.1783550    -0.0000520
  H       -3.6790270     0.0987570    -0.0000620
units angstrom
no_reorient  #important for SAPT in psi4, default
symmetry c1  #important for SAPT in psi4, default
}

set PROPERTIES_ORIGIN ["COM"]
properties('MP2/aug-cc-pvtz', properties = ['dipole'])
--------------------------------------------------------------------------

    Molecular point group: c1
  Charge       = 0
  Multiplicity = 1
  Basis Set: AUG-CC-PVTZ
    Blend: AUG-CC-PVTZ
  Basis Set: (AUG-CC-PVTZ AUX)
    Blend: AUG-CC-PVTZ-JKFIT

    Orbital Energies [Eh]
    ---------------------

    Doubly Occupied:

       1A    -15.600022     2A    -11.265225     3A    -11.264781
       4A    -11.232357     5A    -11.231350     6A    -11.229424
       7A    -11.223008     8A    -11.222049     9A    -11.221985
      10A    -11.221306    11A     -1.291752    12A     -1.126639
      13A     -1.072156    14A     -0.996889    15A     -0.985667
      16A     -0.930877    17A     -0.838869    18A     -0.803522
      19A     -0.755601    20A     -0.719756    21A     -0.659809
      22A     -0.644449    23A     -0.603114    24A     -0.593765
      25A     -0.589917    26A     -0.569395    27A     -0.551323
      28A     -0.542254    29A     -0.529508    30A     -0.497165
      31A     -0.475822    32A     -0.462225    33A     -0.374387
      34A     -0.298448    35A     -0.277857

  @DF-RHF Final Energy:  -400.63707698372207

   => Energetics <=

    Nuclear Repulsion Energy =            483.1461441185302306
    One-Electron Energy =               -1499.7610947430011947
    Two-Electron Energy =                 615.9778736407489532
    Total Energy =                       -400.6370769837220678
  Basis Set: (AUG-CC-PVTZ AUX)
    Blend: AUG-CC-PVTZ-RI
    Molecular point group: c1

    Geometry (in Angstrom), charge = 0, multiplicity = 1:

       Center              X                  Y                   Z               Mass
    ------------   -----------------  -----------------  -----------------  -----------------
         N            0.656850693662     1.790114270430     0.009135100268    14.003074004430
         C            0.202292693662    -0.412714729570     0.009165100268    12.000000000000
         C           -0.379932306338     0.884898270430     0.009136100268    12.000000000000
         C            1.626476693662    -0.248876729570     0.009160100268    12.000000000000
         C            1.858149693662     1.109103270430     0.009218100268    12.000000000000
         C           -0.645509206338    -1.536353929570    -0.090861899732    12.000000000000
         C           -1.765410306338     1.088593270430     0.009129100268    12.000000000000
         C            2.650058693662    -1.339294729570     0.009225100268    12.000000000000
         C           -2.019965306338    -1.339894729570     0.009124100268    12.000000000000
         C           -2.574230306338    -0.041261729570     0.009113100268    12.000000000000
         H            0.556358693662     2.796090270430     0.009124100268     1.007825032230
         H            2.797540693662     1.649337270430     0.009229100268     1.007825032230
         H           -0.231333306338    -2.543102729570     0.009150100268     1.007825032230
         H           -2.195193306338     2.088535270430     0.009110100268     1.007825032230
         H            2.552735693662    -1.980085729570     0.892335100268     1.007825032230
         H            2.552274693662    -1.980607729570    -0.873453899732     1.007825032230
         H            3.661404693662    -0.921668729570     0.008835100268     1.007825032230
         H           -2.685834306338    -2.199753729570     0.009104100268     1.007825032230
         H           -3.655281306338     0.077358270430     0.009094100268     1.007825032230

  Basis Set: AUG-CC-PVTZ
    Blend: AUG-CC-PVTZ
  Basis Set: (AUG-CC-PVTZ AUX)
    Blend: AUG-CC-PVTZ-JKFIT
	 Reference Energy          =    -400.6370769837220678 [Eh]
	 Singles Energy            =      -0.0000000000000000 [Eh]
	 Same-Spin Energy          =      -0.4518828562346141 [Eh]
	 Opposite-Spin Energy      =      -1.4044550520051740 [Eh]
	 Correlation Energy        =      -1.8563379082397882 [Eh]
	 Total Energy              =    -402.4934148919618337 [Eh]

	 ================> DF-SCS-MP2 Energies <==================
	-----------------------------------------------------------
	 SCS Same-Spin Scale       =       0.3333333333333333 [-]
	 SCS Opposite-Spin Scale   =       1.2000000000000000 [-]
	 SCS Same-Spin Energy      =      -0.1506276187448713 [Eh]
	 SCS Opposite-Spin Energy  =      -1.6853460624062087 [Eh]
	 SCS Correlation Energy    =      -1.8359736811510801 [Eh]
	 SCS Total Energy          =    -402.4730506648731421 [Eh]
	-----------------------------------------------------------

  Dipole Moment: [D]
     X:     0.9479      Y:     1.8289      Z:     0.0663     Total:     2.0610

*** Psi4 exiting successfully. Buy a developer a beer!
