                               Psi4 1.3.2 release

  ==> Input File <==

--------------------------------------------------------------------------
#psi4
#
memory 32 gb

molecule  {
0 1
  N        0.6331050     1.8115130    -0.0000210
  C        0.1785470    -0.3913160     0.0000090
  C       -0.4036780     0.9062970    -0.0000200
  C        1.6027310    -0.2274780     0.0000040
  C        1.8344040     1.1305020     0.0000620
  C       -0.6692560    -1.5149550    -0.0000180
  C       -1.7891560     1.1099920    -0.0000270
  C        2.6263130    -1.3178960     0.0000690
  C       -2.0437110    -1.3184960    -0.0000320
  C       -2.5979760    -0.0198630    -0.0000430
  H        0.5326130     2.8174890    -0.0000320
  H        2.7737950     1.6707360     0.0000730
  H       -0.2550815    -2.5217045     0.1499940
  H       -2.2189390     2.1099340    -0.0000460
  H        2.5289900    -1.9586870     0.8831790
  H        2.5285290    -1.9592090    -0.8826100
  H        3.6376590    -0.9002700    -0.0003210
  H       -2.7095800    -2.1783550    -0.0000520
  H       -3.6790270     0.0987570    -0.0000620
units angstrom
no_reorient  #important for SAPT in psi4, default
symmetry c1  #important for SAPT in psi4, default
}

set PROPERTIES_ORIGIN ["COM"]
properties('MP2/aug-cc-pvtz', properties = ['dipole'])
--------------------------------------------------------------------------

    Molecular point group: c1
  Charge       = 0
  Multiplicity = 1
  Basis Set: AUG-CC-PVTZ
    Blend: AUG-CC-PVTZ
  Basis Set: (AUG-CC-PVTZ AUX)
    Blend: AUG-CC-PVTZ-JKFIT

    Orbital Energies [Eh]
    ---------------------

    Doubly Occupied:

       1A    -15.600001     2A    -11.265339     3A    -11.264638
       4A    -11.232071     5A    -11.231504     6A    -11.229531
       7A    -11.222780     8A    -11.221880     9A    -11.221315
      10A    -11.221275    11A     -1.291736    12A     -1.127056
      13A     -1.072174    14A     -0.997147    15A     -0.985796
      16A     -0.930858    17A     -0.838718    18A     -0.804026
      19A     -0.755625    20A     -0.719409    21A     -0.659730
      22A     -0.644668    23A     -0.603188    24A     -0.593119
      25A     -0.590680    26A     -0.569660    27A     -0.551340
      28A     -0.542250    29A     -0.529648    30A     -0.497661
      31A     -0.476438    32A     -0.461802    33A     -0.374418
      34A     -0.298743    35A     -0.277730

  @DF-RHF Final Energy:  -400.63877121772538

   => Energetics <=

    Nuclear Repulsion Energy =            483.2197460376997356
    One-Electron Energy =               -1499.9091257336149283
    Two-Electron Energy =                 616.0506084781899290
    Total Energy =                       -400.6387712177253206
  Basis Set: (AUG-CC-PVTZ AUX)
    Blend: AUG-CC-PVTZ-RI
    Molecular point group: c1

    Geometry (in Angstrom), charge = 0, multiplicity = 1:

       Center              X                  Y                   Z               Mass
    ------------   -----------------  -----------------  -----------------  -----------------
         N            0.656850813591     1.790114255965    -0.001173419471    14.003074004430
         C            0.202292813591    -0.412714744035    -0.001143419471    12.000000000000
         C           -0.379932186409     0.884898255965    -0.001172419471    12.000000000000
         C            1.626476813591    -0.248876744035    -0.001148419471    12.000000000000
         C            1.858149813591     1.109103255965    -0.001090419471    12.000000000000
         C           -0.645510186409    -1.536353744035    -0.001170419471    12.000000000000
         C           -1.765410186409     1.088593255965    -0.001179419471    12.000000000000
         C            2.650058813591    -1.339294744035    -0.001083419471    12.000000000000
         C           -2.019965186409    -1.339894744035    -0.001184419471    12.000000000000
         C           -2.574230186409    -0.041261744035    -0.001195419471    12.000000000000
         H            0.556358813591     2.796090255965    -0.001184419471     1.007825032230
         H            2.797540813591     1.649337255965    -0.001079419471     1.007825032230
         H           -0.231335686409    -2.543103244035     0.148841580529     1.007825032230
         H           -2.195193186409     2.088535255965    -0.001198419471     1.007825032230
         H            2.552735813591    -1.980085744035     0.882026580529     1.007825032230
         H            2.552274813591    -1.980607744035    -0.883762419471     1.007825032230
         H            3.661404813591    -0.921668744035    -0.001473419471     1.007825032230
         H           -2.685834186409    -2.199753744035    -0.001204419471     1.007825032230
         H           -3.655281186409     0.077358255965    -0.001214419471     1.007825032230

  Basis Set: AUG-CC-PVTZ
    Blend: AUG-CC-PVTZ
  Basis Set: (AUG-CC-PVTZ AUX)
    Blend: AUG-CC-PVTZ-JKFIT
	 Reference Energy          =    -400.6387712177253775 [Eh]
	 Singles Energy            =      -0.0000000000000000 [Eh]
	 Same-Spin Energy          =      -0.4517888622094718 [Eh]
	 Opposite-Spin Energy      =      -1.4043013209167721 [Eh]
	 Correlation Energy        =      -1.8560901831262440 [Eh]
	 Total Energy              =    -402.4948614008516188 [Eh]

	 ================> DF-SCS-MP2 Energies <==================
	-----------------------------------------------------------
	 SCS Same-Spin Scale       =       0.3333333333333333 [-]
	 SCS Opposite-Spin Scale   =       1.2000000000000000 [-]
	 SCS Same-Spin Energy      =      -0.1505962874031573 [Eh]
	 SCS Opposite-Spin Energy  =      -1.6851615851001265 [Eh]
	 SCS Correlation Energy    =      -1.8357578725032837 [Eh]
	 SCS Total Energy          =    -402.4745290902286570 [Eh]
	-----------------------------------------------------------

  Dipole Moment: [D]
     X:     0.9501      Y:     1.8233      Z:     0.0923     Total:     2.0580

*** Psi4 exiting successfully. Buy a developer a beer!
