                               Psi4 1.3.2 release

  ==> Input File <==

--------------------------------------------------------------------------
#psi4
#
memory 32 gb

molecule  {
0 1
  N        0.6331050     1.8115130    -0.0000210
  C        0.1785470    -0.3913160     0.0000090
  C       -0.4036780     0.9062970    -0.0000200
  C        1.6027310    -0.2274780     0.0000040
  C        1.8344040     1.1305020     0.0000620
  C       -0.6692560    -1.5149550    -0.0000180
  C       -1.7891560     1.1099920    -0.0000270
  C        2.6263130    -1.3178960     0.0000690
  C       -2.0437110    -1.3184960    -0.0000320
  C       -2.5979760    -0.0198630    -0.0000430
  H        0.5326130     2.8174890    -0.0000320
  H        2.7737950     1.6707360     0.0000730
  H       -0.2550790    -2.5217040    -0.0000060
  H       -2.2189390     2.1099340    -0.0000460
  H        2.5289900    -1.9586870     0.8831790
  H        2.5285290    -1.9592090    -0.8826100
  H        3.6376590    -0.9002700    -0.0003210
  H       -2.7095839    -2.1783558     0.2499480
  H       -3.6790270     0.0987570    -0.0000620
units angstrom
no_reorient  #important for SAPT in psi4, default
symmetry c1  #important for SAPT in psi4, default
}

set PROPERTIES_ORIGIN ["COM"]
properties('MP2/aug-cc-pvtz', properties = ['dipole'])
--------------------------------------------------------------------------

    Molecular point group: c1
  Charge       = 0
  Multiplicity = 1
  Basis Set: AUG-CC-PVTZ
    Blend: AUG-CC-PVTZ
  Basis Set: (AUG-CC-PVTZ AUX)
    Blend: AUG-CC-PVTZ-JKFIT

    Orbital Energies [Eh]
    ---------------------

    Doubly Occupied:

       1A    -15.600352     2A    -11.265896     3A    -11.264799
       4A    -11.232061     5A    -11.231298     6A    -11.229886
       7A    -11.223453     8A    -11.223035     9A    -11.222094
      10A    -11.221584    11A     -1.292066    12A     -1.127180
      13A     -1.072448    14A     -0.997065    15A     -0.985707
      16A     -0.931192    17A     -0.838500    18A     -0.803458
      19A     -0.755508    20A     -0.720368    21A     -0.659470
      22A     -0.641608    23A     -0.603792    24A     -0.592902
      25A     -0.591662    26A     -0.569870    27A     -0.551670
      28A     -0.542172    29A     -0.529439    30A     -0.497248
      31A     -0.476146    32A     -0.460268    33A     -0.374858
      34A     -0.298603    35A     -0.277980

  @DF-RHF Final Energy:  -400.63607271361110

   => Energetics <=

    Nuclear Repulsion Energy =            483.1546214113399174
    One-Electron Energy =               -1499.7701126442980240
    Two-Electron Energy =                 615.9794185193469502
    Total Energy =                       -400.6360727136111564
  Basis Set: (AUG-CC-PVTZ AUX)
    Blend: AUG-CC-PVTZ-RI
    Molecular point group: c1

    Geometry (in Angstrom), charge = 0, multiplicity = 1:

       Center              X                  Y                   Z               Mass
    ------------   -----------------  -----------------  -----------------  -----------------
         N            0.656850824356     1.790114258271    -0.001942320155    14.003074004430
         C            0.202292824356    -0.412714741729    -0.001912320155    12.000000000000
         C           -0.379932175644     0.884898258271    -0.001941320155    12.000000000000
         C            1.626476824356    -0.248876741729    -0.001917320155    12.000000000000
         C            1.858149824356     1.109103258271    -0.001859320155    12.000000000000
         C           -0.645510175644    -1.536353741729    -0.001939320155    12.000000000000
         C           -1.765410175644     1.088593258271    -0.001948320155    12.000000000000
         C            2.650058824356    -1.339294741729    -0.001852320155    12.000000000000
         C           -2.019965175644    -1.339894741729    -0.001953320155    12.000000000000
         C           -2.574230175644    -0.041261741729    -0.001964320155    12.000000000000
         H            0.556358824356     2.796090258271    -0.001953320155     1.007825032230
         H            2.797540824356     1.649337258271    -0.001848320155     1.007825032230
         H           -0.231333175644    -2.543102741729    -0.001927320155     1.007825032230
         H           -2.195193175644     2.088535258271    -0.001967320155     1.007825032230
         H            2.552735824356    -1.980085741729     0.881257679845     1.007825032230
         H            2.552274824356    -1.980607741729    -0.884531320155     1.007825032230
         H            3.661404824356    -0.921668741729    -0.002242320155     1.007825032230
         H           -2.685838075644    -2.199754541729     0.248026679845     1.007825032230
         H           -3.655281175644     0.077358258271    -0.001983320155     1.007825032230

  Basis Set: AUG-CC-PVTZ
    Blend: AUG-CC-PVTZ
  Basis Set: (AUG-CC-PVTZ AUX)
    Blend: AUG-CC-PVTZ-JKFIT
	 Reference Energy          =    -400.6360727136110995 [Eh]
	 Singles Energy            =      -0.0000000000000000 [Eh]
	 Same-Spin Energy          =      -0.4518798140280589 [Eh]
	 Opposite-Spin Energy      =      -1.4045579509133161 [Eh]
	 Correlation Energy        =      -1.8564377649413750 [Eh]
	 Total Energy              =    -402.4925104785524468 [Eh]

	 ================> DF-SCS-MP2 Energies <==================
	-----------------------------------------------------------
	 SCS Same-Spin Scale       =       0.3333333333333333 [-]
	 SCS Opposite-Spin Scale   =       1.2000000000000000 [-]
	 SCS Same-Spin Energy      =      -0.1506266046760196 [Eh]
	 SCS Opposite-Spin Energy  =      -1.6854695410959792 [Eh]
	 SCS Correlation Energy    =      -1.8360961457719989 [Eh]
	 SCS Total Energy          =    -402.4721688593830891 [Eh]
	-----------------------------------------------------------

  Dipole Moment: [D]
     X:     1.0050      Y:     1.8539      Z:     0.1583     Total:     2.1147

*** Psi4 exiting successfully. Buy a developer a beer!
