                               Psi4 1.3.2 release

  ==> Input File <==

--------------------------------------------------------------------------
#psi4
#
memory 32 gb

molecule  {
0 1
  N        0.6331050     1.8115130    -0.0000210
  C        0.1785470    -0.3913160     0.0000090
  C       -0.4036780     0.9062970    -0.0000200
  C        1.6027310    -0.2274780     0.0000040
  C        1.8344040     1.1305020     0.0000620
  C       -0.6692560    -1.5149550    -0.0000180
  C       -1.7891560     1.1099920    -0.0000270
  C        2.6263130    -1.3178960     0.0000690
  C       -2.0437110    -1.3184960    -0.0000320
  C       -2.5979760    -0.0198630    -0.0000430
  H        0.5326032     2.8174954     0.2499680
  H        2.7737950     1.6707360     0.0000730
  H       -0.2550790    -2.5217040    -0.0000060
  H       -2.2189390     2.1099340    -0.0000460
  H        2.5289900    -1.9586870     0.8831790
  H        2.5285290    -1.9592090    -0.8826100
  H        3.6376590    -0.9002700    -0.0003210
  H       -2.7095800    -2.1783550    -0.0000520
  H       -3.6790270     0.0987570    -0.0000620
units angstrom
no_reorient  #important for SAPT in psi4, default
symmetry c1  #important for SAPT in psi4, default
}

set PROPERTIES_ORIGIN ["COM"]
properties('MP2/aug-cc-pvtz', properties = ['dipole'])
--------------------------------------------------------------------------

    Molecular point group: c1
  Charge       = 0
  Multiplicity = 1
  Basis Set: AUG-CC-PVTZ
    Blend: AUG-CC-PVTZ
  Basis Set: (AUG-CC-PVTZ AUX)
    Blend: AUG-CC-PVTZ-JKFIT

    Orbital Energies [Eh]
    ---------------------

    Doubly Occupied:

       1A    -15.601146     2A    -11.264911     3A    -11.264048
       4A    -11.231970     5A    -11.230799     6A    -11.229590
       7A    -11.223273     8A    -11.222244     9A    -11.221682
      10A    -11.221439    11A     -1.289773    12A     -1.126576
      13A     -1.071287    14A     -0.996975    15A     -0.985585
      16A     -0.929252    17A     -0.838412    18A     -0.801733
      19A     -0.755021    20A     -0.715222    21A     -0.659776
      22A     -0.644695    23A     -0.604812    24A     -0.596251
      25A     -0.585832    26A     -0.569595    27A     -0.551427
      28A     -0.541161    29A     -0.529579    30A     -0.497841
      31A     -0.476082    32A     -0.462546    33A     -0.374708
      34A     -0.299220    35A     -0.278171

  @DF-RHF Final Energy:  -400.63764345295209

   => Energetics <=

    Nuclear Repulsion Energy =            483.1167855834518718
    One-Electron Energy =               -1499.7235972709668204
    Two-Electron Energy =                 615.9691682345628578
    Total Energy =                       -400.6376434529520338
  Basis Set: (AUG-CC-PVTZ AUX)
    Blend: AUG-CC-PVTZ-RI
    Molecular point group: c1

    Geometry (in Angstrom), charge = 0, multiplicity = 1:

       Center              X                  Y                   Z               Mass
    ------------   -----------------  -----------------  -----------------  -----------------
         N            0.656850869721     1.790114202911    -0.001942320155    14.003074004430
         C            0.202292869721    -0.412714797089    -0.001912320155    12.000000000000
         C           -0.379932130279     0.884898202911    -0.001941320155    12.000000000000
         C            1.626476869721    -0.248876797089    -0.001917320155    12.000000000000
         C            1.858149869721     1.109103202911    -0.001859320155    12.000000000000
         C           -0.645510130279    -1.536353797089    -0.001939320155    12.000000000000
         C           -1.765410130279     1.088593202911    -0.001948320155    12.000000000000
         C            2.650058869721    -1.339294797089    -0.001852320155    12.000000000000
         C           -2.019965130279    -1.339894797089    -0.001953320155    12.000000000000
         C           -2.574230130279    -0.041261797089    -0.001964320155    12.000000000000
         H            0.556349069721     2.796096602911     0.248046679845     1.007825032230
         H            2.797540869721     1.649337202911    -0.001848320155     1.007825032230
         H           -0.231333130279    -2.543102797089    -0.001927320155     1.007825032230
         H           -2.195193130279     2.088535202911    -0.001967320155     1.007825032230
         H            2.552735869721    -1.980085797089     0.881257679845     1.007825032230
         H            2.552274869721    -1.980607797089    -0.884531320155     1.007825032230
         H            3.661404869721    -0.921668797089    -0.002242320155     1.007825032230
         H           -2.685834130279    -2.199753797089    -0.001973320155     1.007825032230
         H           -3.655281130279     0.077358202911    -0.001983320155     1.007825032230

  Basis Set: AUG-CC-PVTZ
    Blend: AUG-CC-PVTZ
  Basis Set: (AUG-CC-PVTZ AUX)
    Blend: AUG-CC-PVTZ-JKFIT
	 Reference Energy          =    -400.6376434529520907 [Eh]
	 Singles Energy            =      -0.0000000000000000 [Eh]
	 Same-Spin Energy          =      -0.4518489840623158 [Eh]
	 Opposite-Spin Energy      =      -1.4045996983493447 [Eh]
	 Correlation Energy        =      -1.8564486824116604 [Eh]
	 Total Energy              =    -402.4940921353637577 [Eh]

	 ================> DF-SCS-MP2 Energies <==================
	-----------------------------------------------------------
	 SCS Same-Spin Scale       =       0.3333333333333333 [-]
	 SCS Opposite-Spin Scale   =       1.2000000000000000 [-]
	 SCS Same-Spin Energy      =      -0.1506163280207719 [Eh]
	 SCS Opposite-Spin Energy  =      -1.6855196380192137 [Eh]
	 SCS Correlation Energy    =      -1.8361359660399856 [Eh]
	 SCS Total Energy          =    -402.4737794189920805 [Eh]
	-----------------------------------------------------------

  Dipole Moment: [D]
     X:     0.9480      Y:     1.7407      Z:     0.3499     Total:     2.0128

*** Psi4 exiting successfully. Buy a developer a beer!
