                               Psi4 1.3.2 release

  ==> Input File <==

--------------------------------------------------------------------------
#psi4
#
memory 32 gb

molecule  {
0 1
  N        0.6331050     1.8115130    -0.0000210
  C        0.1785470    -0.3913160     0.0000090
  C       -0.4036780     0.9062970    -0.0000200
  C        1.6027310    -0.2274780     0.0000040
  C        1.8344040     1.1305020     0.0000620
  C       -0.6692560    -1.5149550    -0.0000180
  C       -1.7891560     1.1099920    -0.0000270
  C        2.6263130    -1.3178960     0.0000690
  C       -2.0437110    -1.3184960    -0.0000320
  C       -2.5979760    -0.0198630    -0.0000430
  H        0.5326130     2.8174890    -0.0000320
  H        2.7737928     1.6707356     0.0500730
  H       -0.2550790    -2.5217040    -0.0000060
  H       -2.2189390     2.1099340    -0.0000460
  H        2.5289900    -1.9586870     0.8831790
  H        2.5285290    -1.9592090    -0.8826100
  H        3.6376590    -0.9002700    -0.0003210
  H       -2.7095800    -2.1783550    -0.0000520
  H       -3.6790270     0.0987570    -0.0000620
units angstrom
no_reorient  #important for SAPT in psi4, default
symmetry c1  #important for SAPT in psi4, default
}

set PROPERTIES_ORIGIN ["COM"]
properties('MP2/aug-cc-pvtz', properties = ['dipole'])
--------------------------------------------------------------------------

    Molecular point group: c1
  Charge       = 0
  Multiplicity = 1
  Basis Set: AUG-CC-PVTZ
    Blend: AUG-CC-PVTZ
  Basis Set: (AUG-CC-PVTZ AUX)
    Blend: AUG-CC-PVTZ-JKFIT

    Orbital Energies [Eh]
    ---------------------

    Doubly Occupied:

       1A    -15.599915     2A    -11.265294     3A    -11.264622
       4A    -11.231853     5A    -11.230665     6A    -11.229464
       7A    -11.222749     8A    -11.221834     9A    -11.221357
      10A    -11.221062    11A     -1.291660    12A     -1.127023
      13A     -1.072159    14A     -0.997327    15A     -0.985726
      16A     -0.930911    17A     -0.838925    18A     -0.803939
      19A     -0.755799    20A     -0.720028    21A     -0.659907
      22A     -0.644525    23A     -0.603538    24A     -0.592740
      25A     -0.591995    26A     -0.569516    27A     -0.551354
      28A     -0.542331    29A     -0.529673    30A     -0.497656
      31A     -0.475795    32A     -0.463058    33A     -0.374553
      34A     -0.298680    35A     -0.277713

  @DF-RHF Final Energy:  -400.64005753767719

   => Energetics <=

    Nuclear Repulsion Energy =            483.2563991061570619
    One-Electron Energy =               -1499.9822217268470013
    Two-Electron Energy =                 616.0857650830128023
    Total Energy =                       -400.6400575376771940
  Basis Set: (AUG-CC-PVTZ AUX)
    Blend: AUG-CC-PVTZ-RI
    Molecular point group: c1

    Geometry (in Angstrom), charge = 0, multiplicity = 1:

       Center              X                  Y                   Z               Mass
    ------------   -----------------  -----------------  -----------------  -----------------
         N            0.656850811285     1.790114255196    -0.000404518788    14.003074004430
         C            0.202292811285    -0.412714744804    -0.000374518788    12.000000000000
         C           -0.379932188715     0.884898255196    -0.000403518788    12.000000000000
         C            1.626476811285    -0.248876744804    -0.000379518788    12.000000000000
         C            1.858149811285     1.109103255196    -0.000321518788    12.000000000000
         C           -0.645510188715    -1.536353744804    -0.000401518788    12.000000000000
         C           -1.765410188715     1.088593255196    -0.000410518788    12.000000000000
         C            2.650058811285    -1.339294744804    -0.000314518788    12.000000000000
         C           -2.019965188715    -1.339894744804    -0.000415518788    12.000000000000
         C           -2.574230188715    -0.041261744804    -0.000426518788    12.000000000000
         H            0.556358811285     2.796090255196    -0.000415518788     1.007825032230
         H            2.797538611285     1.649336855196     0.049689481212     1.007825032230
         H           -0.231333188715    -2.543102744804    -0.000389518788     1.007825032230
         H           -2.195193188715     2.088535255196    -0.000429518788     1.007825032230
         H            2.552735811285    -1.980085744804     0.882795481212     1.007825032230
         H            2.552274811285    -1.980607744804    -0.882993518788     1.007825032230
         H            3.661404811285    -0.921668744804    -0.000704518788     1.007825032230
         H           -2.685834188715    -2.199753744804    -0.000435518788     1.007825032230
         H           -3.655281188715     0.077358255196    -0.000445518788     1.007825032230

  Basis Set: AUG-CC-PVTZ
    Blend: AUG-CC-PVTZ
  Basis Set: (AUG-CC-PVTZ AUX)
    Blend: AUG-CC-PVTZ-JKFIT
	 Reference Energy          =    -400.6400575376771940 [Eh]
	 Singles Energy            =      -0.0000000000000000 [Eh]
	 Same-Spin Energy          =      -0.4517020984802635 [Eh]
	 Opposite-Spin Energy      =      -1.4041480155302304 [Eh]
	 Correlation Energy        =      -1.8558501140104939 [Eh]
	 Total Energy              =    -402.4959076516876735 [Eh]

	 ================> DF-SCS-MP2 Energies <==================
	-----------------------------------------------------------
	 SCS Same-Spin Scale       =       0.3333333333333333 [-]
	 SCS Opposite-Spin Scale   =       1.2000000000000000 [-]
	 SCS Same-Spin Energy      =      -0.1505673661600878 [Eh]
	 SCS Opposite-Spin Energy  =      -1.6849776186362764 [Eh]
	 SCS Correlation Energy    =      -1.8355449847963641 [Eh]
	 SCS Total Energy          =    -402.4756025224735367 [Eh]
	-----------------------------------------------------------

  Dipole Moment: [D]
     X:     0.9548      Y:     1.8032      Z:     0.0398     Total:     2.0408

*** Psi4 exiting successfully. Buy a developer a beer!
