                               Psi4 1.3.2 release

  ==> Input File <==

--------------------------------------------------------------------------
#psi4
#
memory 32 gb

molecule  {
0 1
  N        0.6331050     1.8115130    -0.0000210
  C        0.1785470    -0.3913160     0.0000090
  C       -0.4036780     0.9062970    -0.0000200
  C        1.6027310    -0.2274780     0.0000040
  C        1.8344040     1.1305020     0.0000620
  C       -0.6692560    -1.5149550    -0.0000180
  C       -1.7891560     1.1099920    -0.0000270
  C        2.6263130    -1.3178960     0.0000690
  C       -2.0437110    -1.3184960    -0.0000320
  C       -2.5979760    -0.0198630    -0.0000430
  H        0.5326130     2.8174890    -0.0000320
  H        2.7737950     1.6707360     0.0000730
  H       -0.2550790    -2.5217040    -0.0000060
  H       -2.2189390     2.1099340    -0.0000460
  H        2.5289900    -1.9586870     0.8831790
  H        2.5285290    -1.9592090    -0.8826100
  H        3.6376590    -0.9002700    -0.0003210
  H       -2.7095831    -2.1783557     0.1999480
  H       -3.6790270     0.0987570    -0.0000620
units angstrom
no_reorient  #important for SAPT in psi4, default
symmetry c1  #important for SAPT in psi4, default
}

set PROPERTIES_ORIGIN ["COM"]
properties('MP2/aug-cc-pvtz', properties = ['dipole'])
--------------------------------------------------------------------------

    Molecular point group: c1
  Charge       = 0
  Multiplicity = 1
  Basis Set: AUG-CC-PVTZ
    Blend: AUG-CC-PVTZ
  Basis Set: (AUG-CC-PVTZ AUX)
    Blend: AUG-CC-PVTZ-JKFIT

    Orbital Energies [Eh]
    ---------------------

    Doubly Occupied:

       1A    -15.600200     2A    -11.265672     3A    -11.264709
       4A    -11.231980     5A    -11.231061     6A    -11.229724
       7A    -11.222924     8A    -11.222598     9A    -11.221991
      10A    -11.221497    11A     -1.291922    12A     -1.127115
      13A     -1.072339    14A     -0.997142    15A     -0.985717
      16A     -0.931094    17A     -0.838658    18A     -0.803623
      19A     -0.755614    20A     -0.720255    21A     -0.659601
      22A     -0.642674    23A     -0.603695    24A     -0.592825
      25A     -0.591775    26A     -0.569805    27A     -0.551561
      28A     -0.542219    29A     -0.529530    30A     -0.497413
      31A     -0.476015    32A     -0.461263    33A     -0.374744
      34A     -0.298624    35A     -0.277878

  @DF-RHF Final Energy:  -400.63762908447603

   => Energetics <=

    Nuclear Repulsion Energy =            483.1921830846637249
    One-Electron Energy =               -1499.8487109355783105
    Two-Electron Energy =                 616.0188987664386104
    Total Energy =                       -400.6376290844759751
  Basis Set: (AUG-CC-PVTZ AUX)
    Blend: AUG-CC-PVTZ-RI
    Molecular point group: c1

    Geometry (in Angstrom), charge = 0, multiplicity = 1:

       Center              X                  Y                   Z               Mass
    ------------   -----------------  -----------------  -----------------  -----------------
         N            0.656850818205     1.790114257502    -0.001557869813    14.003074004430
         C            0.202292818205    -0.412714742498    -0.001527869813    12.000000000000
         C           -0.379932181795     0.884898257502    -0.001556869813    12.000000000000
         C            1.626476818205    -0.248876742498    -0.001532869813    12.000000000000
         C            1.858149818205     1.109103257502    -0.001474869813    12.000000000000
         C           -0.645510181795    -1.536353742498    -0.001554869813    12.000000000000
         C           -1.765410181795     1.088593257502    -0.001563869813    12.000000000000
         C            2.650058818205    -1.339294742498    -0.001467869813    12.000000000000
         C           -2.019965181795    -1.339894742498    -0.001568869813    12.000000000000
         C           -2.574230181795    -0.041261742498    -0.001579869813    12.000000000000
         H            0.556358818205     2.796090257502    -0.001568869813     1.007825032230
         H            2.797540818205     1.649337257502    -0.001463869813     1.007825032230
         H           -0.231333181795    -2.543102742498    -0.001542869813     1.007825032230
         H           -2.195193181795     2.088535257502    -0.001582869813     1.007825032230
         H            2.552735818205    -1.980085742498     0.881642130187     1.007825032230
         H            2.552274818205    -1.980607742498    -0.884146869813     1.007825032230
         H            3.661404818205    -0.921668742498    -0.001857869813     1.007825032230
         H           -2.685837281795    -2.199754442498     0.198411130187     1.007825032230
         H           -3.655281181795     0.077358257502    -0.001598869813     1.007825032230

  Basis Set: AUG-CC-PVTZ
    Blend: AUG-CC-PVTZ
  Basis Set: (AUG-CC-PVTZ AUX)
    Blend: AUG-CC-PVTZ-JKFIT
	 Reference Energy          =    -400.6376290844760319 [Eh]
	 Singles Energy            =      -0.0000000000000000 [Eh]
	 Same-Spin Energy          =      -0.4518130452870160 [Eh]
	 Opposite-Spin Energy      =      -1.4043806618967349 [Eh]
	 Correlation Energy        =      -1.8561937071837509 [Eh]
	 Total Energy              =    -402.4938227916597953 [Eh]

	 ================> DF-SCS-MP2 Energies <==================
	-----------------------------------------------------------
	 SCS Same-Spin Scale       =       0.3333333333333333 [-]
	 SCS Opposite-Spin Scale   =       1.2000000000000000 [-]
	 SCS Same-Spin Energy      =      -0.1506043484290053 [Eh]
	 SCS Opposite-Spin Energy  =      -1.6852567942760819 [Eh]
	 SCS Correlation Energy    =      -1.8358611427050873 [Eh]
	 SCS Total Energy          =    -402.4734902271811166 [Eh]
	-----------------------------------------------------------

  Dipole Moment: [D]
     X:     0.9881      Y:     1.8365      Z:     0.1277     Total:     2.0893

*** Psi4 exiting successfully. Buy a developer a beer!
