                               Psi4 1.3.2 release

  ==> Input File <==

--------------------------------------------------------------------------
#psi4
#
memory 32 gb

molecule  {
0 1
  N        0.6331050     1.8115130    -0.0000210
  C        0.1785470    -0.3913160     0.0000090
  C       -0.4036780     0.9062970    -0.0000200
  C        1.6027310    -0.2274780     0.0000040
  C        1.8344040     1.1305020     0.0000620
  C       -0.6692560    -1.5149550    -0.0000180
  C       -1.7891560     1.1099920    -0.0000270
  C        2.6263130    -1.3178960     0.0000690
  C       -2.0437110    -1.3184960    -0.0000320
  C       -2.5979760    -0.0198630    -0.0000430
  H        0.5326130     2.8174890    -0.0000320
  H        2.7737950     1.6707360     0.0000730
  H       -0.2550824    -2.5217047     0.1999940
  H       -2.2189390     2.1099340    -0.0000460
  H        2.5289900    -1.9586870     0.8831790
  H        2.5285290    -1.9592090    -0.8826100
  H        3.6376590    -0.9002700    -0.0003210
  H       -2.7095800    -2.1783550    -0.0000520
  H       -3.6790270     0.0987570    -0.0000620
units angstrom
no_reorient  #important for SAPT in psi4, default
symmetry c1  #important for SAPT in psi4, default
}

set PROPERTIES_ORIGIN ["COM"]
properties('MP2/aug-cc-pvtz', properties = ['dipole'])
--------------------------------------------------------------------------

    Molecular point group: c1
  Charge       = 0
  Multiplicity = 1
  Basis Set: AUG-CC-PVTZ
    Blend: AUG-CC-PVTZ
  Basis Set: (AUG-CC-PVTZ AUX)
    Blend: AUG-CC-PVTZ-JKFIT

    Orbital Energies [Eh]
    ---------------------

    Doubly Occupied:

       1A    -15.600057     2A    -11.265393     3A    -11.264706
       4A    -11.232249     5A    -11.232167     6A    -11.229602
       7A    -11.222836     8A    -11.221933     9A    -11.221457
      10A    -11.221285    11A     -1.291793    12A     -1.127094
      13A     -1.072197    14A     -0.997027    15A     -0.985842
      16A     -0.930813    17A     -0.838523    18A     -0.804087
      19A     -0.755483    20A     -0.718929    21A     -0.659566
      22A     -0.644724    23A     -0.602964    24A     -0.593238
      25A     -0.589868    26A     -0.569631    27A     -0.551324
      28A     -0.542193    29A     -0.529620    30A     -0.497665
      31A     -0.476869    32A     -0.460900    33A     -0.374323
      34A     -0.298800    35A     -0.277756

  @DF-RHF Final Energy:  -400.63760510822192

   => Energetics <=

    Nuclear Repulsion Energy =            483.1882806645301685
    One-Electron Energy =               -1499.8459453619518627
    Two-Electron Energy =                 616.0200595891998319
    Total Energy =                       -400.6376051082219192
  Basis Set: (AUG-CC-PVTZ AUX)
    Blend: AUG-CC-PVTZ-RI
    Molecular point group: c1

    Geometry (in Angstrom), charge = 0, multiplicity = 1:

       Center              X                  Y                   Z               Mass
    ------------   -----------------  -----------------  -----------------  -----------------
         N            0.656850820511     1.790114257502    -0.001557869813    14.003074004430
         C            0.202292820511    -0.412714742498    -0.001527869813    12.000000000000
         C           -0.379932179489     0.884898257502    -0.001556869813    12.000000000000
         C            1.626476820511    -0.248876742498    -0.001532869813    12.000000000000
         C            1.858149820511     1.109103257502    -0.001474869813    12.000000000000
         C           -0.645510179489    -1.536353742498    -0.001554869813    12.000000000000
         C           -1.765410179489     1.088593257502    -0.001563869813    12.000000000000
         C            2.650058820511    -1.339294742498    -0.001467869813    12.000000000000
         C           -2.019965179489    -1.339894742498    -0.001568869813    12.000000000000
         C           -2.574230179489    -0.041261742498    -0.001579869813    12.000000000000
         H            0.556358820511     2.796090257502    -0.001568869813     1.007825032230
         H            2.797540820511     1.649337257502    -0.001463869813     1.007825032230
         H           -0.231336579489    -2.543103442498     0.198457130187     1.007825032230
         H           -2.195193179489     2.088535257502    -0.001582869813     1.007825032230
         H            2.552735820511    -1.980085742498     0.881642130187     1.007825032230
         H            2.552274820511    -1.980607742498    -0.884146869813     1.007825032230
         H            3.661404820511    -0.921668742498    -0.001857869813     1.007825032230
         H           -2.685834179489    -2.199753742498    -0.001588869813     1.007825032230
         H           -3.655281179489     0.077358257502    -0.001598869813     1.007825032230

  Basis Set: AUG-CC-PVTZ
    Blend: AUG-CC-PVTZ
  Basis Set: (AUG-CC-PVTZ AUX)
    Blend: AUG-CC-PVTZ-JKFIT
	 Reference Energy          =    -400.6376051082219192 [Eh]
	 Singles Energy            =      -0.0000000000000000 [Eh]
	 Same-Spin Energy          =      -0.4518631480934190 [Eh]
	 Opposite-Spin Energy      =      -1.4044553241023716 [Eh]
	 Correlation Energy        =      -1.8563184721957906 [Eh]
	 Total Energy              =    -402.4939235804176860 [Eh]

	 ================> DF-SCS-MP2 Energies <==================
	-----------------------------------------------------------
	 SCS Same-Spin Scale       =       0.3333333333333333 [-]
	 SCS Opposite-Spin Scale   =       1.2000000000000000 [-]
	 SCS Same-Spin Energy      =      -0.1506210493644730 [Eh]
	 SCS Opposite-Spin Energy  =      -1.6853463889228459 [Eh]
	 SCS Correlation Energy    =      -1.8359674382873190 [Eh]
	 SCS Total Energy          =    -402.4735725465092173 [Eh]
	-----------------------------------------------------------

  Dipole Moment: [D]
     X:     0.9446      Y:     1.8373      Z:     0.1222     Total:     2.0695

*** Psi4 exiting successfully. Buy a developer a beer!
