                               Psi4 1.3.2 release

  ==> Input File <==

--------------------------------------------------------------------------
#psi4
#
memory 32 gb

molecule  {
0 1
  N        0.6331050     1.8115130    -0.0000210
  C        0.1785470    -0.3913160     0.0000090
  C       -0.4036780     0.9062970    -0.0000200
  C        1.6027310    -0.2274780     0.0000040
  C        1.8344040     1.1305020     0.0000620
  C       -0.6692560    -1.5149550    -0.0000180
  C       -1.7891560     1.1099920    -0.0000270
  C        2.6263130    -1.3178960     0.0000690
  C       -2.0437110    -1.3184960    -0.0000320
  C       -2.5979760    -0.0198630    -0.0000430
  H        0.5326130     2.8174890    -0.0000320
  H        2.7737950     1.6707360     0.0000730
  H       -0.2550790    -2.5217040    -0.0000060
  H       -2.2189390     2.1099340    -0.0000460
  H        2.5289900    -1.9586870     0.8831790
  H        2.5285290    -1.9592090    -0.8826100
  H        3.6376667    -0.9002944     0.2496790
  H       -2.7095800    -2.1783550    -0.0000520
  H       -3.6790270     0.0987570    -0.0000620
units angstrom
no_reorient  #important for SAPT in psi4, default
symmetry c1  #important for SAPT in psi4, default
}

set PROPERTIES_ORIGIN ["COM"]
properties('MP2/aug-cc-pvtz', properties = ['dipole'])
--------------------------------------------------------------------------

    Molecular point group: c1
  Charge       = 0
  Multiplicity = 1
  Basis Set: AUG-CC-PVTZ
    Blend: AUG-CC-PVTZ
  Basis Set: (AUG-CC-PVTZ AUX)
    Blend: AUG-CC-PVTZ-JKFIT

    Orbital Energies [Eh]
    ---------------------

    Doubly Occupied:

       1A    -15.600001     2A    -11.265300     3A    -11.264615
       4A    -11.231883     5A    -11.230658     6A    -11.229463
       7A    -11.225073     8A    -11.222710     9A    -11.221725
      10A    -11.221093    11A     -1.291729    12A     -1.127050
      13A     -1.072015    14A     -0.997240    15A     -0.985470
      16A     -0.930133    17A     -0.839014    18A     -0.803851
      19A     -0.755518    20A     -0.720088    21A     -0.659893
      22A     -0.644612    23A     -0.605350    24A     -0.594048
      25A     -0.592095    26A     -0.570566    27A     -0.552851
      28A     -0.542723    29A     -0.521410    30A     -0.494533
      31A     -0.473250    32A     -0.463103    33A     -0.374613
      34A     -0.298719    35A     -0.277792

  @DF-RHF Final Energy:  -400.63390841667848

   => Energetics <=

    Nuclear Repulsion Energy =            483.1626572812604081
    One-Electron Energy =               -1499.7927576663105356
    Two-Electron Energy =                 615.9961919683717042
    Total Energy =                       -400.6339084166784232
  Basis Set: (AUG-CC-PVTZ AUX)
    Blend: AUG-CC-PVTZ-RI
    Molecular point group: c1

    Geometry (in Angstrom), charge = 0, multiplicity = 1:

       Center              X                  Y                   Z               Mass
    ------------   -----------------  -----------------  -----------------  -----------------
         N            0.656850735163     1.790114439732    -0.001942320155    14.003074004430
         C            0.202292735163    -0.412714560268    -0.001912320155    12.000000000000
         C           -0.379932264837     0.884898439732    -0.001941320155    12.000000000000
         C            1.626476735163    -0.248876560268    -0.001917320155    12.000000000000
         C            1.858149735163     1.109103439732    -0.001859320155    12.000000000000
         C           -0.645510264837    -1.536353560268    -0.001939320155    12.000000000000
         C           -1.765410264837     1.088593439732    -0.001948320155    12.000000000000
         C            2.650058735163    -1.339294560268    -0.001852320155    12.000000000000
         C           -2.019965264837    -1.339894560268    -0.001953320155    12.000000000000
         C           -2.574230264837    -0.041261560268    -0.001964320155    12.000000000000
         H            0.556358735163     2.796090439732    -0.001953320155     1.007825032230
         H            2.797540735163     1.649337439732    -0.001848320155     1.007825032230
         H           -0.231333264837    -2.543102560268    -0.001927320155     1.007825032230
         H           -2.195193264837     2.088535439732    -0.001967320155     1.007825032230
         H            2.552735735163    -1.980085560268     0.881257679845     1.007825032230
         H            2.552274735163    -1.980607560268    -0.884531320155     1.007825032230
         H            3.661412435163    -0.921692960268     0.247757679845     1.007825032230
         H           -2.685834264837    -2.199753560268    -0.001973320155     1.007825032230
         H           -3.655281264837     0.077358439732    -0.001983320155     1.007825032230

  Basis Set: AUG-CC-PVTZ
    Blend: AUG-CC-PVTZ
  Basis Set: (AUG-CC-PVTZ AUX)
    Blend: AUG-CC-PVTZ-JKFIT
	 Reference Energy          =    -400.6339084166784801 [Eh]
	 Singles Energy            =      -0.0000000000000000 [Eh]
	 Same-Spin Energy          =      -0.4519661690511858 [Eh]
	 Opposite-Spin Energy      =      -1.4046488961050536 [Eh]
	 Correlation Energy        =      -1.8566150651562394 [Eh]
	 Total Energy              =    -402.4905234818347139 [Eh]

	 ================> DF-SCS-MP2 Energies <==================
	-----------------------------------------------------------
	 SCS Same-Spin Scale       =       0.3333333333333333 [-]
	 SCS Opposite-Spin Scale   =       1.2000000000000000 [-]
	 SCS Same-Spin Energy      =      -0.1506553896837286 [Eh]
	 SCS Opposite-Spin Energy  =      -1.6855786753260642 [Eh]
	 SCS Correlation Energy    =      -1.8362340650097928 [Eh]
	 SCS Total Energy          =    -402.4701424816882991 [Eh]
	-----------------------------------------------------------

  Dipole Moment: [D]
     X:     0.9314      Y:     1.7926      Z:     0.0876     Total:     2.0220

*** Psi4 exiting successfully. Buy a developer a beer!
