                               Psi4 1.3.2 release

  ==> Input File <==

--------------------------------------------------------------------------
#psi4
#
memory 32 gb

molecule  {
0 1
  N        0.6331050     1.8115130    -0.0000210
  C        0.1785470    -0.3913160     0.0000090
  C       -0.4036780     0.9062970    -0.0000200
  C        1.6027310    -0.2274780     0.0000040
  C        1.8344040     1.1305020     0.0000620
  C       -0.6692560    -1.5149550    -0.0000180
  C       -1.7891560     1.1099920    -0.0000270
  C        2.6263130    -1.3178960     0.0000690
  C       -2.0437110    -1.3184960    -0.0000320
  C       -2.5979760    -0.0198630    -0.0000430
  H        0.5326130     2.8174890    -0.0000320
  H        2.7737950     1.6707360     0.0000730
  H       -0.2550807    -2.5217044     0.0999940
  H       -2.2189390     2.1099340    -0.0000460
  H        2.5289900    -1.9586870     0.8831790
  H        2.5285290    -1.9592090    -0.8826100
  H        3.6376590    -0.9002700    -0.0003210
  H       -2.7095800    -2.1783550    -0.0000520
  H       -3.6790270     0.0987570    -0.0000620
units angstrom
no_reorient  #important for SAPT in psi4, default
symmetry c1  #important for SAPT in psi4, default
}

set PROPERTIES_ORIGIN ["COM"]
properties('MP2/aug-cc-pvtz', properties = ['dipole'])
--------------------------------------------------------------------------

    Molecular point group: c1
  Charge       = 0
  Multiplicity = 1
  Basis Set: AUG-CC-PVTZ
    Blend: AUG-CC-PVTZ
  Basis Set: (AUG-CC-PVTZ AUX)
    Blend: AUG-CC-PVTZ-JKFIT

    Orbital Energies [Eh]
    ---------------------

    Doubly Occupied:

       1A    -15.599960     2A    -11.265301     3A    -11.264589
       4A    -11.231944     5A    -11.231026     6A    -11.229481
       7A    -11.222744     8A    -11.221844     9A    -11.221329
      10A    -11.221150    11A     -1.291696    12A     -1.127029
      13A     -1.072159    14A     -0.997238    15A     -0.985763
      16A     -0.930891    17A     -0.838864    18A     -0.803983
      19A     -0.755735    20A     -0.719764    21A     -0.659852
      22A     -0.644630    23A     -0.603368    24A     -0.592974
      25A     -0.591310    26A     -0.569679    27A     -0.551352
      28A     -0.542289    29A     -0.529668    30A     -0.497656
      31A     -0.476089    32A     -0.462488    33A     -0.374487
      34A     -0.298704    35A     -0.277712

  @DF-RHF Final Energy:  -400.63957211689279

   => Energetics <=

    Nuclear Repulsion Energy =            483.2425251957653245
    One-Electron Energy =               -1499.9547008803531298
    Two-Electron Energy =                 616.0726035676949550
    Total Energy =                       -400.6395721168928503
  Basis Set: (AUG-CC-PVTZ AUX)
    Blend: AUG-CC-PVTZ-RI
    Molecular point group: c1

    Geometry (in Angstrom), charge = 0, multiplicity = 1:

       Center              X                  Y                   Z               Mass
    ------------   -----------------  -----------------  -----------------  -----------------
         N            0.656850807440     1.790114255196    -0.000788969129    14.003074004430
         C            0.202292807440    -0.412714744804    -0.000758969129    12.000000000000
         C           -0.379932192560     0.884898255196    -0.000787969129    12.000000000000
         C            1.626476807440    -0.248876744804    -0.000763969129    12.000000000000
         C            1.858149807440     1.109103255196    -0.000705969129    12.000000000000
         C           -0.645510192560    -1.536353744804    -0.000785969129    12.000000000000
         C           -1.765410192560     1.088593255196    -0.000794969129    12.000000000000
         C            2.650058807440    -1.339294744804    -0.000698969129    12.000000000000
         C           -2.019965192560    -1.339894744804    -0.000799969129    12.000000000000
         C           -2.574230192560    -0.041261744804    -0.000810969129    12.000000000000
         H            0.556358807440     2.796090255196    -0.000799969129     1.007825032230
         H            2.797540807440     1.649337255196    -0.000694969129     1.007825032230
         H           -0.231334892560    -2.543103144804     0.099226030871     1.007825032230
         H           -2.195193192560     2.088535255196    -0.000813969129     1.007825032230
         H            2.552735807440    -1.980085744804     0.882411030871     1.007825032230
         H            2.552274807440    -1.980607744804    -0.883377969129     1.007825032230
         H            3.661404807440    -0.921668744804    -0.001088969129     1.007825032230
         H           -2.685834192560    -2.199753744804    -0.000819969129     1.007825032230
         H           -3.655281192560     0.077358255196    -0.000829969129     1.007825032230

  Basis Set: AUG-CC-PVTZ
    Blend: AUG-CC-PVTZ
  Basis Set: (AUG-CC-PVTZ AUX)
    Blend: AUG-CC-PVTZ-JKFIT
	 Reference Energy          =    -400.6395721168927935 [Eh]
	 Singles Energy            =      -0.0000000000000000 [Eh]
	 Same-Spin Energy          =      -0.4517351792286250 [Eh]
	 Opposite-Spin Energy      =      -1.4041991716910243 [Eh]
	 Correlation Energy        =      -1.8559343509196493 [Eh]
	 Total Energy              =    -402.4955064678124472 [Eh]

	 ================> DF-SCS-MP2 Energies <==================
	-----------------------------------------------------------
	 SCS Same-Spin Scale       =       0.3333333333333333 [-]
	 SCS Opposite-Spin Scale   =       1.2000000000000000 [-]
	 SCS Same-Spin Energy      =      -0.1505783930762083 [Eh]
	 SCS Opposite-Spin Energy  =      -1.6850390060292291 [Eh]
	 SCS Correlation Energy    =      -1.8356173991054374 [Eh]
	 SCS Total Energy          =    -402.4751895159982382 [Eh]
	-----------------------------------------------------------

  Dipole Moment: [D]
     X:     0.9541      Y:     1.8132      Z:     0.0618     Total:     2.0498

*** Psi4 exiting successfully. Buy a developer a beer!
