                               Psi4 1.3.2 release

  ==> Input File <==

--------------------------------------------------------------------------
#psi4
#
memory 32 gb

molecule  {
0 1
  N        0.6331050     1.8115130    -0.0000210
  C        0.1785470    -0.3913160     0.0000090
  C       -0.4036780     0.9062970    -0.0000200
  C        1.6027310    -0.2274780     0.0000040
  C        1.8344040     1.1305020     0.0000620
  C       -0.6692560    -1.5149550    -0.0000180
  C       -1.7891560     1.1099920    -0.0000270
  C        2.6263130    -1.3178960     0.0000690
  C       -2.0437110    -1.3184960    -0.0000320
  C       -2.5979760    -0.0198630    -0.0000430
  H        0.5326130     2.8174890    -0.0000320
  H        2.7737950     1.6707360     0.0000730
  H       -0.2550790    -2.5217040    -0.0000060
  H       -2.2189390     2.1099340    -0.0000460
  H        2.5289900    -1.9586870     0.8831790
  H        2.5285290    -1.9592090    -0.8826100
  H        3.6376590    -0.9002700    -0.0003210
  H       -2.7095800    -2.1783550    -0.0000520
  H       -3.6790224     0.0987570    -0.2500620
units angstrom
no_reorient  #important for SAPT in psi4, default
symmetry c1  #important for SAPT in psi4, default
}

set PROPERTIES_ORIGIN ["COM"]
properties('MP2/aug-cc-pvtz', properties = ['dipole'])
--------------------------------------------------------------------------

    Molecular point group: c1
  Charge       = 0
  Multiplicity = 1
  Basis Set: AUG-CC-PVTZ
    Blend: AUG-CC-PVTZ
  Basis Set: (AUG-CC-PVTZ AUX)
    Blend: AUG-CC-PVTZ-JKFIT

    Orbital Energies [Eh]
    ---------------------

    Doubly Occupied:

       1A    -15.600233     2A    -11.265489     3A    -11.265042
       4A    -11.232756     5A    -11.231483     6A    -11.230766
       7A    -11.223125     8A    -11.222234     9A    -11.221608
      10A    -11.221482    11A     -1.291995    12A     -1.127123
      13A     -1.072362    14A     -0.997570    15A     -0.985263
      16A     -0.931043    17A     -0.838849    18A     -0.802654
      19A     -0.756153    20A     -0.719689    21A     -0.658512
      22A     -0.643340    23A     -0.603431    24A     -0.593013
      25A     -0.592055    26A     -0.569810    27A     -0.551760
      28A     -0.542134    29A     -0.527501    30A     -0.497896
      31A     -0.476796    32A     -0.460330    33A     -0.374510
      34A     -0.298845    35A     -0.277844

  @DF-RHF Final Energy:  -400.63602323940921

   => Energetics <=

    Nuclear Repulsion Energy =            483.1548762012542966
    One-Electron Energy =               -1499.7724058702804086
    Two-Electron Energy =                 615.9815064296169567
    Total Energy =                       -400.6360232394091554
  Basis Set: (AUG-CC-PVTZ AUX)
    Blend: AUG-CC-PVTZ-RI
    Molecular point group: c1

    Geometry (in Angstrom), charge = 0, multiplicity = 1:

       Center              X                  Y                   Z               Mass
    ------------   -----------------  -----------------  -----------------  -----------------
         N            0.656850758999     1.790114252120     0.001902183264    14.003074004430
         C            0.202292758999    -0.412714747880     0.001932183264    12.000000000000
         C           -0.379932241001     0.884898252120     0.001903183264    12.000000000000
         C            1.626476758999    -0.248876747880     0.001927183264    12.000000000000
         C            1.858149758999     1.109103252120     0.001985183264    12.000000000000
         C           -0.645510241001    -1.536353747880     0.001905183264    12.000000000000
         C           -1.765410241001     1.088593252120     0.001896183264    12.000000000000
         C            2.650058758999    -1.339294747880     0.001992183264    12.000000000000
         C           -2.019965241001    -1.339894747880     0.001891183264    12.000000000000
         C           -2.574230241001    -0.041261747880     0.001880183264    12.000000000000
         H            0.556358758999     2.796090252120     0.001891183264     1.007825032230
         H            2.797540758999     1.649337252120     0.001996183264     1.007825032230
         H           -0.231333241001    -2.543102747880     0.001917183264     1.007825032230
         H           -2.195193241001     2.088535252120     0.001877183264     1.007825032230
         H            2.552735758999    -1.980085747880     0.885102183264     1.007825032230
         H            2.552274758999    -1.980607747880    -0.880686816736     1.007825032230
         H            3.661404758999    -0.921668747880     0.001602183264     1.007825032230
         H           -2.685834241001    -2.199753747880     0.001871183264     1.007825032230
         H           -3.655276641001     0.077358252120    -0.248138816736     1.007825032230

  Basis Set: AUG-CC-PVTZ
    Blend: AUG-CC-PVTZ
  Basis Set: (AUG-CC-PVTZ AUX)
    Blend: AUG-CC-PVTZ-JKFIT
	 Reference Energy          =    -400.6360232394092122 [Eh]
	 Singles Energy            =      -0.0000000000000000 [Eh]
	 Same-Spin Energy          =      -0.4519317924019530 [Eh]
	 Opposite-Spin Energy      =      -1.4046482510572482 [Eh]
	 Correlation Energy        =      -1.8565800434592012 [Eh]
	 Total Energy              =    -402.4926032828684015 [Eh]

	 ================> DF-SCS-MP2 Energies <==================
	-----------------------------------------------------------
	 SCS Same-Spin Scale       =       0.3333333333333333 [-]
	 SCS Opposite-Spin Scale   =       1.2000000000000000 [-]
	 SCS Same-Spin Energy      =      -0.1506439308006510 [Eh]
	 SCS Opposite-Spin Energy  =      -1.6855779012686978 [Eh]
	 SCS Correlation Energy    =      -1.8362218320693489 [Eh]
	 SCS Total Energy          =    -402.4722450714785396 [Eh]
	-----------------------------------------------------------

  Dipole Moment: [D]
     X:     1.0262      Y:     1.8006      Z:    -0.1610     Total:     2.0788

*** Psi4 exiting successfully. Buy a developer a beer!
