                               Psi4 1.3.2 release

  ==> Input File <==

--------------------------------------------------------------------------
#psi4
#
memory 32 gb

molecule  {
0 1
  N        0.6331050     1.8115130    -0.0000210
  C        0.1785470    -0.3913160     0.0000090
  C       -0.4036780     0.9062970    -0.0000200
  C        1.6027310    -0.2274780     0.0000040
  C        1.8344040     1.1305020     0.0000620
  C       -0.6692560    -1.5149550    -0.0000180
  C       -1.7891560     1.1099920    -0.0000270
  C        2.6263130    -1.3178960     0.0000690
  C       -2.0437110    -1.3184960    -0.0000320
  C       -2.5979760    -0.0198630    -0.0000430
  H        0.5326130     2.8174890    -0.0000320
  H        2.7737817     1.6707333     0.3000730
  H       -0.2550790    -2.5217040    -0.0000060
  H       -2.2189390     2.1099340    -0.0000460
  H        2.5289900    -1.9586870     0.8831790
  H        2.5285290    -1.9592090    -0.8826100
  H        3.6376590    -0.9002700    -0.0003210
  H       -2.7095800    -2.1783550    -0.0000520
  H       -3.6790270     0.0987570    -0.0000620
units angstrom
no_reorient  #important for SAPT in psi4, default
symmetry c1  #important for SAPT in psi4, default
}

set PROPERTIES_ORIGIN ["COM"]
properties('MP2/aug-cc-pvtz', properties = ['dipole'])
--------------------------------------------------------------------------

    Molecular point group: c1
  Charge       = 0
  Multiplicity = 1
  Basis Set: AUG-CC-PVTZ
    Blend: AUG-CC-PVTZ
  Basis Set: (AUG-CC-PVTZ AUX)
    Blend: AUG-CC-PVTZ-JKFIT

    Orbital Energies [Eh]
    ---------------------

    Doubly Occupied:

       1A    -15.599501     2A    -11.267048     3A    -11.266056
       4A    -11.232238     5A    -11.231447     6A    -11.230262
       7A    -11.223944     8A    -11.222421     9A    -11.221851
      10A    -11.221540    11A     -1.291579    12A     -1.127493
      13A     -1.072592    14A     -0.997789    15A     -0.985424
      16A     -0.930681    17A     -0.837080    18A     -0.803638
      19A     -0.754895    20A     -0.719196    21A     -0.658724
      22A     -0.641755    23A     -0.603986    24A     -0.593523
      25A     -0.593236    26A     -0.564066    27A     -0.550971
      28A     -0.542571    29A     -0.529100    30A     -0.497793
      31A     -0.476368    32A     -0.462715    33A     -0.374906
      34A     -0.298957    35A     -0.278248

  @DF-RHF Final Energy:  -400.63461907505723

   => Energetics <=

    Nuclear Repulsion Energy =            483.1037945454201576
    One-Electron Energy =               -1499.6696418675064706
    Two-Electron Energy =                 615.9312282470290256
    Total Energy =                       -400.6346190750572305
  Basis Set: (AUG-CC-PVTZ AUX)
    Blend: AUG-CC-PVTZ-RI
    Molecular point group: c1

    Geometry (in Angstrom), charge = 0, multiplicity = 1:

       Center              X                  Y                   Z               Mass
    ------------   -----------------  -----------------  -----------------  -----------------
         N            0.656850896632     1.790114272880    -0.002326770497    14.003074004430
         C            0.202292896632    -0.412714727120    -0.002296770497    12.000000000000
         C           -0.379932103368     0.884898272880    -0.002325770497    12.000000000000
         C            1.626476896632    -0.248876727120    -0.002301770497    12.000000000000
         C            1.858149896632     1.109103272880    -0.002243770497    12.000000000000
         C           -0.645510103368    -1.536353727120    -0.002323770497    12.000000000000
         C           -1.765410103368     1.088593272880    -0.002332770497    12.000000000000
         C            2.650058896632    -1.339294727120    -0.002236770497    12.000000000000
         C           -2.019965103368    -1.339894727120    -0.002337770497    12.000000000000
         C           -2.574230103368    -0.041261727120    -0.002348770497    12.000000000000
         H            0.556358896632     2.796090272880    -0.002337770497     1.007825032230
         H            2.797527596632     1.649334572880     0.297767229503     1.007825032230
         H           -0.231333103368    -2.543102727120    -0.002311770497     1.007825032230
         H           -2.195193103368     2.088535272880    -0.002351770497     1.007825032230
         H            2.552735896632    -1.980085727120     0.880873229503     1.007825032230
         H            2.552274896632    -1.980607727120    -0.884915770497     1.007825032230
         H            3.661404896632    -0.921668727120    -0.002626770497     1.007825032230
         H           -2.685834103368    -2.199753727120    -0.002357770497     1.007825032230
         H           -3.655281103368     0.077358272880    -0.002367770497     1.007825032230

  Basis Set: AUG-CC-PVTZ
    Blend: AUG-CC-PVTZ
  Basis Set: (AUG-CC-PVTZ AUX)
    Blend: AUG-CC-PVTZ-JKFIT
	 Reference Energy          =    -400.6346190750572305 [Eh]
	 Singles Energy            =      -0.0000000000000000 [Eh]
	 Same-Spin Energy          =      -0.4520491382403525 [Eh]
	 Opposite-Spin Energy      =      -1.4049813325829039 [Eh]
	 Correlation Energy        =      -1.8570304708232563 [Eh]
	 Total Energy              =    -402.4916495458804775 [Eh]

	 ================> DF-SCS-MP2 Energies <==================
	-----------------------------------------------------------
	 SCS Same-Spin Scale       =       0.3333333333333333 [-]
	 SCS Opposite-Spin Scale   =       1.2000000000000000 [-]
	 SCS Same-Spin Energy      =      -0.1506830460801175 [Eh]
	 SCS Opposite-Spin Energy  =      -1.6859775990994847 [Eh]
	 SCS Correlation Energy    =      -1.8366606451796024 [Eh]
	 SCS Total Energy          =    -402.4712797202368506 [Eh]
	-----------------------------------------------------------

  Dipole Moment: [D]
     X:     0.8694      Y:     1.7414      Z:     0.2315     Total:     1.9601

*** Psi4 exiting successfully. Buy a developer a beer!
