                               Psi4 1.3.2 release

  ==> Input File <==

--------------------------------------------------------------------------
#psi4
#
memory 32 gb

molecule  {
0 1
  N        0.6331050     1.8115130    -0.0000210
  C        0.1785470    -0.3913160     0.0000090
  C       -0.4036780     0.9062970    -0.0000200
  C        1.6027310    -0.2274780     0.0000040
  C        1.8344040     1.1305020     0.0000620
  C       -0.6692560    -1.5149550    -0.0000180
  C       -1.7891557     1.1099912    -0.0500270
  C        2.6263130    -1.3178960     0.0000690
  C       -2.0437110    -1.3184960    -0.0000320
  C       -2.5979760    -0.0198630    -0.0000430
  H        0.5326130     2.8174890    -0.0000320
  H        2.7737950     1.6707360     0.0000730
  H       -0.2550790    -2.5217040    -0.0000060
  H       -2.2189390     2.1099340    -0.0000460
  H        2.5289900    -1.9586870     0.8831790
  H        2.5285290    -1.9592090    -0.8826100
  H        3.6376590    -0.9002700    -0.0003210
  H       -2.7095800    -2.1783550    -0.0000520
  H       -3.6790270     0.0987570    -0.0000620
units angstrom
no_reorient  #important for SAPT in psi4, default
symmetry c1  #important for SAPT in psi4, default
}

set PROPERTIES_ORIGIN ["COM"]
properties('MP2/aug-cc-pvtz', properties = ['dipole'])
--------------------------------------------------------------------------

    Molecular point group: c1
  Charge       = 0
  Multiplicity = 1
  Basis Set: AUG-CC-PVTZ
    Blend: AUG-CC-PVTZ
  Basis Set: (AUG-CC-PVTZ AUX)
    Blend: AUG-CC-PVTZ-JKFIT

    Orbital Energies [Eh]
    ---------------------

    Doubly Occupied:

       1A    -15.599939     2A    -11.265432     3A    -11.264545
       4A    -11.232023     5A    -11.230796     6A    -11.229676
       7A    -11.222738     8A    -11.221828     9A    -11.221360
      10A    -11.221057    11A     -1.291673    12A     -1.126955
      13A     -1.072112    14A     -0.997231    15A     -0.985727
      16A     -0.930920    17A     -0.838973    18A     -0.803856
      19A     -0.755767    20A     -0.719958    21A     -0.659956
      22A     -0.644468    23A     -0.603431    24A     -0.592742
      25A     -0.591683    26A     -0.569621    27A     -0.551339
      28A     -0.542339    29A     -0.529660    30A     -0.497652
      31A     -0.475700    32A     -0.462943    33A     -0.374530
      34A     -0.298676    35A     -0.277706

  @DF-RHF Final Energy:  -400.63946931920390

   => Energetics <=

    Nuclear Repulsion Energy =            483.2323691855982588
    One-Electron Energy =               -1499.9336555295578819
    Two-Electron Energy =                 616.0618170247556691
    Total Energy =                       -400.6394693192039540
  Basis Set: (AUG-CC-PVTZ AUX)
    Blend: AUG-CC-PVTZ-RI
    Molecular point group: c1

    Geometry (in Angstrom), charge = 0, multiplicity = 1:

       Center              X                  Y                   Z               Mass
    ------------   -----------------  -----------------  -----------------  -----------------
         N            0.656850766903     1.790114325362     0.004557515911    14.003074004430
         C            0.202292766903    -0.412714674638     0.004587515911    12.000000000000
         C           -0.379932233097     0.884898325362     0.004558515911    12.000000000000
         C            1.626476766903    -0.248876674638     0.004582515911    12.000000000000
         C            1.858149766903     1.109103325362     0.004640515911    12.000000000000
         C           -0.645510233097    -1.536353674638     0.004560515911    12.000000000000
         C           -1.765409933097     1.088592525362    -0.045448484089    12.000000000000
         C            2.650058766903    -1.339294674638     0.004647515911    12.000000000000
         C           -2.019965233097    -1.339894674638     0.004546515911    12.000000000000
         C           -2.574230233097    -0.041261674638     0.004535515911    12.000000000000
         H            0.556358766903     2.796090325362     0.004546515911     1.007825032230
         H            2.797540766903     1.649337325362     0.004651515911     1.007825032230
         H           -0.231333233097    -2.543102674638     0.004572515911     1.007825032230
         H           -2.195193233097     2.088535325362     0.004532515911     1.007825032230
         H            2.552735766903    -1.980085674638     0.887757515911     1.007825032230
         H            2.552274766903    -1.980607674638    -0.878031484089     1.007825032230
         H            3.661404766903    -0.921668674638     0.004257515911     1.007825032230
         H           -2.685834233097    -2.199753674638     0.004526515911     1.007825032230
         H           -3.655281233097     0.077358325362     0.004516515911     1.007825032230

  Basis Set: AUG-CC-PVTZ
    Blend: AUG-CC-PVTZ
  Basis Set: (AUG-CC-PVTZ AUX)
    Blend: AUG-CC-PVTZ-JKFIT
	 Reference Energy          =    -400.6394693192038972 [Eh]
	 Singles Energy            =      -0.0000000000000000 [Eh]
	 Same-Spin Energy          =      -0.4517269630337041 [Eh]
	 Opposite-Spin Energy      =      -1.4041500223179315 [Eh]
	 Correlation Energy        =      -1.8558769853516357 [Eh]
	 Total Energy              =    -402.4953463045555395 [Eh]

	 ================> DF-SCS-MP2 Energies <==================
	-----------------------------------------------------------
	 SCS Same-Spin Scale       =       0.3333333333333333 [-]
	 SCS Opposite-Spin Scale   =       1.2000000000000000 [-]
	 SCS Same-Spin Energy      =      -0.1505756543445680 [Eh]
	 SCS Opposite-Spin Energy  =      -1.6849800267815178 [Eh]
	 SCS Correlation Energy    =      -1.8355556811260858 [Eh]
	 SCS Total Energy          =    -402.4750250003299925 [Eh]
	-----------------------------------------------------------

  Dipole Moment: [D]
     X:     0.9608      Y:     1.7989      Z:     0.0330     Total:     2.0396

*** Psi4 exiting successfully. Buy a developer a beer!
