                               Psi4 1.3.2 release

  ==> Input File <==

--------------------------------------------------------------------------
#psi4
#
memory 32 gb

molecule  {
0 1
  N        0.6331050     1.8115130    -0.0000210
  C        0.1785470    -0.3913160     0.0000090
  C       -0.4036780     0.9062970    -0.0000200
  C        1.6027310    -0.2274780     0.0000040
  C        1.8344040     1.1305020     0.0000620
  C       -0.6692560    -1.5149550    -0.0000180
  C       -1.7891560     1.1099920    -0.0000270
  C        2.6263130    -1.3178960     0.0000690
  C       -2.0437110    -1.3184960    -0.0000320
  C       -2.5979760    -0.0198630    -0.0000430
  H        0.5326130     2.8174890    -0.0000320
  H        2.7737950     1.6707360     0.0000730
  H       -0.2550790    -2.5217040    -0.0000060
  H       -2.2189390     2.1099340    -0.0000460
  H        2.5289900    -1.9586870     0.8831790
  H        2.5285290    -1.9592090    -0.8826100
  H        3.6376590    -0.9002700    -0.0003210
  H       -2.7095808    -2.1783552     0.0499480
  H       -3.6790270     0.0987570    -0.0000620
units angstrom
no_reorient  #important for SAPT in psi4, default
symmetry c1  #important for SAPT in psi4, default
}

set PROPERTIES_ORIGIN ["COM"]
properties('MP2/aug-cc-pvtz', properties = ['dipole'])
--------------------------------------------------------------------------

    Molecular point group: c1
  Charge       = 0
  Multiplicity = 1
  Basis Set: AUG-CC-PVTZ
    Blend: AUG-CC-PVTZ
  Basis Set: (AUG-CC-PVTZ AUX)
    Blend: AUG-CC-PVTZ-JKFIT

    Orbital Energies [Eh]
    ---------------------

    Doubly Occupied:

       1A    -15.599945     2A    -11.265297     3A    -11.264560
       4A    -11.231851     5A    -11.230668     6A    -11.229458
       7A    -11.222731     8A    -11.221827     9A    -11.221349
      10A    -11.221145    11A     -1.291680    12A     -1.127016
      13A     -1.072159    14A     -0.997302    15A     -0.985736
      16A     -0.930930    17A     -0.838964    18A     -0.803927
      19A     -0.755814    20A     -0.720068    21A     -0.659925
      22A     -0.644479    23A     -0.603535    24A     -0.592729
      25A     -0.591931    26A     -0.569700    27A     -0.551374
      28A     -0.542314    29A     -0.529675    30A     -0.497638
      31A     -0.475793    32A     -0.462953    33A     -0.374555
      34A     -0.298669    35A     -0.277709

  @DF-RHF Final Energy:  -400.64004052991669

   => Energetics <=

    Nuclear Repulsion Energy =            483.2565640830359257
    One-Electron Energy =               -1499.9824006362405271
    Two-Electron Energy =                 616.0857960232877986
    Total Energy =                       -400.6400405299167460
  Basis Set: (AUG-CC-PVTZ AUX)
    Blend: AUG-CC-PVTZ-RI
    Molecular point group: c1

    Geometry (in Angstrom), charge = 0, multiplicity = 1:

       Center              X                  Y                   Z               Mass
    ------------   -----------------  -----------------  -----------------  -----------------
         N            0.656850800520     1.790114253658    -0.000404518788    14.003074004430
         C            0.202292800520    -0.412714746342    -0.000374518788    12.000000000000
         C           -0.379932199480     0.884898253658    -0.000403518788    12.000000000000
         C            1.626476800520    -0.248876746342    -0.000379518788    12.000000000000
         C            1.858149800520     1.109103253658    -0.000321518788    12.000000000000
         C           -0.645510199480    -1.536353746342    -0.000401518788    12.000000000000
         C           -1.765410199480     1.088593253658    -0.000410518788    12.000000000000
         C            2.650058800520    -1.339294746342    -0.000314518788    12.000000000000
         C           -2.019965199480    -1.339894746342    -0.000415518788    12.000000000000
         C           -2.574230199480    -0.041261746342    -0.000426518788    12.000000000000
         H            0.556358800520     2.796090253658    -0.000415518788     1.007825032230
         H            2.797540800520     1.649337253658    -0.000310518788     1.007825032230
         H           -0.231333199480    -2.543102746342    -0.000389518788     1.007825032230
         H           -2.195193199480     2.088535253658    -0.000429518788     1.007825032230
         H            2.552735800520    -1.980085746342     0.882795481212     1.007825032230
         H            2.552274800520    -1.980607746342    -0.882993518788     1.007825032230
         H            3.661404800520    -0.921668746342    -0.000704518788     1.007825032230
         H           -2.685834999480    -2.199753946342     0.049564481212     1.007825032230
         H           -3.655281199480     0.077358253658    -0.000445518788     1.007825032230

  Basis Set: AUG-CC-PVTZ
    Blend: AUG-CC-PVTZ
  Basis Set: (AUG-CC-PVTZ AUX)
    Blend: AUG-CC-PVTZ-JKFIT
	 Reference Energy          =    -400.6400405299166891 [Eh]
	 Singles Energy            =      -0.0000000000000000 [Eh]
	 Same-Spin Energy          =      -0.4516994967099821 [Eh]
	 Opposite-Spin Energy      =      -1.4041363544754968 [Eh]
	 Correlation Energy        =      -1.8558358511854789 [Eh]
	 Total Energy              =    -402.4958763811021640 [Eh]

	 ================> DF-SCS-MP2 Energies <==================
	-----------------------------------------------------------
	 SCS Same-Spin Scale       =       0.3333333333333333 [-]
	 SCS Opposite-Spin Scale   =       1.2000000000000000 [-]
	 SCS Same-Spin Energy      =      -0.1505664989033274 [Eh]
	 SCS Opposite-Spin Energy  =      -1.6849636253705962 [Eh]
	 SCS Correlation Energy    =      -1.8355301242739235 [Eh]
	 SCS Total Energy          =    -402.4755706541906193 [Eh]
	-----------------------------------------------------------

  Dipole Moment: [D]
     X:     0.9593      Y:     1.8071      Z:     0.0324     Total:     2.0461

*** Psi4 exiting successfully. Buy a developer a beer!
