                               Psi4 1.3.2 release

  ==> Input File <==

--------------------------------------------------------------------------
#psi4
#
memory 32 gb

molecule  {
0 1
  N        0.6331050     1.8115130    -0.0000210
  C        0.1785470    -0.3913160     0.0000090
  C       -0.4036780     0.9062970    -0.0000200
  C        1.6027310    -0.2274780     0.0000040
  C        1.8344040     1.1305020     0.0000620
  C       -0.6692560    -1.5149550    -0.0000180
  C       -1.7891560     1.1099920    -0.0000270
  C        2.6263130    -1.3178960     0.0000690
  C       -2.0437110    -1.3184960    -0.0000320
  C       -2.5979760    -0.0198630    -0.0000430
  H        0.5326110     2.8174903     0.0499680
  H        2.7737950     1.6707360     0.0000730
  H       -0.2550790    -2.5217040    -0.0000060
  H       -2.2189390     2.1099340    -0.0000460
  H        2.5289900    -1.9586870     0.8831790
  H        2.5285290    -1.9592090    -0.8826100
  H        3.6376590    -0.9002700    -0.0003210
  H       -2.7095800    -2.1783550    -0.0000520
  H       -3.6790270     0.0987570    -0.0000620
units angstrom
no_reorient  #important for SAPT in psi4, default
symmetry c1  #important for SAPT in psi4, default
}

set PROPERTIES_ORIGIN ["COM"]
properties('MP2/aug-cc-pvtz', properties = ['dipole'])
--------------------------------------------------------------------------

    Molecular point group: c1
  Charge       = 0
  Multiplicity = 1
  Basis Set: AUG-CC-PVTZ
    Blend: AUG-CC-PVTZ
  Basis Set: (AUG-CC-PVTZ AUX)
    Blend: AUG-CC-PVTZ-JKFIT

    Orbital Energies [Eh]
    ---------------------

    Doubly Occupied:

       1A    -15.599978     2A    -11.265256     3A    -11.264529
       4A    -11.231848     5A    -11.230648     6A    -11.229447
       7A    -11.222741     8A    -11.221833     9A    -11.221354
      10A    -11.221064    11A     -1.291583    12A     -1.126990
      13A     -1.072109    14A     -0.997298    15A     -0.985731
      16A     -0.930847    17A     -0.838960    18A     -0.803853
      19A     -0.755793    20A     -0.719865    21A     -0.659945
      22A     -0.644604    23A     -0.603586    24A     -0.593451
      25A     -0.591100    26A     -0.569689    27A     -0.551363
      28A     -0.542275    29A     -0.529682    30A     -0.497659
      31A     -0.475791    32A     -0.463046    33A     -0.374550
      34A     -0.298695    35A     -0.277718

  @DF-RHF Final Energy:  -400.64011534536030

   => Energetics <=

    Nuclear Repulsion Energy =            483.2549706042857451
    One-Electron Energy =               -1499.9804078287515949
    Two-Electron Energy =                 616.0853218791055497
    Total Energy =                       -400.6401153453603001
  Basis Set: (AUG-CC-PVTZ AUX)
    Blend: AUG-CC-PVTZ-RI
    Molecular point group: c1

    Geometry (in Angstrom), charge = 0, multiplicity = 1:

       Center              X                  Y                   Z               Mass
    ------------   -----------------  -----------------  -----------------  -----------------
         N            0.656850809747     1.790114242124    -0.000404518788    14.003074004430
         C            0.202292809747    -0.412714757876    -0.000374518788    12.000000000000
         C           -0.379932190253     0.884898242124    -0.000403518788    12.000000000000
         C            1.626476809747    -0.248876757876    -0.000379518788    12.000000000000
         C            1.858149809747     1.109103242124    -0.000321518788    12.000000000000
         C           -0.645510190253    -1.536353757876    -0.000401518788    12.000000000000
         C           -1.765410190253     1.088593242124    -0.000410518788    12.000000000000
         C            2.650058809747    -1.339294757876    -0.000314518788    12.000000000000
         C           -2.019965190253    -1.339894757876    -0.000415518788    12.000000000000
         C           -2.574230190253    -0.041261757876    -0.000426518788    12.000000000000
         H            0.556356809747     2.796091542124     0.049584481212     1.007825032230
         H            2.797540809747     1.649337242124    -0.000310518788     1.007825032230
         H           -0.231333190253    -2.543102757876    -0.000389518788     1.007825032230
         H           -2.195193190253     2.088535242124    -0.000429518788     1.007825032230
         H            2.552735809747    -1.980085757876     0.882795481212     1.007825032230
         H            2.552274809747    -1.980607757876    -0.882993518788     1.007825032230
         H            3.661404809747    -0.921668757876    -0.000704518788     1.007825032230
         H           -2.685834190253    -2.199753757876    -0.000435518788     1.007825032230
         H           -3.655281190253     0.077358242124    -0.000445518788     1.007825032230

  Basis Set: AUG-CC-PVTZ
    Blend: AUG-CC-PVTZ
  Basis Set: (AUG-CC-PVTZ AUX)
    Blend: AUG-CC-PVTZ-JKFIT
	 Reference Energy          =    -400.6401153453603001 [Eh]
	 Singles Energy            =      -0.0000000000000000 [Eh]
	 Same-Spin Energy          =      -0.4516981165140428 [Eh]
	 Opposite-Spin Energy      =      -1.4041435428081683 [Eh]
	 Correlation Energy        =      -1.8558416593222111 [Eh]
	 Total Energy              =    -402.4959570046825093 [Eh]

	 ================> DF-SCS-MP2 Energies <==================
	-----------------------------------------------------------
	 SCS Same-Spin Scale       =       0.3333333333333333 [-]
	 SCS Opposite-Spin Scale   =       1.2000000000000000 [-]
	 SCS Same-Spin Energy      =      -0.1505660388380143 [Eh]
	 SCS Opposite-Spin Energy  =      -1.6849722513698020 [Eh]
	 SCS Correlation Energy    =      -1.8355382902078163 [Eh]
	 SCS Total Energy          =    -402.4756536355681078 [Eh]
	-----------------------------------------------------------

  Dipole Moment: [D]
     X:     0.9569      Y:     1.8024      Z:     0.0709     Total:     2.0419

*** Psi4 exiting successfully. Buy a developer a beer!
