                               Psi4 1.3.2 release

  ==> Input File <==

--------------------------------------------------------------------------
#psi4
#
memory 32 gb

molecule  {
0 1
  N        0.6331050     1.8115130    -0.0000210
  C        0.1785470    -0.3913160     0.0000090
  C       -0.4036780     0.9062970    -0.0000200
  C        1.6027310    -0.2274780     0.0000040
  C        1.8344040     1.1305020     0.0000620
  C       -0.6692560    -1.5149550    -0.0000180
  C       -1.7891560     1.1099920    -0.0000270
  C        2.6263130    -1.3178960     0.0000690
  C       -2.0437110    -1.3184960    -0.0000320
  C       -2.5979760    -0.0198630    -0.0000430
  H        0.5326071     2.8174928     0.1499680
  H        2.7737950     1.6707360     0.0000730
  H       -0.2550790    -2.5217040    -0.0000060
  H       -2.2189390     2.1099340    -0.0000460
  H        2.5289900    -1.9586870     0.8831790
  H        2.5285290    -1.9592090    -0.8826100
  H        3.6376590    -0.9002700    -0.0003210
  H       -2.7095800    -2.1783550    -0.0000520
  H       -3.6790270     0.0987570    -0.0000620
units angstrom
no_reorient  #important for SAPT in psi4, default
symmetry c1  #important for SAPT in psi4, default
}

set PROPERTIES_ORIGIN ["COM"]
properties('MP2/aug-cc-pvtz', properties = ['dipole'])
--------------------------------------------------------------------------

    Molecular point group: c1
  Charge       = 0
  Multiplicity = 1
  Basis Set: AUG-CC-PVTZ
    Blend: AUG-CC-PVTZ
  Basis Set: (AUG-CC-PVTZ AUX)
    Blend: AUG-CC-PVTZ-JKFIT

    Orbital Energies [Eh]
    ---------------------

    Doubly Occupied:

       1A    -15.600371     2A    -11.265136     3A    -11.264363
       4A    -11.231889     5A    -11.230700     6A    -11.229496
       7A    -11.222920     8A    -11.221970     9A    -11.221471
      10A    -11.221192    11A     -1.290953    12A     -1.126843
      13A     -1.071820    14A     -0.997180    15A     -0.985681
      16A     -0.930288    17A     -0.838759    18A     -0.803109
      19A     -0.755518    20A     -0.718331    21A     -0.659886
      22A     -0.644637    23A     -0.604049    24A     -0.595105
      25A     -0.588566    26A     -0.569659    27A     -0.551383
      28A     -0.541905    29A     -0.529656    30A     -0.497721
      31A     -0.475895    32A     -0.462876    33A     -0.374603
      34A     -0.298874    35A     -0.277874

  @DF-RHF Final Energy:  -400.63941929971753

   => Energetics <=

    Nuclear Repulsion Energy =            483.2078677183352511
    One-Electron Energy =               -1499.8932179092778370
    Two-Electron Energy =                 616.0459308912251117
    Total Energy =                       -400.6394192997174741
  Basis Set: (AUG-CC-PVTZ AUX)
    Blend: AUG-CC-PVTZ-RI
    Molecular point group: c1

    Geometry (in Angstrom), charge = 0, multiplicity = 1:

       Center              X                  Y                   Z               Mass
    ------------   -----------------  -----------------  -----------------  -----------------
         N            0.656850839734     1.790114222902    -0.001173419471    14.003074004430
         C            0.202292839734    -0.412714777098    -0.001143419471    12.000000000000
         C           -0.379932160266     0.884898222902    -0.001172419471    12.000000000000
         C            1.626476839734    -0.248876777098    -0.001148419471    12.000000000000
         C            1.858149839734     1.109103222902    -0.001090419471    12.000000000000
         C           -0.645510160266    -1.536353777098    -0.001170419471    12.000000000000
         C           -1.765410160266     1.088593222902    -0.001179419471    12.000000000000
         C            2.650058839734    -1.339294777098    -0.001083419471    12.000000000000
         C           -2.019965160266    -1.339894777098    -0.001184419471    12.000000000000
         C           -2.574230160266    -0.041261777098    -0.001195419471    12.000000000000
         H            0.556352939734     2.796094022902     0.148815580529     1.007825032230
         H            2.797540839734     1.649337222902    -0.001079419471     1.007825032230
         H           -0.231333160266    -2.543102777098    -0.001158419471     1.007825032230
         H           -2.195193160266     2.088535222902    -0.001198419471     1.007825032230
         H            2.552735839734    -1.980085777098     0.882026580529     1.007825032230
         H            2.552274839734    -1.980607777098    -0.883762419471     1.007825032230
         H            3.661404839734    -0.921668777098    -0.001473419471     1.007825032230
         H           -2.685834160266    -2.199753777098    -0.001204419471     1.007825032230
         H           -3.655281160266     0.077358222902    -0.001214419471     1.007825032230

  Basis Set: AUG-CC-PVTZ
    Blend: AUG-CC-PVTZ
  Basis Set: (AUG-CC-PVTZ AUX)
    Blend: AUG-CC-PVTZ-JKFIT
	 Reference Energy          =    -400.6394192997175310 [Eh]
	 Singles Energy            =      -0.0000000000000000 [Eh]
	 Same-Spin Energy          =      -0.4517481862549247 [Eh]
	 Opposite-Spin Energy      =      -1.4042904565482428 [Eh]
	 Correlation Energy        =      -1.8560386428031674 [Eh]
	 Total Energy              =    -402.4954579425207157 [Eh]

	 ================> DF-SCS-MP2 Energies <==================
	-----------------------------------------------------------
	 SCS Same-Spin Scale       =       0.3333333333333333 [-]
	 SCS Opposite-Spin Scale   =       1.2000000000000000 [-]
	 SCS Same-Spin Energy      =      -0.1505827287516416 [Eh]
	 SCS Opposite-Spin Energy  =      -1.6851485478578914 [Eh]
	 SCS Correlation Energy    =      -1.8357312766095331 [Eh]
	 SCS Total Energy          =    -402.4751505763270529 [Eh]
	-----------------------------------------------------------

  Dipole Moment: [D]
     X:     0.9538      Y:     1.7814      Z:     0.2118     Total:     2.0317

*** Psi4 exiting successfully. Buy a developer a beer!
