                               Psi4 1.3.2 release

  ==> Input File <==

--------------------------------------------------------------------------
#psi4
#
memory 32 gb

molecule  {
0 1
  N        0.6331050     1.8115130    -0.0000210
  C        0.1785470    -0.3913160     0.0000090
  C       -0.4036780     0.9062970    -0.0000200
  C        1.6027310    -0.2274780     0.0000040
  C        1.8344040     1.1305020     0.0000620
  C       -0.6692533    -1.5149555    -0.2500180
  C       -1.7891560     1.1099920    -0.0000270
  C        2.6263130    -1.3178960     0.0000690
  C       -2.0437110    -1.3184960    -0.0000320
  C       -2.5979760    -0.0198630    -0.0000430
  H        0.5326130     2.8174890    -0.0000320
  H        2.7737950     1.6707360     0.0000730
  H       -0.2550790    -2.5217040    -0.0000060
  H       -2.2189390     2.1099340    -0.0000460
  H        2.5289900    -1.9586870     0.8831790
  H        2.5285290    -1.9592090    -0.8826100
  H        3.6376590    -0.9002700    -0.0003210
  H       -2.7095800    -2.1783550    -0.0000520
  H       -3.6790270     0.0987570    -0.0000620
units angstrom
no_reorient  #important for SAPT in psi4, default
symmetry c1  #important for SAPT in psi4, default
}

set PROPERTIES_ORIGIN ["COM"]
properties('MP2/aug-cc-pvtz', properties = ['dipole'])
--------------------------------------------------------------------------

    Molecular point group: c1
  Charge       = 0
  Multiplicity = 1
  Basis Set: AUG-CC-PVTZ
    Blend: AUG-CC-PVTZ
  Basis Set: (AUG-CC-PVTZ AUX)
    Blend: AUG-CC-PVTZ-JKFIT

    Orbital Energies [Eh]
    ---------------------

    Doubly Occupied:

       1A    -15.600580     2A    -11.266047     3A    -11.265060
       4A    -11.235259     5A    -11.234864     6A    -11.229368
       7A    -11.226779     8A    -11.225825     9A    -11.222018
      10A    -11.220989    11A     -1.292279    12A     -1.124851
      13A     -1.072246    14A     -0.994719    15A     -0.985307
      16A     -0.930677    17A     -0.838312    18A     -0.801498
      19A     -0.754663    20A     -0.718444    21A     -0.659413
      22A     -0.643714    23A     -0.601416    24A     -0.594505
      25A     -0.584124    26A     -0.567904    27A     -0.551162
      28A     -0.541890    29A     -0.528444    30A     -0.494427
      31A     -0.475619    32A     -0.458109    33A     -0.373646
      34A     -0.297400    35A     -0.278761

  @DF-RHF Final Energy:  -400.62053407815870

   => Energetics <=

    Nuclear Repulsion Energy =            482.5556112718690542
    One-Electron Energy =               -1498.5716508673151566
    Two-Electron Energy =                 615.3955055172873472
    Total Energy =                       -400.6205340781586983
  Basis Set: (AUG-CC-PVTZ AUX)
    Blend: AUG-CC-PVTZ-RI
    Molecular point group: c1

    Geometry (in Angstrom), charge = 0, multiplicity = 1:

       Center              X                  Y                   Z               Mass
    ------------   -----------------  -----------------  -----------------  -----------------
         N            0.656850547179     1.790114297896     0.022867853340    14.003074004430
         C            0.202292547179    -0.412714702104     0.022897853340    12.000000000000
         C           -0.379932452821     0.884898297896     0.022868853340    12.000000000000
         C            1.626476547179    -0.248876702104     0.022892853340    12.000000000000
         C            1.858149547179     1.109103297896     0.022950853340    12.000000000000
         C           -0.645507752821    -1.536354202104    -0.227129146660    12.000000000000
         C           -1.765410452821     1.088593297896     0.022861853340    12.000000000000
         C            2.650058547179    -1.339294702104     0.022957853340    12.000000000000
         C           -2.019965452821    -1.339894702104     0.022856853340    12.000000000000
         C           -2.574230452821    -0.041261702104     0.022845853340    12.000000000000
         H            0.556358547179     2.796090297896     0.022856853340     1.007825032230
         H            2.797540547179     1.649337297896     0.022961853340     1.007825032230
         H           -0.231333452821    -2.543102702104     0.022882853340     1.007825032230
         H           -2.195193452821     2.088535297896     0.022842853340     1.007825032230
         H            2.552735547179    -1.980085702104     0.906067853340     1.007825032230
         H            2.552274547179    -1.980607702104    -0.859721146660     1.007825032230
         H            3.661404547179    -0.921668702104     0.022567853340     1.007825032230
         H           -2.685834452821    -2.199753702104     0.022836853340     1.007825032230
         H           -3.655281452821     0.077358297896     0.022826853340     1.007825032230

  Basis Set: AUG-CC-PVTZ
    Blend: AUG-CC-PVTZ
  Basis Set: (AUG-CC-PVTZ AUX)
    Blend: AUG-CC-PVTZ-JKFIT
	 Reference Energy          =    -400.6205340781586983 [Eh]
	 Singles Energy            =      -0.0000000000000000 [Eh]
	 Same-Spin Energy          =      -0.4528363567045304 [Eh]
	 Opposite-Spin Energy      =      -1.4069983434185815 [Eh]
	 Correlation Energy        =      -1.8598347001231119 [Eh]
	 Total Energy              =    -402.4803687782817860 [Eh]

	 ================> DF-SCS-MP2 Energies <==================
	-----------------------------------------------------------
	 SCS Same-Spin Scale       =       0.3333333333333333 [-]
	 SCS Opposite-Spin Scale   =       1.2000000000000000 [-]
	 SCS Same-Spin Energy      =      -0.1509454522348435 [Eh]
	 SCS Opposite-Spin Energy  =      -1.6883980121022979 [Eh]
	 SCS Correlation Energy    =      -1.8393434643371414 [Eh]
	 SCS Total Energy          =    -402.4598775424958603 [Eh]
	-----------------------------------------------------------

  Dipole Moment: [D]
     X:     0.9012      Y:     1.9512      Z:     0.1737     Total:     2.1562

*** Psi4 exiting successfully. Buy a developer a beer!
