                               Psi4 1.3.2 release

  ==> Input File <==

--------------------------------------------------------------------------
#psi4
#
memory 32 gb

molecule  {
0 1
  N        0.6331050     1.8115130    -0.0000210
  C        0.1785470    -0.3913160     0.0000090
  C       -0.4036780     0.9062970    -0.0000200
  C        1.6027310    -0.2274780     0.0000040
  C        1.8344040     1.1305020     0.0000620
  C       -0.6692560    -1.5149550    -0.0000180
  C       -1.7891560     1.1099920    -0.0000270
  C        2.6263130    -1.3178960     0.0000690
  C       -2.0437110    -1.3184960    -0.0000320
  C       -2.5979760    -0.0198630    -0.0000430
  H        0.5326130     2.8174890    -0.0000320
  H        2.7737861     1.6707342     0.2000730
  H       -0.2550790    -2.5217040    -0.0000060
  H       -2.2189390     2.1099340    -0.0000460
  H        2.5289900    -1.9586870     0.8831790
  H        2.5285290    -1.9592090    -0.8826100
  H        3.6376590    -0.9002700    -0.0003210
  H       -2.7095800    -2.1783550    -0.0000520
  H       -3.6790270     0.0987570    -0.0000620
units angstrom
no_reorient  #important for SAPT in psi4, default
symmetry c1  #important for SAPT in psi4, default
}

set PROPERTIES_ORIGIN ["COM"]
properties('MP2/aug-cc-pvtz', properties = ['dipole'])
--------------------------------------------------------------------------

    Molecular point group: c1
  Charge       = 0
  Multiplicity = 1
  Basis Set: AUG-CC-PVTZ
    Blend: AUG-CC-PVTZ
  Basis Set: (AUG-CC-PVTZ AUX)
    Blend: AUG-CC-PVTZ-JKFIT

    Orbital Energies [Eh]
    ---------------------

    Doubly Occupied:

       1A    -15.599724     2A    -11.265681     3A    -11.265618
       4A    -11.232016     5A    -11.231005     6A    -11.229813
       7A    -11.223238     8A    -11.222095     9A    -11.221596
      10A    -11.221269    11A     -1.291619    12A     -1.127225
      13A     -1.072345    14A     -0.997525    15A     -0.985578
      16A     -0.930801    17A     -0.838066    18A     -0.803799
      19A     -0.755383    20A     -0.719643    21A     -0.659310
      22A     -0.643361    23A     -0.603733    24A     -0.592954
      25A     -0.592737    26A     -0.567008    27A     -0.551226
      28A     -0.542462    29A     -0.529475    30A     -0.497724
      31A     -0.476047    32A     -0.462914    33A     -0.374704
      34A     -0.298797    35A     -0.277943

  @DF-RHF Final Energy:  -400.63788746460608

   => Energetics <=

    Nuclear Repulsion Energy =            483.1895131982087719
    One-Electron Energy =               -1499.8459360125245894
    Two-Electron Energy =                 616.0185353497097367
    Total Energy =                       -400.6378874646061377
  Basis Set: (AUG-CC-PVTZ AUX)
    Blend: AUG-CC-PVTZ-RI
    Molecular point group: c1

    Geometry (in Angstrom), charge = 0, multiplicity = 1:

       Center              X                  Y                   Z               Mass
    ------------   -----------------  -----------------  -----------------  -----------------
         N            0.656850862801     1.790114265960    -0.001557869813    14.003074004430
         C            0.202292862801    -0.412714734040    -0.001527869813    12.000000000000
         C           -0.379932137199     0.884898265960    -0.001556869813    12.000000000000
         C            1.626476862801    -0.248876734040    -0.001532869813    12.000000000000
         C            1.858149862801     1.109103265960    -0.001474869813    12.000000000000
         C           -0.645510137199    -1.536353734040    -0.001554869813    12.000000000000
         C           -1.765410137199     1.088593265960    -0.001563869813    12.000000000000
         C            2.650058862801    -1.339294734040    -0.001467869813    12.000000000000
         C           -2.019965137199    -1.339894734040    -0.001568869813    12.000000000000
         C           -2.574230137199    -0.041261734040    -0.001579869813    12.000000000000
         H            0.556358862801     2.796090265960    -0.001568869813     1.007825032230
         H            2.797531962801     1.649335465960     0.198536130187     1.007825032230
         H           -0.231333137199    -2.543102734040    -0.001542869813     1.007825032230
         H           -2.195193137199     2.088535265960    -0.001582869813     1.007825032230
         H            2.552735862801    -1.980085734040     0.881642130187     1.007825032230
         H            2.552274862801    -1.980607734040    -0.884146869813     1.007825032230
         H            3.661404862801    -0.921668734040    -0.001857869813     1.007825032230
         H           -2.685834137199    -2.199753734040    -0.001588869813     1.007825032230
         H           -3.655281137199     0.077358265960    -0.001598869813     1.007825032230

  Basis Set: AUG-CC-PVTZ
    Blend: AUG-CC-PVTZ
  Basis Set: (AUG-CC-PVTZ AUX)
    Blend: AUG-CC-PVTZ-JKFIT
	 Reference Energy          =    -400.6378874646060808 [Eh]
	 Singles Energy            =      -0.0000000000000000 [Eh]
	 Same-Spin Energy          =      -0.4518536227366274 [Eh]
	 Opposite-Spin Energy      =      -1.4044970422273293 [Eh]
	 Correlation Energy        =      -1.8563506649639567 [Eh]
	 Total Energy              =    -402.4942381295700216 [Eh]

	 ================> DF-SCS-MP2 Energies <==================
	-----------------------------------------------------------
	 SCS Same-Spin Scale       =       0.3333333333333333 [-]
	 SCS Opposite-Spin Scale   =       1.2000000000000000 [-]
	 SCS Same-Spin Energy      =      -0.1506178742455425 [Eh]
	 SCS Opposite-Spin Energy  =      -1.6853964506727952 [Eh]
	 SCS Correlation Energy    =      -1.8360143249183376 [Eh]
	 SCS Total Energy          =    -402.4739017895244046 [Eh]
	-----------------------------------------------------------

  Dipole Moment: [D]
     X:     0.9176      Y:     1.7759      Z:     0.1570     Total:     2.0051

*** Psi4 exiting successfully. Buy a developer a beer!
