                               Psi4 1.3.2 release

  ==> Input File <==

--------------------------------------------------------------------------
#psi4
#
memory 32 gb

molecule  {
0 1
  N        0.6331050     1.8115130    -0.0000210
  C        0.1785470    -0.3913160     0.0000090
  C       -0.4036780     0.9062970    -0.0000200
  C        1.6027310    -0.2274780     0.0000040
  C        1.8344040     1.1305020     0.0000620
  C       -0.6692560    -1.5149550    -0.0000180
  C       -1.7891560     1.1099920    -0.0000270
  C        2.6263130    -1.3178960     0.0000690
  C       -2.0437110    -1.3184960    -0.0000320
  C       -2.5979760    -0.0198630    -0.0000430
  H        0.5326130     2.8174890    -0.0000320
  H        2.7737883     1.6707347     0.1500730
  H       -0.2550790    -2.5217040    -0.0000060
  H       -2.2189390     2.1099340    -0.0000460
  H        2.5289900    -1.9586870     0.8831790
  H        2.5285290    -1.9592090    -0.8826100
  H        3.6376590    -0.9002700    -0.0003210
  H       -2.7095800    -2.1783550    -0.0000520
  H       -3.6790270     0.0987570    -0.0000620
units angstrom
no_reorient  #important for SAPT in psi4, default
symmetry c1  #important for SAPT in psi4, default
}

set PROPERTIES_ORIGIN ["COM"]
properties('MP2/aug-cc-pvtz', properties = ['dipole'])
--------------------------------------------------------------------------

    Molecular point group: c1
  Charge       = 0
  Multiplicity = 1
  Basis Set: AUG-CC-PVTZ
    Blend: AUG-CC-PVTZ
  Basis Set: (AUG-CC-PVTZ AUX)
    Blend: AUG-CC-PVTZ-JKFIT

    Orbital Energies [Eh]
    ---------------------

    Doubly Occupied:

       1A    -15.599810     2A    -11.265471     3A    -11.265185
       4A    -11.231940     5A    -11.230847     6A    -11.229652
       7A    -11.223003     8A    -11.221974     9A    -11.221492
      10A    -11.221173    11A     -1.291637    12A     -1.127131
      13A     -1.072258    14A     -0.997432    15A     -0.985644
      16A     -0.930850    17A     -0.838453    18A     -0.803862
      19A     -0.755572    20A     -0.719817    21A     -0.659570
      22A     -0.643911    23A     -0.603642    24A     -0.592854
      25A     -0.592411    26A     -0.568146    27A     -0.551292
      28A     -0.542405    29A     -0.529575    30A     -0.497694
      31A     -0.475930    32A     -0.462981    33A     -0.374634
      34A     -0.298742    35A     -0.277836

  @DF-RHF Final Energy:  -400.63893337325868

   => Energetics <=

    Nuclear Repulsion Energy =            483.2204388791363385
    One-Electron Energy =               -1499.9090909136266418
    Two-Electron Energy =                 616.0497186612317364
    Total Energy =                       -400.6389333732586238
  Basis Set: (AUG-CC-PVTZ AUX)
    Blend: AUG-CC-PVTZ-RI
    Molecular point group: c1

    Geometry (in Angstrom), charge = 0, multiplicity = 1:

       Center              X                  Y                   Z               Mass
    ------------   -----------------  -----------------  -----------------  -----------------
         N            0.656850845885     1.790114262116    -0.001173419471    14.003074004430
         C            0.202292845885    -0.412714737884    -0.001143419471    12.000000000000
         C           -0.379932154115     0.884898262116    -0.001172419471    12.000000000000
         C            1.626476845885    -0.248876737884    -0.001148419471    12.000000000000
         C            1.858149845885     1.109103262116    -0.001090419471    12.000000000000
         C           -0.645510154115    -1.536353737884    -0.001170419471    12.000000000000
         C           -1.765410154115     1.088593262116    -0.001179419471    12.000000000000
         C            2.650058845885    -1.339294737884    -0.001083419471    12.000000000000
         C           -2.019965154115    -1.339894737884    -0.001184419471    12.000000000000
         C           -2.574230154115    -0.041261737884    -0.001195419471    12.000000000000
         H            0.556358845885     2.796090262116    -0.001184419471     1.007825032230
         H            2.797534145885     1.649335962116     0.148920580529     1.007825032230
         H           -0.231333154115    -2.543102737884    -0.001158419471     1.007825032230
         H           -2.195193154115     2.088535262116    -0.001198419471     1.007825032230
         H            2.552735845885    -1.980085737884     0.882026580529     1.007825032230
         H            2.552274845885    -1.980607737884    -0.883762419471     1.007825032230
         H            3.661404845885    -0.921668737884    -0.001473419471     1.007825032230
         H           -2.685834154115    -2.199753737884    -0.001204419471     1.007825032230
         H           -3.655281154115     0.077358262116    -0.001214419471     1.007825032230

  Basis Set: AUG-CC-PVTZ
    Blend: AUG-CC-PVTZ
  Basis Set: (AUG-CC-PVTZ AUX)
    Blend: AUG-CC-PVTZ-JKFIT
	 Reference Energy          =    -400.6389333732586806 [Eh]
	 Singles Energy            =      -0.0000000000000000 [Eh]
	 Same-Spin Energy          =      -0.4517833870509530 [Eh]
	 Opposite-Spin Energy      =      -1.4043315820849507 [Eh]
	 Correlation Energy        =      -1.8561149691359038 [Eh]
	 Total Energy              =    -402.4950483423945684 [Eh]

	 ================> DF-SCS-MP2 Energies <==================
	-----------------------------------------------------------
	 SCS Same-Spin Scale       =       0.3333333333333333 [-]
	 SCS Opposite-Spin Scale   =       1.2000000000000000 [-]
	 SCS Same-Spin Energy      =      -0.1505944623503176 [Eh]
	 SCS Opposite-Spin Energy  =      -1.6851978985019407 [Eh]
	 SCS Correlation Energy    =      -1.8357923608522584 [Eh]
	 SCS Total Energy          =    -402.4747257341109616 [Eh]
	-----------------------------------------------------------

  Dipole Moment: [D]
     X:     0.9348      Y:     1.7885      Z:     0.1185     Total:     2.0216

*** Psi4 exiting successfully. Buy a developer a beer!
