                               Psi4 1.3.2 release

  ==> Input File <==

--------------------------------------------------------------------------
#psi4
#
memory 32 gb

molecule  {
0 1
  N        0.6331050     1.8115130    -0.0000210
  C        0.1785470    -0.3913160     0.0000090
  C       -0.4036780     0.9062970    -0.0000200
  C        1.6027310    -0.2274780     0.0000040
  C        1.8344040     1.1305020     0.0000620
  C       -0.6692560    -1.5149550    -0.0000180
  C       -1.7891560     1.1099920    -0.0000270
  C        2.6263130    -1.3178960     0.0000690
  C       -2.0437110    -1.3184960    -0.0000320
  C       -2.5979760    -0.0198630    -0.0000430
  H        0.5326130     2.8174890    -0.0000320
  H        2.7737950     1.6707360     0.0000730
  H       -0.2550790    -2.5217040    -0.0000060
  H       -2.2189390     2.1099340    -0.0000460
  H        2.5289900    -1.9586870     0.8831790
  H        2.5285290    -1.9592090    -0.8826100
  H        3.6376590    -0.9002700    -0.0003210
  H       -2.7095800    -2.1783550    -0.0000520
  H       -3.6790233     0.0987570    -0.2000620
units angstrom
no_reorient  #important for SAPT in psi4, default
symmetry c1  #important for SAPT in psi4, default
}

set PROPERTIES_ORIGIN ["COM"]
properties('MP2/aug-cc-pvtz', properties = ['dipole'])
--------------------------------------------------------------------------

    Molecular point group: c1
  Charge       = 0
  Multiplicity = 1
  Basis Set: AUG-CC-PVTZ
    Blend: AUG-CC-PVTZ
  Basis Set: (AUG-CC-PVTZ AUX)
    Blend: AUG-CC-PVTZ-JKFIT

    Orbital Energies [Eh]
    ---------------------

    Doubly Occupied:

       1A    -15.600123     2A    -11.265409     3A    -11.264866
       4A    -11.232357     5A    -11.230834     6A    -11.230711
       7A    -11.222975     8A    -11.222085     9A    -11.221514
      10A    -11.221324    11A     -1.291875    12A     -1.127078
      13A     -1.072282    14A     -0.997475    15A     -0.985422
      16A     -0.930996    17A     -0.838887    18A     -0.803097
      19A     -0.756035    20A     -0.719807    21A     -0.658972
      22A     -0.643810    23A     -0.603461    24A     -0.592911
      25A     -0.592011    26A     -0.569766    27A     -0.551623
      28A     -0.542180    29A     -0.528304    30A     -0.497810
      31A     -0.476469    32A     -0.461275    33A     -0.374520
      34A     -0.298781    35A     -0.277789

  @DF-RHF Final Energy:  -400.63759808896759

   => Energetics <=

    Nuclear Repulsion Energy =            483.1923460944876183
    One-Electron Energy =               -1499.8502202373711043
    Two-Electron Energy =                 616.0202760539158362
    Total Energy =                       -400.6375980889675930
  Basis Set: (AUG-CC-PVTZ AUX)
    Blend: AUG-CC-PVTZ-RI
    Molecular point group: c1

    Geometry (in Angstrom), charge = 0, multiplicity = 1:

       Center              X                  Y                   Z               Mass
    ------------   -----------------  -----------------  -----------------  -----------------
         N            0.656850765919     1.790114252120     0.001517732922    14.003074004430
         C            0.202292765919    -0.412714747880     0.001547732922    12.000000000000
         C           -0.379932234081     0.884898252120     0.001518732922    12.000000000000
         C            1.626476765919    -0.248876747880     0.001542732922    12.000000000000
         C            1.858149765919     1.109103252120     0.001600732922    12.000000000000
         C           -0.645510234081    -1.536353747880     0.001520732922    12.000000000000
         C           -1.765410234081     1.088593252120     0.001511732922    12.000000000000
         C            2.650058765919    -1.339294747880     0.001607732922    12.000000000000
         C           -2.019965234081    -1.339894747880     0.001506732922    12.000000000000
         C           -2.574230234081    -0.041261747880     0.001495732922    12.000000000000
         H            0.556358765919     2.796090252120     0.001506732922     1.007825032230
         H            2.797540765919     1.649337252120     0.001611732922     1.007825032230
         H           -0.231333234081    -2.543102747880     0.001532732922     1.007825032230
         H           -2.195193234081     2.088535252120     0.001492732922     1.007825032230
         H            2.552735765919    -1.980085747880     0.884717732922     1.007825032230
         H            2.552274765919    -1.980607747880    -0.881071267078     1.007825032230
         H            3.661404765919    -0.921668747880     0.001217732922     1.007825032230
         H           -2.685834234081    -2.199753747880     0.001486732922     1.007825032230
         H           -3.655277534081     0.077358252120    -0.198523267078     1.007825032230

  Basis Set: AUG-CC-PVTZ
    Blend: AUG-CC-PVTZ
  Basis Set: (AUG-CC-PVTZ AUX)
    Blend: AUG-CC-PVTZ-JKFIT
	 Reference Energy          =    -400.6375980889675930 [Eh]
	 Singles Energy            =      -0.0000000000000000 [Eh]
	 Same-Spin Energy          =      -0.4518468138369980 [Eh]
	 Opposite-Spin Energy      =      -1.4044424325221181 [Eh]
	 Correlation Energy        =      -1.8562892463591161 [Eh]
	 Total Energy              =    -402.4938873353266899 [Eh]

	 ================> DF-SCS-MP2 Energies <==================
	-----------------------------------------------------------
	 SCS Same-Spin Scale       =       0.3333333333333333 [-]
	 SCS Opposite-Spin Scale   =       1.2000000000000000 [-]
	 SCS Same-Spin Energy      =      -0.1506156046123326 [Eh]
	 SCS Opposite-Spin Energy  =      -1.6853309190265418 [Eh]
	 SCS Correlation Energy    =      -1.8359465236388743 [Eh]
	 SCS Total Energy          =    -402.4735446126064744 [Eh]
	-----------------------------------------------------------

  Dipole Moment: [D]
     X:     1.0017      Y:     1.8022      Z:    -0.1298     Total:     2.0660

*** Psi4 exiting successfully. Buy a developer a beer!
