                               Psi4 1.3.2 release

  ==> Input File <==

--------------------------------------------------------------------------
#psi4
#
memory 32 gb

molecule  {
0 1
  N        0.6331050     1.8115130    -0.0000210
  C        0.1785470    -0.3913160     0.0000090
  C       -0.4036780     0.9062970    -0.0000200
  C        1.6027310    -0.2274780     0.0000040
  C        1.8344040     1.1305020     0.0000620
  C       -0.6692560    -1.5149550    -0.0000180
  C       -1.7891560     1.1099920    -0.0000270
  C        2.6263130    -1.3178960     0.0000690
  C       -2.0437110    -1.3184960    -0.0000320
  C       -2.5979760    -0.0198630    -0.0000430
  H        0.5326012     2.8174966     0.2999680
  H        2.7737950     1.6707360     0.0000730
  H       -0.2550790    -2.5217040    -0.0000060
  H       -2.2189390     2.1099340    -0.0000460
  H        2.5289900    -1.9586870     0.8831790
  H        2.5285290    -1.9592090    -0.8826100
  H        3.6376590    -0.9002700    -0.0003210
  H       -2.7095800    -2.1783550    -0.0000520
  H       -3.6790270     0.0987570    -0.0000620
units angstrom
no_reorient  #important for SAPT in psi4, default
symmetry c1  #important for SAPT in psi4, default
}

set PROPERTIES_ORIGIN ["COM"]
properties('MP2/aug-cc-pvtz', properties = ['dipole'])
--------------------------------------------------------------------------

    Molecular point group: c1
  Charge       = 0
  Multiplicity = 1
  Basis Set: AUG-CC-PVTZ
    Blend: AUG-CC-PVTZ
  Basis Set: (AUG-CC-PVTZ AUX)
    Blend: AUG-CC-PVTZ-JKFIT

    Orbital Energies [Eh]
    ---------------------

    Doubly Occupied:

       1A    -15.601669     2A    -11.264767     3A    -11.263846
       4A    -11.232023     5A    -11.230865     6A    -11.229651
       7A    -11.223511     8A    -11.222429     9A    -11.221814
      10A    -11.221601    11A     -1.289018    12A     -1.126411
      13A     -1.070954    14A     -0.996856    15A     -0.985520
      16A     -0.928600    17A     -0.838207    18A     -0.800871
      19A     -0.754717    20A     -0.713069    21A     -0.659704
      22A     -0.644730    23A     -0.605220    24A     -0.596657
      25A     -0.584456    26A     -0.569546    27A     -0.551461
      28A     -0.540653    29A     -0.529505    30A     -0.497921
      31A     -0.476196    32A     -0.462327    33A     -0.374778
      34A     -0.299449    35A     -0.278364

  @DF-RHF Final Energy:  -400.63616576051538

   => Energetics <=

    Nuclear Repulsion Energy =            483.0564272981361569
    One-Electron Energy =               -1499.6104552185411194
    Two-Electron Energy =                 615.9178621598895234
    Total Energy =                       -400.6361657605153823
  Basis Set: (AUG-CC-PVTZ AUX)
    Blend: AUG-CC-PVTZ-RI
    Molecular point group: c1

    Geometry (in Angstrom), charge = 0, multiplicity = 1:

       Center              X                  Y                   Z               Mass
    ------------   -----------------  -----------------  -----------------  -----------------
         N            0.656850885099     1.790114193684    -0.002326770497    14.003074004430
         C            0.202292885099    -0.412714806316    -0.002296770497    12.000000000000
         C           -0.379932114901     0.884898193684    -0.002325770497    12.000000000000
         C            1.626476885099    -0.248876806316    -0.002301770497    12.000000000000
         C            1.858149885099     1.109103193684    -0.002243770497    12.000000000000
         C           -0.645510114901    -1.536353806316    -0.002323770497    12.000000000000
         C           -1.765410114901     1.088593193684    -0.002332770497    12.000000000000
         C            2.650058885099    -1.339294806316    -0.002236770497    12.000000000000
         C           -2.019965114901    -1.339894806316    -0.002337770497    12.000000000000
         C           -2.574230114901    -0.041261806316    -0.002348770497    12.000000000000
         H            0.556347085099     2.796097793684     0.297662229503     1.007825032230
         H            2.797540885099     1.649337193684    -0.002232770497     1.007825032230
         H           -0.231333114901    -2.543102806316    -0.002311770497     1.007825032230
         H           -2.195193114901     2.088535193684    -0.002351770497     1.007825032230
         H            2.552735885099    -1.980085806316     0.880873229503     1.007825032230
         H            2.552274885099    -1.980607806316    -0.884915770497     1.007825032230
         H            3.661404885099    -0.921668806316    -0.002626770497     1.007825032230
         H           -2.685834114901    -2.199753806316    -0.002357770497     1.007825032230
         H           -3.655281114901     0.077358193684    -0.002367770497     1.007825032230

  Basis Set: AUG-CC-PVTZ
    Blend: AUG-CC-PVTZ
  Basis Set: (AUG-CC-PVTZ AUX)
    Blend: AUG-CC-PVTZ-JKFIT
	 Reference Energy          =    -400.6361657605153823 [Eh]
	 Singles Energy            =      -0.0000000000000000 [Eh]
	 Same-Spin Energy          =      -0.4519184491894530 [Eh]
	 Opposite-Spin Energy      =      -1.4048195291633392 [Eh]
	 Correlation Energy        =      -1.8567379783527922 [Eh]
	 Total Energy              =    -402.4929037388681650 [Eh]

	 ================> DF-SCS-MP2 Energies <==================
	-----------------------------------------------------------
	 SCS Same-Spin Scale       =       0.3333333333333333 [-]
	 SCS Opposite-Spin Scale   =       1.2000000000000000 [-]
	 SCS Same-Spin Energy      =      -0.1506394830631510 [Eh]
	 SCS Opposite-Spin Energy  =      -1.6857834349960070 [Eh]
	 SCS Correlation Energy    =      -1.8364229180591580 [Eh]
	 SCS Total Energy          =    -402.4725886785745388 [Eh]
	-----------------------------------------------------------

  Dipole Moment: [D]
     X:     0.9442      Y:     1.7138      Z:     0.4174     Total:     2.0007

*** Psi4 exiting successfully. Buy a developer a beer!
