                               Psi4 1.3.2 release

  ==> Input File <==

--------------------------------------------------------------------------
#psi4
#
memory 32 gb

molecule  {
0 1
  N        0.6331050     1.8115130    -0.0000210
  C        0.1785470    -0.3913160     0.0000090
  C       -0.4036780     0.9062970    -0.0000200
  C        1.6027310    -0.2274780     0.0000040
  C        1.8344040     1.1305020     0.0000620
  C       -0.6692560    -1.5149550    -0.0000180
  C       -1.7891560     1.1099920    -0.0000270
  C        2.6263130    -1.3178960     0.0000690
  C       -2.0437110    -1.3184960    -0.0000320
  C       -2.5979760    -0.0198630    -0.0000430
  H        0.5326130     2.8174890    -0.0000320
  H        2.7737950     1.6707360     0.0000730
  H       -0.2550790    -2.5217040    -0.0000060
  H       -2.2189390     2.1099340    -0.0000460
  H        2.5289900    -1.9586870     0.8831790
  H        2.5285290    -1.9592090    -0.8826100
  H        3.6376636    -0.9002847     0.1496790
  H       -2.7095800    -2.1783550    -0.0000520
  H       -3.6790270     0.0987570    -0.0000620
units angstrom
no_reorient  #important for SAPT in psi4, default
symmetry c1  #important for SAPT in psi4, default
}

set PROPERTIES_ORIGIN ["COM"]
properties('MP2/aug-cc-pvtz', properties = ['dipole'])
--------------------------------------------------------------------------

    Molecular point group: c1
  Charge       = 0
  Multiplicity = 1
  Basis Set: AUG-CC-PVTZ
    Blend: AUG-CC-PVTZ
  Basis Set: (AUG-CC-PVTZ AUX)
    Blend: AUG-CC-PVTZ-JKFIT

    Orbital Energies [Eh]
    ---------------------

    Doubly Occupied:

       1A    -15.599954     2A    -11.265281     3A    -11.264573
       4A    -11.231856     5A    -11.230646     6A    -11.229448
       7A    -11.223047     8A    -11.222506     9A    -11.221647
      10A    -11.221063    11A     -1.291686    12A     -1.127023
      13A     -1.072096    14A     -0.997284    15A     -0.985637
      16A     -0.930629    17A     -0.838995    18A     -0.803911
      19A     -0.755713    20A     -0.720066    21A     -0.659930
      22A     -0.644603    23A     -0.604204    24A     -0.593275
      25A     -0.592026    26A     -0.570089    27A     -0.552100
      28A     -0.542466    29A     -0.526065    30A     -0.496567
      31A     -0.474994    32A     -0.463080    33A     -0.374567
      34A     -0.298688    35A     -0.277732

  @DF-RHF Final Energy:  -400.63797687884960

   => Energetics <=

    Nuclear Repulsion Energy =            483.2249655106888895
    One-Electron Energy =               -1499.9189893821699116
    Two-Electron Energy =                 616.0560469926314227
    Total Energy =                       -400.6379768788495994
  Basis Set: (AUG-CC-PVTZ AUX)
    Blend: AUG-CC-PVTZ-RI
    Molecular point group: c1

    Geometry (in Angstrom), charge = 0, multiplicity = 1:

       Center              X                  Y                   Z               Mass
    ------------   -----------------  -----------------  -----------------  -----------------
         N            0.656850758999     1.790114365149    -0.001173419471    14.003074004430
         C            0.202292758999    -0.412714634851    -0.001143419471    12.000000000000
         C           -0.379932241001     0.884898365149    -0.001172419471    12.000000000000
         C            1.626476758999    -0.248876634851    -0.001148419471    12.000000000000
         C            1.858149758999     1.109103365149    -0.001090419471    12.000000000000
         C           -0.645510241001    -1.536353634851    -0.001170419471    12.000000000000
         C           -1.765410241001     1.088593365149    -0.001179419471    12.000000000000
         C            2.650058758999    -1.339294634851    -0.001083419471    12.000000000000
         C           -2.019965241001    -1.339894634851    -0.001184419471    12.000000000000
         C           -2.574230241001    -0.041261634851    -0.001195419471    12.000000000000
         H            0.556358758999     2.796090365149    -0.001184419471     1.007825032230
         H            2.797540758999     1.649337365149    -0.001079419471     1.007825032230
         H           -0.231333241001    -2.543102634851    -0.001158419471     1.007825032230
         H           -2.195193241001     2.088535365149    -0.001198419471     1.007825032230
         H            2.552735758999    -1.980085634851     0.882026580529     1.007825032230
         H            2.552274758999    -1.980607634851    -0.883762419471     1.007825032230
         H            3.661409358999    -0.921683334851     0.148526580529     1.007825032230
         H           -2.685834241001    -2.199753634851    -0.001204419471     1.007825032230
         H           -3.655281241001     0.077358365149    -0.001214419471     1.007825032230

  Basis Set: AUG-CC-PVTZ
    Blend: AUG-CC-PVTZ
  Basis Set: (AUG-CC-PVTZ AUX)
    Blend: AUG-CC-PVTZ-JKFIT
	 Reference Energy          =    -400.6379768788495994 [Eh]
	 Singles Energy            =      -0.0000000000000000 [Eh]
	 Same-Spin Energy          =      -0.4517921522655131 [Eh]
	 Opposite-Spin Energy      =      -1.4043112455629043 [Eh]
	 Correlation Energy        =      -1.8561033978284174 [Eh]
	 Total Energy              =    -402.4940802766780052 [Eh]

	 ================> DF-SCS-MP2 Energies <==================
	-----------------------------------------------------------
	 SCS Same-Spin Scale       =       0.3333333333333333 [-]
	 SCS Opposite-Spin Scale   =       1.2000000000000000 [-]
	 SCS Same-Spin Energy      =      -0.1505973840885043 [Eh]
	 SCS Opposite-Spin Energy  =      -1.6851734946754851 [Eh]
	 SCS Correlation Energy    =      -1.8357708787639895 [Eh]
	 SCS Total Energy          =    -402.4737477576135802 [Eh]
	-----------------------------------------------------------

  Dipole Moment: [D]
     X:     0.9481      Y:     1.8005      Z:     0.0520     Total:     2.0355

*** Psi4 exiting successfully. Buy a developer a beer!
