                               Psi4 1.3.2 release

  ==> Input File <==

--------------------------------------------------------------------------
#psi4
#
memory 32 gb

molecule  {
0 1
  N        0.6331050     1.8115130    -0.0000210
  C        0.1785470    -0.3913160     0.0000090
  C       -0.4036780     0.9062970    -0.0000200
  C        1.6027310    -0.2274780     0.0000040
  C        1.8344040     1.1305020     0.0000620
  C       -0.6692560    -1.5149550    -0.0000180
  C       -1.7891560     1.1099920    -0.0000270
  C        2.6263130    -1.3178960     0.0000690
  C       -2.0437110    -1.3184960    -0.0000320
  C       -2.5979760    -0.0198630    -0.0000430
  H        0.5326091     2.8174915     0.0999680
  H        2.7737950     1.6707360     0.0000730
  H       -0.2550790    -2.5217040    -0.0000060
  H       -2.2189390     2.1099340    -0.0000460
  H        2.5289900    -1.9586870     0.8831790
  H        2.5285290    -1.9592090    -0.8826100
  H        3.6376590    -0.9002700    -0.0003210
  H       -2.7095800    -2.1783550    -0.0000520
  H       -3.6790270     0.0987570    -0.0000620
units angstrom
no_reorient  #important for SAPT in psi4, default
symmetry c1  #important for SAPT in psi4, default
}

set PROPERTIES_ORIGIN ["COM"]
properties('MP2/aug-cc-pvtz', properties = ['dipole'])
--------------------------------------------------------------------------

    Molecular point group: c1
  Charge       = 0
  Multiplicity = 1
  Basis Set: AUG-CC-PVTZ
    Blend: AUG-CC-PVTZ
  Basis Set: (AUG-CC-PVTZ AUX)
    Blend: AUG-CC-PVTZ-JKFIT

    Orbital Energies [Eh]
    ---------------------

    Doubly Occupied:

       1A    -15.600125     2A    -11.265210     3A    -11.264466
       4A    -11.231863     5A    -11.230668     6A    -11.229466
       7A    -11.222808     8A    -11.221885     9A    -11.221399
      10A    -11.221113    11A     -1.291344    12A     -1.126934
      13A     -1.071999    14A     -0.997253    15A     -0.985712
      16A     -0.930634    17A     -0.838882    18A     -0.803570
      19A     -0.755687    20A     -0.719292    21A     -0.659923
      22A     -0.644617    23A     -0.603766    24A     -0.594337
      25A     -0.589877    26A     -0.569678    27A     -0.551370
      28A     -0.542136    29A     -0.529673    30A     -0.497682
      31A     -0.475831    32A     -0.462982    33A     -0.374570
      34A     -0.298762    35A     -0.277777

  @DF-RHF Final Energy:  -400.63987066316940

   => Energetics <=

    Nuclear Repulsion Energy =            483.2371797636814108
    One-Electron Energy =               -1499.9475185844567022
    Two-Electron Energy =                 616.0704681576058874
    Total Energy =                       -400.6398706631694040
  Basis Set: (AUG-CC-PVTZ AUX)
    Blend: AUG-CC-PVTZ-RI
    Molecular point group: c1

    Geometry (in Angstrom), charge = 0, multiplicity = 1:

       Center              X                  Y                   Z               Mass
    ------------   -----------------  -----------------  -----------------  -----------------
         N            0.656850824356     1.790114232898    -0.000788969129    14.003074004430
         C            0.202292824356    -0.412714767102    -0.000758969129    12.000000000000
         C           -0.379932175644     0.884898232898    -0.000787969129    12.000000000000
         C            1.626476824356    -0.248876767102    -0.000763969129    12.000000000000
         C            1.858149824356     1.109103232898    -0.000705969129    12.000000000000
         C           -0.645510175644    -1.536353767102    -0.000785969129    12.000000000000
         C           -1.765410175644     1.088593232898    -0.000794969129    12.000000000000
         C            2.650058824356    -1.339294767102    -0.000698969129    12.000000000000
         C           -2.019965175644    -1.339894767102    -0.000799969129    12.000000000000
         C           -2.574230175644    -0.041261767102    -0.000810969129    12.000000000000
         H            0.556354924356     2.796092732898     0.099200030871     1.007825032230
         H            2.797540824356     1.649337232898    -0.000694969129     1.007825032230
         H           -0.231333175644    -2.543102767102    -0.000773969129     1.007825032230
         H           -2.195193175644     2.088535232898    -0.000813969129     1.007825032230
         H            2.552735824356    -1.980085767102     0.882411030871     1.007825032230
         H            2.552274824356    -1.980607767102    -0.883377969129     1.007825032230
         H            3.661404824356    -0.921668767102    -0.001088969129     1.007825032230
         H           -2.685834175644    -2.199753767102    -0.000819969129     1.007825032230
         H           -3.655281175644     0.077358232898    -0.000829969129     1.007825032230

  Basis Set: AUG-CC-PVTZ
    Blend: AUG-CC-PVTZ
  Basis Set: (AUG-CC-PVTZ AUX)
    Blend: AUG-CC-PVTZ-JKFIT
	 Reference Energy          =    -400.6398706631694040 [Eh]
	 Singles Energy            =      -0.0000000000000000 [Eh]
	 Same-Spin Energy          =      -0.4517168522510540 [Eh]
	 Opposite-Spin Energy      =      -1.4041978262444030 [Eh]
	 Correlation Energy        =      -1.8559146784954570 [Eh]
	 Total Energy              =    -402.4957853416648845 [Eh]

	 ================> DF-SCS-MP2 Energies <==================
	-----------------------------------------------------------
	 SCS Same-Spin Scale       =       0.3333333333333333 [-]
	 SCS Opposite-Spin Scale   =       1.2000000000000000 [-]
	 SCS Same-Spin Energy      =      -0.1505722840836846 [Eh]
	 SCS Opposite-Spin Energy  =      -1.6850373914932837 [Eh]
	 SCS Correlation Energy    =      -1.8356096755769684 [Eh]
	 SCS Total Energy          =    -402.4754803387463653 [Eh]
	-----------------------------------------------------------

  Dipole Moment: [D]
     X:     0.9557      Y:     1.7945      Z:     0.1416     Total:     2.0380

*** Psi4 exiting successfully. Buy a developer a beer!
