                               Psi4 1.3.2 release

  ==> Input File <==

--------------------------------------------------------------------------
#psi4
#
memory 32 gb

molecule  {
0 1
  N        0.6331050     1.8115130    -0.0000210
  C        0.1785470    -0.3913160     0.0000090
  C       -0.4036780     0.9062970    -0.0000200
  C        1.6027310    -0.2274780     0.0000040
  C        1.8344040     1.1305020     0.0000620
  C       -0.6692560    -1.5149550    -0.0000180
  C       -1.7891560     1.1099920    -0.0000270
  C        2.6263183    -1.3178948    -0.1999310
  C       -2.0437110    -1.3184960    -0.0000320
  C       -2.5979760    -0.0198630    -0.0000430
  H        0.5326130     2.8174890    -0.0000320
  H        2.7737950     1.6707360     0.0000730
  H       -0.2550790    -2.5217040    -0.0000060
  H       -2.2189390     2.1099340    -0.0000460
  H        2.5289900    -1.9586870     0.8831790
  H        2.5285290    -1.9592090    -0.8826100
  H        3.6376590    -0.9002700    -0.0003210
  H       -2.7095800    -2.1783550    -0.0000520
  H       -3.6790270     0.0987570    -0.0000620
units angstrom
no_reorient  #important for SAPT in psi4, default
symmetry c1  #important for SAPT in psi4, default
}

set PROPERTIES_ORIGIN ["COM"]
properties('MP2/aug-cc-pvtz', properties = ['dipole'])
--------------------------------------------------------------------------

    Molecular point group: c1
  Charge       = 0
  Multiplicity = 1
  Basis Set: AUG-CC-PVTZ
    Blend: AUG-CC-PVTZ
  Basis Set: (AUG-CC-PVTZ AUX)
    Blend: AUG-CC-PVTZ-JKFIT

    Orbital Energies [Eh]
    ---------------------

    Doubly Occupied:

       1A    -15.600790     2A    -11.265815     3A    -11.265626
       4A    -11.232203     5A    -11.230908     6A    -11.229830
       7A    -11.227583     8A    -11.225552     9A    -11.222400
      10A    -11.221336    11A     -1.292457    12A     -1.127401
      13A     -1.072431    14A     -0.997819    15A     -0.986472
      16A     -0.935522    17A     -0.839558    18A     -0.804362
      19A     -0.759817    20A     -0.722215    21A     -0.663917
      22A     -0.646767    23A     -0.610219    24A     -0.598835
      25A     -0.592719    26A     -0.579988    27A     -0.564681
      28A     -0.533594    29A     -0.509139    30A     -0.485056
      31A     -0.473762    32A     -0.463431    33A     -0.371805
      34A     -0.299047    35A     -0.277418

  @DF-RHF Final Energy:  -400.59883549473972

   => Energetics <=

    Nuclear Repulsion Energy =            483.1064769477156915
    One-Electron Energy =               -1499.5496806767243925
    Two-Electron Energy =                 615.8443682342690408
    Total Energy =                       -400.5988354947396601
  Basis Set: (AUG-CC-PVTZ AUX)
    Blend: AUG-CC-PVTZ-RI
    Molecular point group: c1

    Geometry (in Angstrom), charge = 0, multiplicity = 1:

       Center              X                  Y                   Z               Mass
    ------------   -----------------  -----------------  -----------------  -----------------
         N            0.656850309145     1.790114142258     0.018290268983    14.003074004430
         C            0.202292309145    -0.412714857742     0.018320268983    12.000000000000
         C           -0.379932690855     0.884898142258     0.018291268983    12.000000000000
         C            1.626476309145    -0.248876857742     0.018315268983    12.000000000000
         C            1.858149309145     1.109103142258     0.018373268983    12.000000000000
         C           -0.645510690855    -1.536353857742     0.018293268983    12.000000000000
         C           -1.765410690855     1.088593142258     0.018284268983    12.000000000000
         C            2.650063609145    -1.339293657742    -0.181619731017    12.000000000000
         C           -2.019965690855    -1.339894857742     0.018279268983    12.000000000000
         C           -2.574230690855    -0.041261857742     0.018268268983    12.000000000000
         H            0.556358309145     2.796090142258     0.018279268983     1.007825032230
         H            2.797540309145     1.649337142258     0.018384268983     1.007825032230
         H           -0.231333690855    -2.543102857742     0.018305268983     1.007825032230
         H           -2.195193690855     2.088535142258     0.018265268983     1.007825032230
         H            2.552735309145    -1.980085857742     0.901490268983     1.007825032230
         H            2.552274309145    -1.980607857742    -0.864298731017     1.007825032230
         H            3.661404309145    -0.921668857742     0.017990268983     1.007825032230
         H           -2.685834690855    -2.199753857742     0.018259268983     1.007825032230
         H           -3.655281690855     0.077358142258     0.018249268983     1.007825032230

  Basis Set: AUG-CC-PVTZ
    Blend: AUG-CC-PVTZ
  Basis Set: (AUG-CC-PVTZ AUX)
    Blend: AUG-CC-PVTZ-JKFIT
	 Reference Energy          =    -400.5988354947397170 [Eh]
	 Singles Energy            =      -0.0000000000000000 [Eh]
	 Same-Spin Energy          =      -0.4521609896553568 [Eh]
	 Opposite-Spin Energy      =      -1.4057925175310977 [Eh]
	 Correlation Energy        =      -1.8579535071864544 [Eh]
	 Total Energy              =    -402.4567890019261540 [Eh]

	 ================> DF-SCS-MP2 Energies <==================
	-----------------------------------------------------------
	 SCS Same-Spin Scale       =       0.3333333333333333 [-]
	 SCS Opposite-Spin Scale   =       1.2000000000000000 [-]
	 SCS Same-Spin Energy      =      -0.1507203298851189 [Eh]
	 SCS Opposite-Spin Energy  =      -1.6869510210373171 [Eh]
	 SCS Correlation Energy    =      -1.8376713509224361 [Eh]
	 SCS Total Energy          =    -402.4365068456621657 [Eh]
	-----------------------------------------------------------

  Dipole Moment: [D]
     X:     0.9091      Y:     1.8729      Z:    -0.1257     Total:     2.0857

*** Psi4 exiting successfully. Buy a developer a beer!
