                               Psi4 1.3.2 release

  ==> Input File <==

--------------------------------------------------------------------------
#psi4
#
memory 32 gb

molecule  {
0 1
  N        0.6331050     1.8115130    -0.0000210
  C        0.1785470    -0.3913160     0.0000090
  C       -0.4036780     0.9062970    -0.0000200
  C        1.6027310    -0.2274780     0.0000040
  C        1.8344040     1.1305020     0.0000620
  C       -0.6692560    -1.5149550    -0.0000180
  C       -1.7891560     1.1099920    -0.0000270
  C        2.6263130    -1.3178960     0.0000690
  C       -2.0437110    -1.3184960    -0.0000320
  C       -2.5979760    -0.0198630    -0.0000430
  H        0.5326130     2.8174890    -0.0000320
  H        2.7737950     1.6707360     0.0000730
  H       -0.2550790    -2.5217040    -0.0000060
  H       -2.2189390     2.1099340    -0.0000460
  H        2.5289900    -1.9586870     0.8831790
  H        2.5285290    -1.9592090    -0.8826100
  H        3.6376590    -0.9002700    -0.0003210
  H       -2.7095823    -2.1783555     0.1499480
  H       -3.6790270     0.0987570    -0.0000620
units angstrom
no_reorient  #important for SAPT in psi4, default
symmetry c1  #important for SAPT in psi4, default
}

set PROPERTIES_ORIGIN ["COM"]
properties('MP2/aug-cc-pvtz', properties = ['dipole'])
--------------------------------------------------------------------------

    Molecular point group: c1
  Charge       = 0
  Multiplicity = 1
  Basis Set: AUG-CC-PVTZ
    Blend: AUG-CC-PVTZ
  Basis Set: (AUG-CC-PVTZ AUX)
    Blend: AUG-CC-PVTZ-JKFIT

    Orbital Energies [Eh]
    ---------------------

    Doubly Occupied:

       1A    -15.600081     2A    -11.265497     3A    -11.264639
       4A    -11.231918     5A    -11.230877     6A    -11.229599
       7A    -11.222833     8A    -11.221954     9A    -11.221885
      10A    -11.221428    11A     -1.291809    12A     -1.127068
      13A     -1.072255    14A     -0.997211    15A     -0.985725
      16A     -0.931017    17A     -0.838794    18A     -0.803760
      19A     -0.755703    20A     -0.720167    21A     -0.659733
      22A     -0.643513    23A     -0.603620    24A     -0.592774
      25A     -0.591854    26A     -0.569756    27A     -0.551474
      28A     -0.542261    29A     -0.529598    30A     -0.497527
      31A     -0.475912    32A     -0.462047    33A     -0.374656
      34A     -0.298643    35A     -0.277799

  @DF-RHF Final Energy:  -400.63878462126144

   => Energetics <=

    Nuclear Repulsion Energy =            483.2219442096268267
    One-Electron Energy =               -1499.9106832425691209
    Two-Electron Energy =                 616.0499544116809147
    Total Energy =                       -400.6387846212613795
  Basis Set: (AUG-CC-PVTZ AUX)
    Blend: AUG-CC-PVTZ-RI
    Molecular point group: c1

    Geometry (in Angstrom), charge = 0, multiplicity = 1:

       Center              X                  Y                   Z               Mass
    ------------   -----------------  -----------------  -----------------  -----------------
         N            0.656850812053     1.790114255965    -0.001173419471    14.003074004430
         C            0.202292812053    -0.412714744035    -0.001143419471    12.000000000000
         C           -0.379932187947     0.884898255965    -0.001172419471    12.000000000000
         C            1.626476812053    -0.248876744035    -0.001148419471    12.000000000000
         C            1.858149812053     1.109103255965    -0.001090419471    12.000000000000
         C           -0.645510187947    -1.536353744035    -0.001170419471    12.000000000000
         C           -1.765410187947     1.088593255965    -0.001179419471    12.000000000000
         C            2.650058812053    -1.339294744035    -0.001083419471    12.000000000000
         C           -2.019965187947    -1.339894744035    -0.001184419471    12.000000000000
         C           -2.574230187947    -0.041261744035    -0.001195419471    12.000000000000
         H            0.556358812053     2.796090255965    -0.001184419471     1.007825032230
         H            2.797540812053     1.649337255965    -0.001079419471     1.007825032230
         H           -0.231333187947    -2.543102744035    -0.001158419471     1.007825032230
         H           -2.195193187947     2.088535255965    -0.001198419471     1.007825032230
         H            2.552735812053    -1.980085744035     0.882026580529     1.007825032230
         H            2.552274812053    -1.980607744035    -0.883762419471     1.007825032230
         H            3.661404812053    -0.921668744035    -0.001473419471     1.007825032230
         H           -2.685836487947    -2.199754244035     0.148795580529     1.007825032230
         H           -3.655281187947     0.077358255965    -0.001214419471     1.007825032230

  Basis Set: AUG-CC-PVTZ
    Blend: AUG-CC-PVTZ
  Basis Set: (AUG-CC-PVTZ AUX)
    Blend: AUG-CC-PVTZ-JKFIT
	 Reference Energy          =    -400.6387846212614363 [Eh]
	 Singles Energy            =      -0.0000000000000000 [Eh]
	 Same-Spin Energy          =      -0.4517603266027393 [Eh]
	 Opposite-Spin Energy      =      -1.4042540152408098 [Eh]
	 Correlation Energy        =      -1.8560143418435491 [Eh]
	 Total Energy              =    -402.4947989631049836 [Eh]

	 ================> DF-SCS-MP2 Energies <==================
	-----------------------------------------------------------
	 SCS Same-Spin Scale       =       0.3333333333333333 [-]
	 SCS Opposite-Spin Scale   =       1.2000000000000000 [-]
	 SCS Same-Spin Energy      =      -0.1505867755342464 [Eh]
	 SCS Opposite-Spin Energy  =      -1.6851048182889719 [Eh]
	 SCS Correlation Energy    =      -1.8356915938232183 [Eh]
	 SCS Total Energy          =    -402.4744762150846782 [Eh]
	-----------------------------------------------------------

  Dipole Moment: [D]
     X:     0.9747      Y:     1.8228      Z:     0.0963     Total:     2.0693

*** Psi4 exiting successfully. Buy a developer a beer!
