                               Psi4 1.3.2 release

  ==> Input File <==

--------------------------------------------------------------------------
#psi4
#
memory 32 gb

molecule  {
0 1
  N        0.6331050     1.8115130    -0.0000210
  C        0.1785470    -0.3913160     0.0000090
  C       -0.4036780     0.9062970    -0.0000200
  C        1.6027310    -0.2274780     0.0000040
  C        1.8344040     1.1305020     0.0000620
  C       -0.6692560    -1.5149550    -0.0000180
  C       -1.7891560     1.1099920    -0.0000270
  C        2.6263130    -1.3178960     0.0000690
  C       -2.0437110    -1.3184960    -0.0000320
  C       -2.5979760    -0.0198630    -0.0000430
  H        0.5326130     2.8174890    -0.0000320
  H        2.7737950     1.6707360     0.0000730
  H       -0.2550790    -2.5217040    -0.0000060
  H       -2.2189390     2.1099340    -0.0000460
  H        2.5289900    -1.9586870     0.8831790
  H        2.5285290    -1.9592090    -0.8826100
  H        3.6376621    -0.9002798     0.0996790
  H       -2.7095800    -2.1783550    -0.0000520
  H       -3.6790270     0.0987570    -0.0000620
units angstrom
no_reorient  #important for SAPT in psi4, default
symmetry c1  #important for SAPT in psi4, default
}

set PROPERTIES_ORIGIN ["COM"]
properties('MP2/aug-cc-pvtz', properties = ['dipole'])
--------------------------------------------------------------------------

    Molecular point group: c1
  Charge       = 0
  Multiplicity = 1
  Basis Set: AUG-CC-PVTZ
    Blend: AUG-CC-PVTZ
  Basis Set: (AUG-CC-PVTZ AUX)
    Blend: AUG-CC-PVTZ-JKFIT

    Orbital Energies [Eh]
    ---------------------

    Doubly Occupied:

       1A    -15.599939     2A    -11.265275     3A    -11.264561
       4A    -11.231848     5A    -11.230644     6A    -11.229444
       7A    -11.222779     8A    -11.222112     9A    -11.221572
      10A    -11.221055    11A     -1.291673    12A     -1.127015
      13A     -1.072124    14A     -0.997300    15A     -0.985692
      16A     -0.930790    17A     -0.838990    18A     -0.803932
      19A     -0.755777    20A     -0.720060    21A     -0.659942
      22A     -0.644601    23A     -0.603829    24A     -0.592977
      25A     -0.591989    26A     -0.569885    27A     -0.551734
      28A     -0.542385    29A     -0.527963    30A     -0.497178
      31A     -0.475446    32A     -0.463073    33A     -0.374553
      34A     -0.298679    35A     -0.277713

  @DF-RHF Final Energy:  -400.63921505202563

   => Energetics <=

    Nuclear Repulsion Energy =            483.2448951004811875
    One-Electron Energy =               -1499.9591589991632645
    Two-Electron Energy =                 616.0750488466563866
    Total Energy =                       -400.6392150520256337
  Basis Set: (AUG-CC-PVTZ AUX)
    Blend: AUG-CC-PVTZ-RI
    Molecular point group: c1

    Geometry (in Angstrom), charge = 0, multiplicity = 1:

       Center              X                  Y                   Z               Mass
    ------------   -----------------  -----------------  -----------------  -----------------
         N            0.656850770533     1.790114327472    -0.000788969129    14.003074004430
         C            0.202292770533    -0.412714672528    -0.000758969129    12.000000000000
         C           -0.379932229467     0.884898327472    -0.000787969129    12.000000000000
         C            1.626476770533    -0.248876672528    -0.000763969129    12.000000000000
         C            1.858149770533     1.109103327472    -0.000705969129    12.000000000000
         C           -0.645510229467    -1.536353672528    -0.000785969129    12.000000000000
         C           -1.765410229467     1.088593327472    -0.000794969129    12.000000000000
         C            2.650058770533    -1.339294672528    -0.000698969129    12.000000000000
         C           -2.019965229467    -1.339894672528    -0.000799969129    12.000000000000
         C           -2.574230229467    -0.041261672528    -0.000810969129    12.000000000000
         H            0.556358770533     2.796090327472    -0.000799969129     1.007825032230
         H            2.797540770533     1.649337327472    -0.000694969129     1.007825032230
         H           -0.231333229467    -2.543102672528    -0.000773969129     1.007825032230
         H           -2.195193229467     2.088535327472    -0.000813969129     1.007825032230
         H            2.552735770533    -1.980085672528     0.882411030871     1.007825032230
         H            2.552274770533    -1.980607672528    -0.883377969129     1.007825032230
         H            3.661407870533    -0.921678472528     0.098911030871     1.007825032230
         H           -2.685834229467    -2.199753672528    -0.000819969129     1.007825032230
         H           -3.655281229467     0.077358327472    -0.000829969129     1.007825032230

  Basis Set: AUG-CC-PVTZ
    Blend: AUG-CC-PVTZ
  Basis Set: (AUG-CC-PVTZ AUX)
    Blend: AUG-CC-PVTZ-JKFIT
	 Reference Energy          =    -400.6392150520256337 [Eh]
	 Singles Energy            =      -0.0000000000000000 [Eh]
	 Same-Spin Energy          =      -0.4517366516763418 [Eh]
	 Opposite-Spin Energy      =      -1.4042076247249924 [Eh]
	 Correlation Energy        =      -1.8559442764013343 [Eh]
	 Total Energy              =    -402.4951593284269507 [Eh]

	 ================> DF-SCS-MP2 Energies <==================
	-----------------------------------------------------------
	 SCS Same-Spin Scale       =       0.3333333333333333 [-]
	 SCS Opposite-Spin Scale   =       1.2000000000000000 [-]
	 SCS Same-Spin Energy      =      -0.1505788838921139 [Eh]
	 SCS Opposite-Spin Energy  =      -1.6850491496699909 [Eh]
	 SCS Correlation Energy    =      -1.8356280335621049 [Eh]
	 SCS Total Energy          =    -402.4748430855877359 [Eh]
	-----------------------------------------------------------

  Dipole Moment: [D]
     X:     0.9532      Y:     1.8030      Z:     0.0345     Total:     2.0398

*** Psi4 exiting successfully. Buy a developer a beer!
