                               Psi4 1.3.2 release

  ==> Input File <==

--------------------------------------------------------------------------
#psi4
#
memory 32 gb

molecule  {
0 1
  N        0.6331050     1.8115130    -0.0000210
  C        0.1785470    -0.3913160     0.0000090
  C       -0.4036780     0.9062970    -0.0000200
  C        1.6027310    -0.2274780     0.0000040
  C        1.8344040     1.1305020     0.0000620
  C       -0.6692560    -1.5149550    -0.0000180
  C       -1.7891543     1.1099882    -0.2500270
  C        2.6263130    -1.3178960     0.0000690
  C       -2.0437110    -1.3184960    -0.0000320
  C       -2.5979760    -0.0198630    -0.0000430
  H        0.5326130     2.8174890    -0.0000320
  H        2.7737950     1.6707360     0.0000730
  H       -0.2550790    -2.5217040    -0.0000060
  H       -2.2189390     2.1099340    -0.0000460
  H        2.5289900    -1.9586870     0.8831790
  H        2.5285290    -1.9592090    -0.8826100
  H        3.6376590    -0.9002700    -0.0003210
  H       -2.7095800    -2.1783550    -0.0000520
  H       -3.6790270     0.0987570    -0.0000620
units angstrom
no_reorient  #important for SAPT in psi4, default
symmetry c1  #important for SAPT in psi4, default
}

set PROPERTIES_ORIGIN ["COM"]
properties('MP2/aug-cc-pvtz', properties = ['dipole'])
--------------------------------------------------------------------------

    Molecular point group: c1
  Charge       = 0
  Multiplicity = 1
  Basis Set: AUG-CC-PVTZ
    Blend: AUG-CC-PVTZ
  Basis Set: (AUG-CC-PVTZ AUX)
    Blend: AUG-CC-PVTZ-JKFIT

    Orbital Energies [Eh]
    ---------------------

    Doubly Occupied:

       1A    -15.600301     2A    -11.269175     3A    -11.264495
       4A    -11.236348     5A    -11.235129     6A    -11.234598
       7A    -11.223340     8A    -11.222175     9A    -11.221869
      10A    -11.221398    11A     -1.291982    12A     -1.125876
      13A     -1.071343    14A     -0.995217    15A     -0.985627
      16A     -0.931035    17A     -0.838683    18A     -0.801946
      19A     -0.754617    20A     -0.717983    21A     -0.660262
      22A     -0.641830    23A     -0.601869    24A     -0.592267
      25A     -0.586053    26A     -0.568070    27A     -0.550874
      28A     -0.542776    29A     -0.528910    30A     -0.497590
      31A     -0.473672    32A     -0.459982    33A     -0.374313
      34A     -0.298984    35A     -0.277978

  @DF-RHF Final Energy:  -400.62183494652481

   => Energetics <=

    Nuclear Repulsion Energy =            482.5603364639424626
    One-Electron Energy =               -1498.5672089904780933
    Two-Electron Energy =                 615.3850375800108168
    Total Energy =                       -400.6218349465248139
  Basis Set: (AUG-CC-PVTZ AUX)
    Blend: AUG-CC-PVTZ-RI
    Molecular point group: c1

    Geometry (in Angstrom), charge = 0, multiplicity = 1:

       Center              X                  Y                   Z               Mass
    ------------   -----------------  -----------------  -----------------  -----------------
         N            0.656850638731     1.790114600017     0.022867853340    14.003074004430
         C            0.202292638731    -0.412714399983     0.022897853340    12.000000000000
         C           -0.379932361269     0.884898600017     0.022868853340    12.000000000000
         C            1.626476638731    -0.248876399983     0.022892853340    12.000000000000
         C            1.858149638731     1.109103600017     0.022950853340    12.000000000000
         C           -0.645510361269    -1.536353399983     0.022870853340    12.000000000000
         C           -1.765408661269     1.088589800017    -0.227138146660    12.000000000000
         C            2.650058638731    -1.339294399983     0.022957853340    12.000000000000
         C           -2.019965361269    -1.339894399983     0.022856853340    12.000000000000
         C           -2.574230361269    -0.041261399983     0.022845853340    12.000000000000
         H            0.556358638731     2.796090600017     0.022856853340     1.007825032230
         H            2.797540638731     1.649337600017     0.022961853340     1.007825032230
         H           -0.231333361269    -2.543102399983     0.022882853340     1.007825032230
         H           -2.195193361269     2.088535600017     0.022842853340     1.007825032230
         H            2.552735638731    -1.980085399983     0.906067853340     1.007825032230
         H            2.552274638731    -1.980607399983    -0.859721146660     1.007825032230
         H            3.661404638731    -0.921668399983     0.022567853340     1.007825032230
         H           -2.685834361269    -2.199753399983     0.022836853340     1.007825032230
         H           -3.655281361269     0.077358600017     0.022826853340     1.007825032230

  Basis Set: AUG-CC-PVTZ
    Blend: AUG-CC-PVTZ
  Basis Set: (AUG-CC-PVTZ AUX)
    Blend: AUG-CC-PVTZ-JKFIT
	 Reference Energy          =    -400.6218349465248139 [Eh]
	 Singles Energy            =      -0.0000000000000000 [Eh]
	 Same-Spin Energy          =      -0.4525132635483446 [Eh]
	 Opposite-Spin Energy      =      -1.4065566107480802 [Eh]
	 Correlation Energy        =      -1.8590698742964249 [Eh]
	 Total Energy              =    -402.4809048208212516 [Eh]

	 ================> DF-SCS-MP2 Energies <==================
	-----------------------------------------------------------
	 SCS Same-Spin Scale       =       0.3333333333333333 [-]
	 SCS Opposite-Spin Scale   =       1.2000000000000000 [-]
	 SCS Same-Spin Energy      =      -0.1508377545161149 [Eh]
	 SCS Opposite-Spin Energy  =      -1.6878679328976962 [Eh]
	 SCS Correlation Energy    =      -1.8387056874138110 [Eh]
	 SCS Total Energy          =    -402.4605406339386491 [Eh]
	-----------------------------------------------------------

  Dipole Moment: [D]
     X:     1.0442      Y:     1.6576      Z:     0.1732     Total:     1.9667

*** Psi4 exiting successfully. Buy a developer a beer!
