                               Psi4 1.3.2 release

  ==> Input File <==

--------------------------------------------------------------------------
#psi4
#
memory 32 gb

molecule  {
0 1
  N        0.6331050     1.8115130    -0.0000210
  C        0.1785470    -0.3913160     0.0000090
  C       -0.4036780     0.9062970    -0.0000200
  C        1.6027310    -0.2274780     0.0000040
  C        1.8344040     1.1305020     0.0000620
  C       -0.6692560    -1.5149550    -0.0000180
  C       -1.7891560     1.1099920    -0.0000270
  C        2.6263170    -1.3178951    -0.1499310
  C       -2.0437110    -1.3184960    -0.0000320
  C       -2.5979760    -0.0198630    -0.0000430
  H        0.5326130     2.8174890    -0.0000320
  H        2.7737950     1.6707360     0.0000730
  H       -0.2550790    -2.5217040    -0.0000060
  H       -2.2189390     2.1099340    -0.0000460
  H        2.5289900    -1.9586870     0.8831790
  H        2.5285290    -1.9592090    -0.8826100
  H        3.6376590    -0.9002700    -0.0003210
  H       -2.7095800    -2.1783550    -0.0000520
  H       -3.6790270     0.0987570    -0.0000620
units angstrom
no_reorient  #important for SAPT in psi4, default
symmetry c1  #important for SAPT in psi4, default
}

set PROPERTIES_ORIGIN ["COM"]
properties('MP2/aug-cc-pvtz', properties = ['dipole'])
--------------------------------------------------------------------------

    Molecular point group: c1
  Charge       = 0
  Multiplicity = 1
  Basis Set: AUG-CC-PVTZ
    Blend: AUG-CC-PVTZ
  Basis Set: (AUG-CC-PVTZ AUX)
    Blend: AUG-CC-PVTZ-JKFIT

    Orbital Energies [Eh]
    ---------------------

    Doubly Occupied:

       1A    -15.600417     2A    -11.265579     3A    -11.265161
       4A    -11.232046     5A    -11.230792     6A    -11.229661
       7A    -11.225050     8A    -11.224105     9A    -11.222177
      10A    -11.221211    11A     -1.292114    12A     -1.127231
      13A     -1.072306    14A     -0.997592    15A     -0.986140
      16A     -0.933470    17A     -0.839310    18A     -0.804182
      19A     -0.757995    20A     -0.721279    21A     -0.662106
      22A     -0.645855    23A     -0.606462    24A     -0.596972
      25A     -0.592619    26A     -0.576622    27A     -0.564522
      28A     -0.534555    29A     -0.513138    30A     -0.491273
      31A     -0.475055    32A     -0.463280    33A     -0.373019
      34A     -0.298884    35A     -0.277548

  @DF-RHF Final Energy:  -400.61709320544338

   => Energetics <=

    Nuclear Repulsion Energy =            483.1737171996153393
    One-Electron Energy =               -1499.7421651341508095
    Two-Electron Energy =                 615.9513547290921451
    Total Energy =                       -400.6170932054433251
  Basis Set: (AUG-CC-PVTZ AUX)
    Blend: AUG-CC-PVTZ-RI
    Molecular point group: c1

    Geometry (in Angstrom), charge = 0, multiplicity = 1:

       Center              X                  Y                   Z               Mass
    ------------   -----------------  -----------------  -----------------  -----------------
         N            0.656850428162     1.790114169724     0.013712684626    14.003074004430
         C            0.202292428162    -0.412714830276     0.013742684626    12.000000000000
         C           -0.379932571838     0.884898169724     0.013713684626    12.000000000000
         C            1.626476428162    -0.248876830276     0.013737684626    12.000000000000
         C            1.858149428162     1.109103169724     0.013795684626    12.000000000000
         C           -0.645510571838    -1.536353830276     0.013715684626    12.000000000000
         C           -1.765410571838     1.088593169724     0.013706684626    12.000000000000
         C            2.650062428162    -1.339293930276    -0.136197315374    12.000000000000
         C           -2.019965571838    -1.339894830276     0.013701684626    12.000000000000
         C           -2.574230571838    -0.041261830276     0.013690684626    12.000000000000
         H            0.556358428162     2.796090169724     0.013701684626     1.007825032230
         H            2.797540428162     1.649337169724     0.013806684626     1.007825032230
         H           -0.231333571838    -2.543102830276     0.013727684626     1.007825032230
         H           -2.195193571838     2.088535169724     0.013687684626     1.007825032230
         H            2.552735428162    -1.980085830276     0.896912684626     1.007825032230
         H            2.552274428162    -1.980607830276    -0.868876315374     1.007825032230
         H            3.661404428162    -0.921668830276     0.013412684626     1.007825032230
         H           -2.685834571838    -2.199753830276     0.013681684626     1.007825032230
         H           -3.655281571838     0.077358169724     0.013671684626     1.007825032230

  Basis Set: AUG-CC-PVTZ
    Blend: AUG-CC-PVTZ
  Basis Set: (AUG-CC-PVTZ AUX)
    Blend: AUG-CC-PVTZ-JKFIT
	 Reference Energy          =    -400.6170932054433820 [Eh]
	 Singles Energy            =      -0.0000000000000000 [Eh]
	 Same-Spin Energy          =      -0.4519530907254536 [Eh]
	 Opposite-Spin Energy      =      -1.4050383599626766 [Eh]
	 Correlation Energy        =      -1.8569914506881302 [Eh]
	 Total Energy              =    -402.4740846561315379 [Eh]

	 ================> DF-SCS-MP2 Energies <==================
	-----------------------------------------------------------
	 SCS Same-Spin Scale       =       0.3333333333333333 [-]
	 SCS Opposite-Spin Scale   =       1.2000000000000000 [-]
	 SCS Same-Spin Energy      =      -0.1506510302418179 [Eh]
	 SCS Opposite-Spin Energy  =      -1.6860460319552117 [Eh]
	 SCS Correlation Energy    =      -1.8366970621970296 [Eh]
	 SCS Total Energy          =    -402.4537902676403860 [Eh]
	-----------------------------------------------------------

  Dipole Moment: [D]
     X:     0.9302      Y:     1.8442      Z:    -0.0972     Total:     2.0678

*** Psi4 exiting successfully. Buy a developer a beer!
