                               Psi4 1.3.2 release

  ==> Input File <==

--------------------------------------------------------------------------
#psi4
#
memory 32 gb

molecule  {
0 1
  N        0.6331050     1.8115130    -0.0000210
  C        0.1785470    -0.3913160     0.0000090
  C       -0.4036780     0.9062970    -0.0000200
  C        1.6027310    -0.2274780     0.0000040
  C        1.8344040     1.1305020     0.0000620
  C       -0.6692560    -1.5149550    -0.0000180
  C       -1.7891560     1.1099920    -0.0000270
  C        2.6263130    -1.3178960     0.0000690
  C       -2.0437110    -1.3184960    -0.0000320
  C       -2.5979760    -0.0198630    -0.0000430
  H        0.5326130     2.8174890    -0.0000320
  H        2.7737950     1.6707360     0.0000730
  H       -0.2550790    -2.5217040    -0.0000060
  H       -2.2189390     2.1099340    -0.0000460
  H        2.5289900    -1.9586870     0.8831790
  H        2.5285290    -1.9592090    -0.8826100
  H        3.6376590    -0.9002700    -0.0003210
  H       -2.7095800    -2.1783550    -0.0000520
  H       -3.6790261     0.0987570    -0.0500620
units angstrom
no_reorient  #important for SAPT in psi4, default
symmetry c1  #important for SAPT in psi4, default
}

set PROPERTIES_ORIGIN ["COM"]
properties('MP2/aug-cc-pvtz', properties = ['dipole'])
--------------------------------------------------------------------------

    Molecular point group: c1
  Charge       = 0
  Multiplicity = 1
  Basis Set: AUG-CC-PVTZ
    Blend: AUG-CC-PVTZ
  Basis Set: (AUG-CC-PVTZ AUX)
    Blend: AUG-CC-PVTZ-JKFIT

    Orbital Energies [Eh]
    ---------------------

    Doubly Occupied:

       1A    -15.599940     2A    -11.265280     3A    -11.264570
       4A    -11.231870     5A    -11.230646     6A    -11.229531
       7A    -11.222733     8A    -11.221833     9A    -11.221350
      10A    -11.221065    11A     -1.291676    12A     -1.127013
      13A     -1.072155    14A     -0.997324    15A     -0.985716
      16A     -0.930924    17A     -0.838979    18A     -0.803893
      19A     -0.755841    20A     -0.720038    21A     -0.659884
      22A     -0.644552    23A     -0.603520    24A     -0.592737
      25A     -0.591944    26A     -0.569697    27A     -0.551378
      28A     -0.542309    29A     -0.529600    30A     -0.497661
      31A     -0.475826    32A     -0.462950    33A     -0.374541
      34A     -0.298679    35A     -0.277703

  @DF-RHF Final Energy:  -400.64003873192485

   => Energetics <=

    Nuclear Repulsion Energy =            483.2565739986227413
    One-Electron Energy =               -1499.9825024295544154
    Two-Electron Energy =                 616.0858896990067706
    Total Energy =                       -400.6400387319248466
  Basis Set: (AUG-CC-PVTZ AUX)
    Blend: AUG-CC-PVTZ-RI
    Molecular point group: c1

    Geometry (in Angstrom), charge = 0, multiplicity = 1:

       Center              X                  Y                   Z               Mass
    ------------   -----------------  -----------------  -----------------  -----------------
         N            0.656850787449     1.790114252120     0.000364381896    14.003074004430
         C            0.202292787449    -0.412714747880     0.000394381896    12.000000000000
         C           -0.379932212551     0.884898252120     0.000365381896    12.000000000000
         C            1.626476787449    -0.248876747880     0.000389381896    12.000000000000
         C            1.858149787449     1.109103252120     0.000447381896    12.000000000000
         C           -0.645510212551    -1.536353747880     0.000367381896    12.000000000000
         C           -1.765410212551     1.088593252120     0.000358381896    12.000000000000
         C            2.650058787449    -1.339294747880     0.000454381896    12.000000000000
         C           -2.019965212551    -1.339894747880     0.000353381896    12.000000000000
         C           -2.574230212551    -0.041261747880     0.000342381896    12.000000000000
         H            0.556358787449     2.796090252120     0.000353381896     1.007825032230
         H            2.797540787449     1.649337252120     0.000458381896     1.007825032230
         H           -0.231333212551    -2.543102747880     0.000379381896     1.007825032230
         H           -2.195193212551     2.088535252120     0.000339381896     1.007825032230
         H            2.552735787449    -1.980085747880     0.883564381896     1.007825032230
         H            2.552274787449    -1.980607747880    -0.882224618104     1.007825032230
         H            3.661404787449    -0.921668747880     0.000064381896     1.007825032230
         H           -2.685834212551    -2.199753747880     0.000333381896     1.007825032230
         H           -3.655280312551     0.077358252120    -0.049676618104     1.007825032230

  Basis Set: AUG-CC-PVTZ
    Blend: AUG-CC-PVTZ
  Basis Set: (AUG-CC-PVTZ AUX)
    Blend: AUG-CC-PVTZ-JKFIT
	 Reference Energy          =    -400.6400387319248466 [Eh]
	 Singles Energy            =      -0.0000000000000000 [Eh]
	 Same-Spin Energy          =      -0.4517016794374517 [Eh]
	 Opposite-Spin Energy      =      -1.4041406009381729 [Eh]
	 Correlation Energy        =      -1.8558422803756245 [Eh]
	 Total Energy              =    -402.4958810123004582 [Eh]

	 ================> DF-SCS-MP2 Energies <==================
	-----------------------------------------------------------
	 SCS Same-Spin Scale       =       0.3333333333333333 [-]
	 SCS Opposite-Spin Scale   =       1.2000000000000000 [-]
	 SCS Same-Spin Energy      =      -0.1505672264791506 [Eh]
	 SCS Opposite-Spin Energy  =      -1.6849687211258075 [Eh]
	 SCS Correlation Energy    =      -1.8355359476049582 [Eh]
	 SCS Total Energy          =    -402.4755746795298137 [Eh]
	-----------------------------------------------------------

  Dipole Moment: [D]
     X:     0.9601      Y:     1.8049      Z:    -0.0329     Total:     2.0446

*** Psi4 exiting successfully. Buy a developer a beer!
