                               Psi4 1.3.2 release

  ==> Input File <==

--------------------------------------------------------------------------
#psi4
#
memory 32 gb

molecule  {
0 1
  N        0.6331050     1.8115130    -0.0000210
  C        0.1785470    -0.3913160     0.0000090
  C       -0.4036780     0.9062970    -0.0000200
  C        1.6027310    -0.2274780     0.0000040
  C        1.8344040     1.1305020     0.0000620
  C       -0.6692538    -1.5149554    -0.2000180
  C       -1.7891560     1.1099920    -0.0000270
  C        2.6263130    -1.3178960     0.0000690
  C       -2.0437110    -1.3184960    -0.0000320
  C       -2.5979760    -0.0198630    -0.0000430
  H        0.5326130     2.8174890    -0.0000320
  H        2.7737950     1.6707360     0.0000730
  H       -0.2550790    -2.5217040    -0.0000060
  H       -2.2189390     2.1099340    -0.0000460
  H        2.5289900    -1.9586870     0.8831790
  H        2.5285290    -1.9592090    -0.8826100
  H        3.6376590    -0.9002700    -0.0003210
  H       -2.7095800    -2.1783550    -0.0000520
  H       -3.6790270     0.0987570    -0.0000620
units angstrom
no_reorient  #important for SAPT in psi4, default
symmetry c1  #important for SAPT in psi4, default
}

set PROPERTIES_ORIGIN ["COM"]
properties('MP2/aug-cc-pvtz', properties = ['dipole'])
--------------------------------------------------------------------------

    Molecular point group: c1
  Charge       = 0
  Multiplicity = 1
  Basis Set: AUG-CC-PVTZ
    Blend: AUG-CC-PVTZ
  Basis Set: (AUG-CC-PVTZ AUX)
    Blend: AUG-CC-PVTZ-JKFIT

    Orbital Energies [Eh]
    ---------------------

    Doubly Occupied:

       1A    -15.600331     2A    -11.265499     3A    -11.265118
       4A    -11.233993     5A    -11.233403     6A    -11.229371
       7A    -11.224788     8A    -11.224562     9A    -11.222089
      10A    -11.221128    11A     -1.292045    12A     -1.125589
      13A     -1.072203    14A     -0.995639    15A     -0.985466
      16A     -0.930761    17A     -0.838545    18A     -0.802325
      19A     -0.755021    20A     -0.718959    21A     -0.659520
      22A     -0.644018    23A     -0.602062    24A     -0.594398
      25A     -0.586367    26A     -0.568530    27A     -0.551224
      28A     -0.542052    29A     -0.528933    30A     -0.495642
      31A     -0.475788    32A     -0.459828    33A     -0.373952
      34A     -0.297825    35A     -0.278363

  @DF-RHF Final Energy:  -400.62766091172296

   => Energetics <=

    Nuclear Repulsion Energy =            482.8062573147690273
    One-Electron Energy =               -1499.0771617786831484
    Two-Electron Energy =                 615.6432435521911657
    Total Energy =                       -400.6276609117229555
  Basis Set: (AUG-CC-PVTZ AUX)
    Blend: AUG-CC-PVTZ-RI
    Molecular point group: c1

    Geometry (in Angstrom), charge = 0, multiplicity = 1:

       Center              X                  Y                   Z               Mass
    ------------   -----------------  -----------------  -----------------  -----------------
         N            0.656850592955     1.790114288741     0.018290268983    14.003074004430
         C            0.202292592955    -0.412714711259     0.018320268983    12.000000000000
         C           -0.379932407045     0.884898288741     0.018291268983    12.000000000000
         C            1.626476592955    -0.248876711259     0.018315268983    12.000000000000
         C            1.858149592955     1.109103288741     0.018373268983    12.000000000000
         C           -0.645508207045    -1.536354111259    -0.181706731017    12.000000000000
         C           -1.765410407045     1.088593288741     0.018284268983    12.000000000000
         C            2.650058592955    -1.339294711259     0.018380268983    12.000000000000
         C           -2.019965407045    -1.339894711259     0.018279268983    12.000000000000
         C           -2.574230407045    -0.041261711259     0.018268268983    12.000000000000
         H            0.556358592955     2.796090288741     0.018279268983     1.007825032230
         H            2.797540592955     1.649337288741     0.018384268983     1.007825032230
         H           -0.231333407045    -2.543102711259     0.018305268983     1.007825032230
         H           -2.195193407045     2.088535288741     0.018265268983     1.007825032230
         H            2.552735592955    -1.980085711259     0.901490268983     1.007825032230
         H            2.552274592955    -1.980607711259    -0.864298731017     1.007825032230
         H            3.661404592955    -0.921668711259     0.017990268983     1.007825032230
         H           -2.685834407045    -2.199753711259     0.018259268983     1.007825032230
         H           -3.655281407045     0.077358288741     0.018249268983     1.007825032230

  Basis Set: AUG-CC-PVTZ
    Blend: AUG-CC-PVTZ
  Basis Set: (AUG-CC-PVTZ AUX)
    Blend: AUG-CC-PVTZ-JKFIT
	 Reference Energy          =    -400.6276609117229555 [Eh]
	 Singles Energy            =      -0.0000000000000000 [Eh]
	 Same-Spin Energy          =      -0.4524353926880623 [Eh]
	 Opposite-Spin Energy      =      -1.4058916517802720 [Eh]
	 Correlation Energy        =      -1.8583270444683342 [Eh]
	 Total Energy              =    -402.4859879561913090 [Eh]

	 ================> DF-SCS-MP2 Energies <==================
	-----------------------------------------------------------
	 SCS Same-Spin Scale       =       0.3333333333333333 [-]
	 SCS Opposite-Spin Scale   =       1.2000000000000000 [-]
	 SCS Same-Spin Energy      =      -0.1508117975626874 [Eh]
	 SCS Opposite-Spin Energy  =      -1.6870699821363264 [Eh]
	 SCS Correlation Energy    =      -1.8378817796990139 [Eh]
	 SCS Total Energy          =    -402.4655426914219447 [Eh]
	-----------------------------------------------------------

  Dipole Moment: [D]
     X:     0.9207      Y:     1.8992      Z:     0.1365     Total:     2.1150

*** Psi4 exiting successfully. Buy a developer a beer!
