                               Psi4 1.3.2 release

  ==> Input File <==

--------------------------------------------------------------------------
#psi4
#
memory 32 gb

molecule  {
0 1
  N        0.6331050     1.8115130    -0.0000210
  C        0.1785470    -0.3913160     0.0000090
  C       -0.4036780     0.9062970    -0.0000200
  C        1.6027310    -0.2274780     0.0000040
  C        1.8344040     1.1305020     0.0000620
  C       -0.6692560    -1.5149550    -0.0000180
  C       -1.7891560     1.1099920    -0.0000270
  C        2.6263130    -1.3178960     0.0000690
  C       -2.0437110    -1.3184960    -0.0000320
  C       -2.5979760    -0.0198630    -0.0000430
  H        0.5326052     2.8174941     0.1999680
  H        2.7737950     1.6707360     0.0000730
  H       -0.2550790    -2.5217040    -0.0000060
  H       -2.2189390     2.1099340    -0.0000460
  H        2.5289900    -1.9586870     0.8831790
  H        2.5285290    -1.9592090    -0.8826100
  H        3.6376590    -0.9002700    -0.0003210
  H       -2.7095800    -2.1783550    -0.0000520
  H       -3.6790270     0.0987570    -0.0000620
units angstrom
no_reorient  #important for SAPT in psi4, default
symmetry c1  #important for SAPT in psi4, default
}

set PROPERTIES_ORIGIN ["COM"]
properties('MP2/aug-cc-pvtz', properties = ['dipole'])
--------------------------------------------------------------------------

    Molecular point group: c1
  Charge       = 0
  Multiplicity = 1
  Basis Set: AUG-CC-PVTZ
    Blend: AUG-CC-PVTZ
  Basis Set: (AUG-CC-PVTZ AUX)
    Blend: AUG-CC-PVTZ-JKFIT

    Orbital Energies [Eh]
    ---------------------

    Doubly Occupied:

       1A    -15.600712     2A    -11.265035     3A    -11.264222
       4A    -11.231925     5A    -11.230744     6A    -11.229538
       7A    -11.223076     8A    -11.222090     9A    -11.221567
      10A    -11.221302    11A     -1.290425    12A     -1.126721
      13A     -1.071579    14A     -0.997085    15A     -0.985638
      16A     -0.929821    17A     -0.838599    18A     -0.802489
      19A     -0.755292    20A     -0.716976    21A     -0.659837
      22A     -0.644663    23A     -0.604409    24A     -0.595739
      25A     -0.587209    26A     -0.569632    27A     -0.551401
      28A     -0.541579    29A     -0.529626    30A     -0.497774
      31A     -0.475980    32A     -0.462730    33A     -0.374649
      34A     -0.299027    35A     -0.278007

  @DF-RHF Final Energy:  -400.63870146815634

   => Energetics <=

    Nuclear Repulsion Energy =            483.1675218042073539
    One-Electron Energy =               -1499.8182482629317747
    Two-Electron Energy =                 616.0120249905680794
    Total Energy =                       -400.6387014681563414
  Basis Set: (AUG-CC-PVTZ AUX)
    Blend: AUG-CC-PVTZ-RI
    Molecular point group: c1

    Geometry (in Angstrom), charge = 0, multiplicity = 1:

       Center              X                  Y                   Z               Mass
    ------------   -----------------  -----------------  -----------------  -----------------
         N            0.656850854343     1.790114212906    -0.001557869813    14.003074004430
         C            0.202292854343    -0.412714787094    -0.001527869813    12.000000000000
         C           -0.379932145657     0.884898212906    -0.001556869813    12.000000000000
         C            1.626476854343    -0.248876787094    -0.001532869813    12.000000000000
         C            1.858149854343     1.109103212906    -0.001474869813    12.000000000000
         C           -0.645510145657    -1.536353787094    -0.001554869813    12.000000000000
         C           -1.765410145657     1.088593212906    -0.001563869813    12.000000000000
         C            2.650058854343    -1.339294787094    -0.001467869813    12.000000000000
         C           -2.019965145657    -1.339894787094    -0.001568869813    12.000000000000
         C           -2.574230145657    -0.041261787094    -0.001579869813    12.000000000000
         H            0.556351054343     2.796095312906     0.198431130187     1.007825032230
         H            2.797540854343     1.649337212906    -0.001463869813     1.007825032230
         H           -0.231333145657    -2.543102787094    -0.001542869813     1.007825032230
         H           -2.195193145657     2.088535212906    -0.001582869813     1.007825032230
         H            2.552735854343    -1.980085787094     0.881642130187     1.007825032230
         H            2.552274854343    -1.980607787094    -0.884146869813     1.007825032230
         H            3.661404854343    -0.921668787094    -0.001857869813     1.007825032230
         H           -2.685834145657    -2.199753787094    -0.001588869813     1.007825032230
         H           -3.655281145657     0.077358212906    -0.001598869813     1.007825032230

  Basis Set: AUG-CC-PVTZ
    Blend: AUG-CC-PVTZ
  Basis Set: (AUG-CC-PVTZ AUX)
    Blend: AUG-CC-PVTZ-JKFIT
	 Reference Energy          =    -400.6387014681563414 [Eh]
	 Singles Energy            =      -0.0000000000000000 [Eh]
	 Same-Spin Energy          =      -0.4517922145336823 [Eh]
	 Opposite-Spin Energy      =      -1.4044237522129737 [Eh]
	 Correlation Energy        =      -1.8562159667466560 [Eh]
	 Total Energy              =    -402.4949174349030159 [Eh]

	 ================> DF-SCS-MP2 Energies <==================
	-----------------------------------------------------------
	 SCS Same-Spin Scale       =       0.3333333333333333 [-]
	 SCS Opposite-Spin Scale   =       1.2000000000000000 [-]
	 SCS Same-Spin Energy      =      -0.1505974048445608 [Eh]
	 SCS Opposite-Spin Energy  =      -1.6853085026555683 [Eh]
	 SCS Correlation Energy    =      -1.8359059075001292 [Eh]
	 SCS Total Energy          =    -402.4746073756564897 [Eh]
	-----------------------------------------------------------

  Dipole Moment: [D]
     X:     0.9512      Y:     1.7634      Z:     0.2813     Total:     2.0232

*** Psi4 exiting successfully. Buy a developer a beer!
