                               Psi4 1.3.2 release

  ==> Input File <==

--------------------------------------------------------------------------
#psi4
#
memory 32 gb

molecule  {
0 1
  N        0.6331050     1.8115130    -0.0000210
  C        0.1785470    -0.3913160     0.0000090
  C       -0.4036780     0.9062970    -0.0000200
  C        1.6027310    -0.2274780     0.0000040
  C        1.8344040     1.1305020     0.0000620
  C       -0.6692560    -1.5149550    -0.0000180
  C       -1.7891560     1.1099920    -0.0000270
  C        2.6263130    -1.3178960     0.0000690
  C       -2.0437110    -1.3184960    -0.0000320
  C       -2.5979760    -0.0198630    -0.0000430
  H        0.5326130     2.8174890    -0.0000320
  H        2.7737906     1.6707351     0.1000730
  H       -0.2550790    -2.5217040    -0.0000060
  H       -2.2189390     2.1099340    -0.0000460
  H        2.5289900    -1.9586870     0.8831790
  H        2.5285290    -1.9592090    -0.8826100
  H        3.6376590    -0.9002700    -0.0003210
  H       -2.7095800    -2.1783550    -0.0000520
  H       -3.6790270     0.0987570    -0.0000620
units angstrom
no_reorient  #important for SAPT in psi4, default
symmetry c1  #important for SAPT in psi4, default
}

set PROPERTIES_ORIGIN ["COM"]
properties('MP2/aug-cc-pvtz', properties = ['dipole'])
--------------------------------------------------------------------------

    Molecular point group: c1
  Charge       = 0
  Multiplicity = 1
  Basis Set: AUG-CC-PVTZ
    Blend: AUG-CC-PVTZ
  Basis Set: (AUG-CC-PVTZ AUX)
    Blend: AUG-CC-PVTZ-JKFIT

    Orbital Energies [Eh]
    ---------------------

    Doubly Occupied:

       1A    -15.599875     2A    -11.265360     3A    -11.264834
       4A    -11.231886     5A    -11.230733     6A    -11.229535
       7A    -11.222842     8A    -11.221887     9A    -11.221410
      10A    -11.221104    11A     -1.291651    12A     -1.127063
      13A     -1.072196    14A     -0.997367    15A     -0.985694
      16A     -0.930887    17A     -0.838744    18A     -0.803910
      19A     -0.755712    20A     -0.719947    21A     -0.659775
      22A     -0.644297    23A     -0.603577    24A     -0.592783
      25A     -0.592157    26A     -0.568993    27A     -0.551332
      28A     -0.542360    29A     -0.529638    30A     -0.497671
      31A     -0.475846    32A     -0.463029    33A     -0.374583
      34A     -0.298703    35A     -0.277759

  @DF-RHF Final Energy:  -400.63964529560423

   => Energetics <=

    Nuclear Repulsion Energy =            483.2428361467330546
    One-Electron Energy =               -1499.9546783115522430
    Two-Electron Energy =                 616.0721968692149630
    Total Energy =                       -400.6396452956042822
  Basis Set: (AUG-CC-PVTZ AUX)
    Blend: AUG-CC-PVTZ-RI
    Molecular point group: c1

    Geometry (in Angstrom), charge = 0, multiplicity = 1:

       Center              X                  Y                   Z               Mass
    ------------   -----------------  -----------------  -----------------  -----------------
         N            0.656850828200     1.790114259040    -0.000788969129    14.003074004430
         C            0.202292828200    -0.412714740960    -0.000758969129    12.000000000000
         C           -0.379932171800     0.884898259040    -0.000787969129    12.000000000000
         C            1.626476828200    -0.248876740960    -0.000763969129    12.000000000000
         C            1.858149828200     1.109103259040    -0.000705969129    12.000000000000
         C           -0.645510171800    -1.536353740960    -0.000785969129    12.000000000000
         C           -1.765410171800     1.088593259040    -0.000794969129    12.000000000000
         C            2.650058828200    -1.339294740960    -0.000698969129    12.000000000000
         C           -2.019965171800    -1.339894740960    -0.000799969129    12.000000000000
         C           -2.574230171800    -0.041261740960    -0.000810969129    12.000000000000
         H            0.556358828200     2.796090259040    -0.000799969129     1.007825032230
         H            2.797536428200     1.649336359040     0.099305030871     1.007825032230
         H           -0.231333171800    -2.543102740960    -0.000773969129     1.007825032230
         H           -2.195193171800     2.088535259040    -0.000813969129     1.007825032230
         H            2.552735828200    -1.980085740960     0.882411030871     1.007825032230
         H            2.552274828200    -1.980607740960    -0.883377969129     1.007825032230
         H            3.661404828200    -0.921668740960    -0.001088969129     1.007825032230
         H           -2.685834171800    -2.199753740960    -0.000819969129     1.007825032230
         H           -3.655281171800     0.077358259040    -0.000829969129     1.007825032230

  Basis Set: AUG-CC-PVTZ
    Blend: AUG-CC-PVTZ
  Basis Set: (AUG-CC-PVTZ AUX)
    Blend: AUG-CC-PVTZ-JKFIT
	 Reference Energy          =    -400.6396452956042253 [Eh]
	 Singles Energy            =      -0.0000000000000000 [Eh]
	 Same-Spin Energy          =      -0.4517326953031070 [Eh]
	 Opposite-Spin Energy      =      -1.4042159407450916 [Eh]
	 Correlation Energy        =      -1.8559486360481987 [Eh]
	 Total Energy              =    -402.4955939316524223 [Eh]

	 ================> DF-SCS-MP2 Energies <==================
	-----------------------------------------------------------
	 SCS Same-Spin Scale       =       0.3333333333333333 [-]
	 SCS Opposite-Spin Scale   =       1.2000000000000000 [-]
	 SCS Same-Spin Energy      =      -0.1505775651010356 [Eh]
	 SCS Opposite-Spin Energy  =      -1.6850591288941099 [Eh]
	 SCS Correlation Energy    =      -1.8356366939951456 [Eh]
	 SCS Total Energy          =    -402.4752819895993525 [Eh]
	-----------------------------------------------------------

  Dipole Moment: [D]
     X:     0.9473      Y:     1.7977      Z:     0.0794     Total:     2.0335

*** Psi4 exiting successfully. Buy a developer a beer!
