                               Psi4 1.3.2 release

  ==> Input File <==

--------------------------------------------------------------------------
#psi4
#
memory 32 gb

molecule  {
0 1
  N        0.6331050     1.8115130    -0.0000210
  C        0.1785470    -0.3913160     0.0000090
  C       -0.4036780     0.9062970    -0.0000200
  C        1.6027310    -0.2274780     0.0000040
  C        1.8344040     1.1305020     0.0000620
  C       -0.6692560    -1.5149550    -0.0000180
  C       -1.7891560     1.1099920    -0.0000270
  C        2.6263130    -1.3178960     0.0000690
  C       -2.0437110    -1.3184960    -0.0000320
  C       -2.5979760    -0.0198630    -0.0000430
  H        0.5326130     2.8174890    -0.0000320
  H        2.7737950     1.6707360     0.0000730
  H       -0.2550790    -2.5217040    -0.0000060
  H       -2.2189390     2.1099340    -0.0000460
  H        2.5289900    -1.9586870     0.8831790
  H        2.5285290    -1.9592090    -0.8826100
  H        3.6376590    -0.9002700    -0.0003210
  H       -2.7095816    -2.1783553     0.0999480
  H       -3.6790270     0.0987570    -0.0000620
units angstrom
no_reorient  #important for SAPT in psi4, default
symmetry c1  #important for SAPT in psi4, default
}

set PROPERTIES_ORIGIN ["COM"]
properties('MP2/aug-cc-pvtz', properties = ['dipole'])
--------------------------------------------------------------------------

    Molecular point group: c1
  Charge       = 0
  Multiplicity = 1
  Basis Set: AUG-CC-PVTZ
    Blend: AUG-CC-PVTZ
  Basis Set: (AUG-CC-PVTZ AUX)
    Blend: AUG-CC-PVTZ-JKFIT

    Orbital Energies [Eh]
    ---------------------

    Doubly Occupied:

       1A    -15.599996     2A    -11.265372     3A    -11.264590
       4A    -11.231876     5A    -11.230746     6A    -11.229510
       7A    -11.222769     8A    -11.221861     9A    -11.221440
      10A    -11.221375    11A     -1.291728    12A     -1.127035
      13A     -1.072194    14A     -0.997266    15A     -0.985731
      16A     -0.930963    17A     -0.838898    18A     -0.803863
      19A     -0.755771    20A     -0.720105    21A     -0.659847
      22A     -0.644116    23A     -0.603567    24A     -0.592744
      25A     -0.591904    26A     -0.569720    27A     -0.551412
      28A     -0.542293    29A     -0.529646    30A     -0.497599
      31A     -0.475838    32A     -0.462612    33A     -0.374593
      34A     -0.298659    35A     -0.277743

  @DF-RHF Final Energy:  -400.63957803652710

   => Energetics <=

    Nuclear Repulsion Energy =            483.2435043650431794
    One-Electron Energy =               -1499.9553981857527560
    Two-Electron Energy =                 616.0723157841824786
    Total Energy =                       -400.6395780365270411
  Basis Set: (AUG-CC-PVTZ AUX)
    Blend: AUG-CC-PVTZ-RI
    Molecular point group: c1

    Geometry (in Angstrom), charge = 0, multiplicity = 1:

       Center              X                  Y                   Z               Mass
    ------------   -----------------  -----------------  -----------------  -----------------
         N            0.656850806671     1.790114254427    -0.000788969129    14.003074004430
         C            0.202292806671    -0.412714745573    -0.000758969129    12.000000000000
         C           -0.379932193329     0.884898254427    -0.000787969129    12.000000000000
         C            1.626476806671    -0.248876745573    -0.000763969129    12.000000000000
         C            1.858149806671     1.109103254427    -0.000705969129    12.000000000000
         C           -0.645510193329    -1.536353745573    -0.000785969129    12.000000000000
         C           -1.765410193329     1.088593254427    -0.000794969129    12.000000000000
         C            2.650058806671    -1.339294745573    -0.000698969129    12.000000000000
         C           -2.019965193329    -1.339894745573    -0.000799969129    12.000000000000
         C           -2.574230193329    -0.041261745573    -0.000810969129    12.000000000000
         H            0.556358806671     2.796090254427    -0.000799969129     1.007825032230
         H            2.797540806671     1.649337254427    -0.000694969129     1.007825032230
         H           -0.231333193329    -2.543102745573    -0.000773969129     1.007825032230
         H           -2.195193193329     2.088535254427    -0.000813969129     1.007825032230
         H            2.552735806671    -1.980085745573     0.882411030871     1.007825032230
         H            2.552274806671    -1.980607745573    -0.883377969129     1.007825032230
         H            3.661404806671    -0.921668745573    -0.001088969129     1.007825032230
         H           -2.685835793329    -2.199754045573     0.099180030871     1.007825032230
         H           -3.655281193329     0.077358254427    -0.000829969129     1.007825032230

  Basis Set: AUG-CC-PVTZ
    Blend: AUG-CC-PVTZ
  Basis Set: (AUG-CC-PVTZ AUX)
    Blend: AUG-CC-PVTZ-JKFIT
	 Reference Energy          =    -400.6395780365270980 [Eh]
	 Singles Energy            =      -0.0000000000000000 [Eh]
	 Same-Spin Energy          =      -0.4517223483715006 [Eh]
	 Opposite-Spin Energy      =      -1.4041751466347581 [Eh]
	 Correlation Energy        =      -1.8558974950062588 [Eh]
	 Total Energy              =    -402.4954755315333728 [Eh]

	 ================> DF-SCS-MP2 Energies <==================
	-----------------------------------------------------------
	 SCS Same-Spin Scale       =       0.3333333333333333 [-]
	 SCS Opposite-Spin Scale   =       1.2000000000000000 [-]
	 SCS Same-Spin Energy      =      -0.1505741161238335 [Eh]
	 SCS Opposite-Spin Energy  =      -1.6850101759617095 [Eh]
	 SCS Correlation Energy    =      -1.8355842920855432 [Eh]
	 SCS Total Energy          =    -402.4751623286126687 [Eh]
	-----------------------------------------------------------

  Dipole Moment: [D]
     X:     0.9651      Y:     1.8130      Z:     0.0645     Total:     2.0549

*** Psi4 exiting successfully. Buy a developer a beer!
