                               Psi4 1.3.2 release

  ==> Input File <==

--------------------------------------------------------------------------
#psi4
#
memory 32 gb

molecule  {
0 1
  N        0.6331050     1.8115130    -0.0000210
  C        0.1785470    -0.3913160     0.0000090
  C       -0.4036780     0.9062970    -0.0000200
  C        1.6027310    -0.2274780     0.0000040
  C        1.8344040     1.1305020     0.0000620
  C       -0.6692560    -1.5149550    -0.0000180
  C       -1.7891560     1.1099920    -0.0000270
  C        2.6263210    -1.3178943    -0.2999310
  C       -2.0437110    -1.3184960    -0.0000320
  C       -2.5979760    -0.0198630    -0.0000430
  H        0.5326130     2.8174890    -0.0000320
  H        2.7737950     1.6707360     0.0000730
  H       -0.2550790    -2.5217040    -0.0000060
  H       -2.2189390     2.1099340    -0.0000460
  H        2.5289900    -1.9586870     0.8831790
  H        2.5285290    -1.9592090    -0.8826100
  H        3.6376590    -0.9002700    -0.0003210
  H       -2.7095800    -2.1783550    -0.0000520
  H       -3.6790270     0.0987570    -0.0000620
units angstrom
no_reorient  #important for SAPT in psi4, default
symmetry c1  #important for SAPT in psi4, default
}

set PROPERTIES_ORIGIN ["COM"]
properties('MP2/aug-cc-pvtz', properties = ['dipole'])
--------------------------------------------------------------------------

    Molecular point group: c1
  Charge       = 0
  Multiplicity = 1
  Basis Set: AUG-CC-PVTZ
    Blend: AUG-CC-PVTZ
  Basis Set: (AUG-CC-PVTZ AUX)
    Blend: AUG-CC-PVTZ-JKFIT

    Orbital Energies [Eh]
    ---------------------

    Doubly Occupied:

       1A    -15.601821     2A    -11.266908     3A    -11.266462
       4A    -11.234918     5A    -11.232639     6A    -11.231237
       7A    -11.230296     8A    -11.229462     9A    -11.222926
      10A    -11.221690    11A     -1.293402    12A     -1.127873
      13A     -1.072785    14A     -0.998525    15A     -0.987523
      16A     -0.941587    17A     -0.840246    18A     -0.804866
      19A     -0.765374    20A     -0.724636    21A     -0.668943
      22A     -0.648870    23A     -0.618854    24A     -0.600222
      25A     -0.592974    26A     -0.583867    27A     -0.563824
      28A     -0.531204    29A     -0.506375    30A     -0.477943
      31A     -0.464477    32A     -0.461809    33A     -0.368248
      34A     -0.299502    35A     -0.276975

  @DF-RHF Final Energy:  -400.54560194306589

   => Energetics <=

    Nuclear Repulsion Energy =            482.9166608269150629
    One-Electron Energy =               -1499.0059988790405896
    Two-Electron Energy =                 615.5437361090596369
    Total Energy =                       -400.5456019430658898
  Basis Set: (AUG-CC-PVTZ AUX)
    Blend: AUG-CC-PVTZ-RI
    Molecular point group: c1

    Geometry (in Angstrom), charge = 0, multiplicity = 1:

       Center              X                  Y                   Z               Mass
    ------------   -----------------  -----------------  -----------------  -----------------
         N            0.656850061955     1.790114096482     0.027445437697    14.003074004430
         C            0.202292061955    -0.412714903518     0.027475437697    12.000000000000
         C           -0.379932938045     0.884898096482     0.027446437697    12.000000000000
         C            1.626476061955    -0.248876903518     0.027470437697    12.000000000000
         C            1.858149061955     1.109103096482     0.027528437697    12.000000000000
         C           -0.645510938045    -1.536353903518     0.027448437697    12.000000000000
         C           -1.765410938045     1.088593096482     0.027439437697    12.000000000000
         C            2.650066061955    -1.339293203518    -0.272464562303    12.000000000000
         C           -2.019965938045    -1.339894903518     0.027434437697    12.000000000000
         C           -2.574230938045    -0.041261903518     0.027423437697    12.000000000000
         H            0.556358061955     2.796090096482     0.027434437697     1.007825032230
         H            2.797540061955     1.649337096482     0.027539437697     1.007825032230
         H           -0.231333938045    -2.543102903518     0.027460437697     1.007825032230
         H           -2.195193938045     2.088535096482     0.027420437697     1.007825032230
         H            2.552735061955    -1.980085903518     0.910645437697     1.007825032230
         H            2.552274061955    -1.980607903518    -0.855143562303     1.007825032230
         H            3.661404061955    -0.921668903518     0.027145437697     1.007825032230
         H           -2.685834938045    -2.199753903518     0.027414437697     1.007825032230
         H           -3.655281938045     0.077358096482     0.027404437697     1.007825032230

  Basis Set: AUG-CC-PVTZ
    Blend: AUG-CC-PVTZ
  Basis Set: (AUG-CC-PVTZ AUX)
    Blend: AUG-CC-PVTZ-JKFIT
	 Reference Energy          =    -400.5456019430658898 [Eh]
	 Singles Energy            =      -0.0000000000000000 [Eh]
	 Same-Spin Energy          =      -0.4527738109718449 [Eh]
	 Opposite-Spin Energy      =      -1.4080722409465560 [Eh]
	 Correlation Energy        =      -1.8608460519184009 [Eh]
	 Total Energy              =    -402.4064479949843189 [Eh]

	 ================> DF-SCS-MP2 Energies <==================
	-----------------------------------------------------------
	 SCS Same-Spin Scale       =       0.3333333333333333 [-]
	 SCS Opposite-Spin Scale   =       1.2000000000000000 [-]
	 SCS Same-Spin Energy      =      -0.1509246036572816 [Eh]
	 SCS Opposite-Spin Energy  =      -1.6896866891358673 [Eh]
	 SCS Correlation Energy    =      -1.8406112927931488 [Eh]
	 SCS Total Energy          =    -402.3862132358590316 [Eh]
	-----------------------------------------------------------

  Dipole Moment: [D]
     X:     0.8496      Y:     1.9460      Z:    -0.1702     Total:     2.1302

*** Psi4 exiting successfully. Buy a developer a beer!
