                               Psi4 1.3.2 release

  ==> Input File <==

--------------------------------------------------------------------------
#psi4
#
memory 32 gb

molecule  {
0 1
  O        0.0894740    -1.2706490     0.0016280
  N        1.0500643     0.8269366    -0.0012370
  C       -1.1354060    -0.5925990     0.0007920
  C       -1.7504730    -0.3080250    -1.2153360
  C       -1.7497660    -0.3035760     1.2162340
  C        1.2195230    -0.4906020     0.0005970
  C       -3.0144240     0.2837480    -1.2099290
  C       -3.0137120     0.2881830     1.2093930
  C       -3.6464470     0.5845060    -0.0006310
  C        2.4408500    -1.1790020     0.0015830
  C        3.6030640    -0.4211020     0.0005590
  C        3.5068820     0.9758400    -0.0013820
  C        2.2403890     1.5483070    -0.0022070
  H       -1.2410120    -0.5552270    -2.1426030
  H       -1.2397720    -0.5473760     2.1441080
  H       -3.5056790     0.5103880    -2.1530410
  H       -3.5044150     0.5182820     2.1519550
  H        2.4499920    -2.2642250     0.0030920
  H       -4.6315180     1.0439850    -0.0011840
  H        4.5737430    -0.9107530     0.0012630
  H        4.3934310     1.6024650    -0.0022300
  H        2.1135170     2.6292430    -0.0037130
units angstrom
no_reorient  #important for SAPT in psi4, default
symmetry c1  #important for SAPT in psi4, default
}

set PROPERTIES_ORIGIN ["COM"]
properties('MP2/aug-cc-pvtz', properties = ['dipole'])
--------------------------------------------------------------------------

    Molecular point group: c1
  Charge       = 0
  Multiplicity = 1
  Basis Set: AUG-CC-PVTZ
    Blend: AUG-CC-PVTZ
  Basis Set: (AUG-CC-PVTZ AUX)
    Blend: AUG-CC-PVTZ-JKFIT

    Orbital Energies [Eh]
    ---------------------

    Doubly Occupied:

       1A    -20.598467     2A    -15.570332     3A    -11.345684
       4A    -11.295550     5A    -11.289096     6A    -11.269147
       7A    -11.243403     8A    -11.240307     9A    -11.237978
      10A    -11.237873    11A    -11.232769    12A    -11.232764
      13A    -11.231922    14A     -1.432660    15A     -1.245979
      16A     -1.146788    17A     -1.095107    18A     -1.039024
      19A     -1.016333    20A     -0.995697    21A     -0.880716
      22A     -0.856841    23A     -0.835026    24A     -0.803251
      25A     -0.738121    26A     -0.704203    27A     -0.678212
      28A     -0.669913    29A     -0.657850    30A     -0.628225
      31A     -0.612875    32A     -0.594073    33A     -0.590306
      34A     -0.578320    35A     -0.569637    36A     -0.533609
      37A     -0.514703    38A     -0.512955    39A     -0.494519
      40A     -0.481525    41A     -0.439817    42A     -0.388577
      43A     -0.338248    44A     -0.332037    45A     -0.326542

  @DF-RHF Final Energy:  -551.27854746139315

   => Energetics <=

    Nuclear Repulsion Energy =            708.7960998255036884
    One-Electron Energy =               -2154.6353345228817489
    Two-Electron Energy =                 894.5606872359849149
    Total Energy =                       -551.2785474613931456
  Basis Set: (AUG-CC-PVTZ AUX)
    Blend: AUG-CC-PVTZ-RI
    Molecular point group: c1

    Geometry (in Angstrom), charge = 0, multiplicity = 1:

       Center              X                  Y                   Z               Mass
    ------------   -----------------  -----------------  -----------------  -----------------
         O            0.089797414937    -1.258528175485     0.001613838963    15.994914619570
         N            1.050387714937     0.839057424515    -0.001251161037    14.003074004430
         C           -1.135082585063    -0.580478175485     0.000777838963    12.000000000000
         C           -1.750149585063    -0.295904175485    -1.215350161037    12.000000000000
         C           -1.749442585063    -0.291455175485     1.216219838963    12.000000000000
         C            1.219846414937    -0.478481175485     0.000582838963    12.000000000000
         C           -3.014100585063     0.295868824515    -1.209943161037    12.000000000000
         C           -3.013388585063     0.300303824515     1.209378838963    12.000000000000
         C           -3.646123585063     0.596626824515    -0.000645161037    12.000000000000
         C            2.441173414937    -1.166881175485     0.001568838963    12.000000000000
         C            3.603387414937    -0.408981175485     0.000544838963    12.000000000000
         C            3.507205414937     0.987960824515    -0.001396161037    12.000000000000
         C            2.240712414937     1.560427824515    -0.002221161037    12.000000000000
         H           -1.240688585063    -0.543106175485    -2.142617161037     1.007825032230
         H           -1.239448585063    -0.535255175485     2.144093838963     1.007825032230
         H           -3.505355585063     0.522508824515    -2.153055161037     1.007825032230
         H           -3.504091585063     0.530402824515     2.151940838963     1.007825032230
         H            2.450315414937    -2.252104175485     0.003077838963     1.007825032230
         H           -4.631194585063     1.056105824515    -0.001198161037     1.007825032230
         H            4.574066414937    -0.898632175485     0.001248838963     1.007825032230
         H            4.393754414937     1.614585824515    -0.002244161037     1.007825032230
         H            2.113840414937     2.641363824515    -0.003727161037     1.007825032230

  Basis Set: AUG-CC-PVTZ
    Blend: AUG-CC-PVTZ
  Basis Set: (AUG-CC-PVTZ AUX)
    Blend: AUG-CC-PVTZ-JKFIT
	 Reference Energy          =    -551.2785474613931456 [Eh]
	 Singles Energy            =      -0.0000000000000000 [Eh]
	 Same-Spin Energy          =      -0.5998959289132986 [Eh]
	 Opposite-Spin Energy      =      -1.8262249435196882 [Eh]
	 Correlation Energy        =      -2.4261208724329868 [Eh]
	 Total Energy              =    -553.7046683338261346 [Eh]

	 ================> DF-SCS-MP2 Energies <==================
	-----------------------------------------------------------
	 SCS Same-Spin Scale       =       0.3333333333333333 [-]
	 SCS Opposite-Spin Scale   =       1.2000000000000000 [-]
	 SCS Same-Spin Energy      =      -0.1999653096377662 [Eh]
	 SCS Opposite-Spin Energy  =      -2.1914699322236260 [Eh]
	 SCS Correlation Energy    =      -2.3914352418613922 [Eh]
	 SCS Total Energy          =    -553.6699827032545045 [Eh]
	-----------------------------------------------------------

  Dipole Moment: [D]
     X:     1.5618      Y:     0.2159      Z:    -0.0001     Total:     1.5767

*** Psi4 exiting successfully. Buy a developer a beer!
