                               Psi4 1.4a3.dev225

  ==> Input File <==

--------------------------------------------------------------------------
#psi4
#
memory 32 gb

molecule  {
0 1
  O        0.0894740    -1.2706490     0.0016280
  N        1.0961490     0.8320480    -0.0012430
  C       -1.1354060    -0.5925990     0.0007920
  C       -1.7416372    -0.3121131    -1.1978656
  C       -1.7497660    -0.3035760     1.2162340
  C        1.2195230    -0.4906020     0.0005970
  C       -3.0144240     0.2837480    -1.2099290
  C       -3.0137120     0.2881830     1.2093930
  C       -3.6464470     0.5845060    -0.0006310
  C        2.4408500    -1.1790020     0.0015830
  C        3.6030640    -0.4211020     0.0005590
  C        3.5068820     0.9758400    -0.0013820
  C        2.2403890     1.5483070    -0.0022070
  H       -1.2410120    -0.5552270    -2.1426030
  H       -1.2397720    -0.5473760     2.1441080
  H       -3.5056790     0.5103880    -2.1530410
  H       -3.5044150     0.5182820     2.1519550
  H        2.4499920    -2.2642250     0.0030920
  H       -4.6315180     1.0439850    -0.0011840
  H        4.5737430    -0.9107530     0.0012630
  H        4.3934310     1.6024650    -0.0022300
  H        2.1135170     2.6292430    -0.0037130
units angstrom
no_reorient  #important for SAPT in psi4, default
symmetry c1  #important for SAPT in psi4, default
}

set PROPERTIES_ORIGIN ["COM"]
properties('MP2/aug-cc-pvtz', properties = ['dipole'])
--------------------------------------------------------------------------

    Molecular point group: c1
  Charge       = 0
  Multiplicity = 1
  Basis Set: AUG-CC-PVTZ
    Blend: AUG-CC-PVTZ
  Basis Set: (AUG-CC-PVTZ AUX)
    Blend: AUG-CC-PVTZ-JKFIT

    Orbital Energies [Eh]
    ---------------------

    Doubly Occupied:

       1A    -20.600186     2A    -15.565614     3A    -11.345470
       4A    -11.294122     5A    -11.284206     6A    -11.266732
       7A    -11.241755     8A    -11.239805     9A    -11.238643
      10A    -11.237876    11A    -11.234109    12A    -11.233258
      13A    -11.233033    14A     -1.433164    15A     -1.255481
      16A     -1.148955    17A     -1.093274    18A     -1.040738
      19A     -1.016069    20A     -0.997936    21A     -0.878273
      22A     -0.860345    23A     -0.837261    24A     -0.805334
      25A     -0.740209    26A     -0.706037    27A     -0.678485
      28A     -0.668540    29A     -0.659126    30A     -0.628200
      31A     -0.614941    32A     -0.595452    33A     -0.590828
      34A     -0.578602    35A     -0.570093    36A     -0.536458
      37A     -0.517280    38A     -0.511956    39A     -0.496002
      40A     -0.484757    41A     -0.432199    42A     -0.389790
      43A     -0.337823    44A     -0.330705    45A     -0.329572

  @DF-RHF Final Energy:  -551.28240096754507

   => Energetics <=

    Nuclear Repulsion Energy =            709.4063611035644499
    One-Electron Energy =               -2155.8201400920870583
    Two-Electron Energy =                 895.1313780209775359
    Total Energy =                       -551.2824009675450725
  Basis Set: (AUG-CC-PVTZ AUX)
    Blend: AUG-CC-PVTZ-RI
    Molecular point group: c1

    Geometry (in Angstrom), charge = 0, multiplicity = 1:

       Center              X                  Y                   Z               Mass
    ------------   -----------------  -----------------  -----------------  -----------------
         O            0.085405271190    -1.258659807689     0.000388827421    15.994914619570
         N            1.092080271190     0.844037192311    -0.002482172579    14.003074004430
         C           -1.139474728810    -0.580609807689    -0.000447172579    12.000000000000
         C           -1.745705928810    -0.300123907689    -1.199104772579    12.000000000000
         C           -1.753834728810    -0.291586807689     1.214994827421    12.000000000000
         C            1.215454271190    -0.478612807689    -0.000642172579    12.000000000000
         C           -3.018492728810     0.295737192311    -1.211168172579    12.000000000000
         C           -3.017780728810     0.300172192311     1.208153827421    12.000000000000
         C           -3.650515728810     0.596495192311    -0.001870172579    12.000000000000
         C            2.436781271190    -1.167012807689     0.000343827421    12.000000000000
         C            3.598995271190    -0.409112807689    -0.000680172579    12.000000000000
         C            3.502813271190     0.987829192311    -0.002621172579    12.000000000000
         C            2.236320271190     1.560296192311    -0.003446172579    12.000000000000
         H           -1.245080728810    -0.543237807689    -2.143842172579     1.007825032230
         H           -1.243840728810    -0.535386807689     2.142868827421     1.007825032230
         H           -3.509747728810     0.522377192311    -2.154280172579     1.007825032230
         H           -3.508483728810     0.530271192311     2.150715827421     1.007825032230
         H            2.445923271190    -2.252235807689     0.001852827421     1.007825032230
         H           -4.635586728810     1.055974192311    -0.002423172579     1.007825032230
         H            4.569674271190    -0.898763807689     0.000023827421     1.007825032230
         H            4.389362271190     1.614454192311    -0.003469172579     1.007825032230
         H            2.109448271190     2.641232192311    -0.004952172579     1.007825032230

  Basis Set: AUG-CC-PVTZ
    Blend: AUG-CC-PVTZ
  Basis Set: (AUG-CC-PVTZ AUX)
    Blend: AUG-CC-PVTZ-JKFIT
	 Reference Energy          =    -551.2824009675450725 [Eh]
	 Singles Energy            =      -0.0000000000000000 [Eh]
	 Same-Spin Energy          =      -0.5995952055701802 [Eh]
	 Opposite-Spin Energy      =      -1.8247165239258856 [Eh]
	 Correlation Energy        =      -2.4243117294960657 [Eh]
	 Total Energy              =    -553.7067126970410982 [Eh]

	 ================> DF-SCS-MP2 Energies <==================
	-----------------------------------------------------------
	 SCS Same-Spin Scale       =       0.3333333333333333 [-]
	 SCS Opposite-Spin Scale   =       1.2000000000000000 [-]
	 SCS Same-Spin Energy      =      -0.1998650685233934 [Eh]
	 SCS Opposite-Spin Energy  =      -2.1896598287110627 [Eh]
	 SCS Correlation Energy    =      -2.3895248972344563 [Eh]
	 SCS Total Energy          =    -553.6719258647794959 [Eh]
	-----------------------------------------------------------

  Dipole Moment: [D]
     X:     1.3911      Y:     0.2219      Z:    -0.0033     Total:     1.4087

*** Psi4 exiting successfully. Buy a developer a beer!
