                               Psi4 1.3.2 release

  ==> Input File <==

--------------------------------------------------------------------------
#psi4
#
memory 32 gb

molecule  {
0 1
  O        0.0894740    -1.2706490     0.0016280
  N        1.0961490     0.8320480    -0.0012430
  C       -1.1162903    -0.6015821    -0.0112207
  C       -1.7504730    -0.3080250    -1.2153360
  C       -1.7497660    -0.3035760     1.2162340
  C        1.2195230    -0.4906020     0.0005970
  C       -3.0144240     0.2837480    -1.2099290
  C       -3.0137120     0.2881830     1.2093930
  C       -3.6464470     0.5845060    -0.0006310
  C        2.4408500    -1.1790020     0.0015830
  C        3.6030640    -0.4211020     0.0005590
  C        3.5068820     0.9758400    -0.0013820
  C        2.2403890     1.5483070    -0.0022070
  H       -1.2410120    -0.5552270    -2.1426030
  H       -1.2397720    -0.5473760     2.1441080
  H       -3.5056790     0.5103880    -2.1530410
  H       -3.5044150     0.5182820     2.1519550
  H        2.4499920    -2.2642250     0.0030920
  H       -4.6315180     1.0439850    -0.0011840
  H        4.5737430    -0.9107530     0.0012630
  H        4.3934310     1.6024650    -0.0022300
  H        2.1135170     2.6292430    -0.0037130
units angstrom
no_reorient  #important for SAPT in psi4, default
symmetry c1  #important for SAPT in psi4, default
}

set PROPERTIES_ORIGIN ["COM"]
properties('MP2/aug-cc-pvtz', properties = ['dipole'])
--------------------------------------------------------------------------

    Molecular point group: c1
  Charge       = 0
  Multiplicity = 1
  Basis Set: AUG-CC-PVTZ
    Blend: AUG-CC-PVTZ
  Basis Set: (AUG-CC-PVTZ AUX)
    Blend: AUG-CC-PVTZ-JKFIT

    Orbital Energies [Eh]
    ---------------------

    Doubly Occupied:

       1A    -20.603289     2A    -15.567018     3A    -11.347206
       4A    -11.297226     5A    -11.285238     6A    -11.267792
       7A    -11.243140     8A    -11.239088     9A    -11.237986
      10A    -11.237714    11A    -11.234515    12A    -11.232484
      13A    -11.231940    14A     -1.441333    15A     -1.257315
      16A     -1.144683    17A     -1.094479    18A     -1.041893
      19A     -1.015038    20A     -0.994936    21A     -0.880704
      22A     -0.862843    23A     -0.834096    24A     -0.805552
      25A     -0.741876    26A     -0.707295    27A     -0.679538
      28A     -0.670488    29A     -0.660613    30A     -0.628714
      31A     -0.615813    32A     -0.596681    33A     -0.588069
      34A     -0.580297    35A     -0.572046    36A     -0.537816
      37A     -0.518488    38A     -0.514672    39A     -0.493066
      40A     -0.479812    41A     -0.433394    42A     -0.390839
      43A     -0.338179    44A     -0.331490    45A     -0.324662

  @DF-RHF Final Energy:  -551.28200818826122

   => Energetics <=

    Nuclear Repulsion Energy =            709.1459780930457555
    One-Electron Energy =               -2155.2532601271295789
    Two-Electron Energy =                 894.8252738458224940
    Total Energy =                       -551.2820081882612158
  Basis Set: (AUG-CC-PVTZ AUX)
    Blend: AUG-CC-PVTZ-RI
    Molecular point group: c1

    Geometry (in Angstrom), charge = 0, multiplicity = 1:

       Center              X                  Y                   Z               Mass
    ------------   -----------------  -----------------  -----------------  -----------------
         O            0.084684163200    -1.258316436294     0.002456989461    15.994914619570
         N            1.091359163200     0.844380563706    -0.000414010539    14.003074004430
         C           -1.121080136800    -0.589249536294    -0.010391710539    12.000000000000
         C           -1.755262836800    -0.295692436294    -1.214507010539    12.000000000000
         C           -1.754555836800    -0.291243436294     1.217062989461    12.000000000000
         C            1.214733163200    -0.478269436294     0.001425989461    12.000000000000
         C           -3.019213836800     0.296080563706    -1.209100010539    12.000000000000
         C           -3.018501836800     0.300515563706     1.210221989461    12.000000000000
         C           -3.651236836800     0.596838563706     0.000197989461    12.000000000000
         C            2.436060163200    -1.166669436294     0.002411989461    12.000000000000
         C            3.598274163200    -0.408769436294     0.001387989461    12.000000000000
         C            3.502092163200     0.988172563706    -0.000553010539    12.000000000000
         C            2.235599163200     1.560639563706    -0.001378010539    12.000000000000
         H           -1.245801836800    -0.542894436294    -2.141774010539     1.007825032230
         H           -1.244561836800    -0.535043436294     2.144936989461     1.007825032230
         H           -3.510468836800     0.522720563706    -2.152212010539     1.007825032230
         H           -3.509204836800     0.530614563706     2.152783989461     1.007825032230
         H            2.445202163200    -2.251892436294     0.003920989461     1.007825032230
         H           -4.636307836800     1.056317563706    -0.000355010539     1.007825032230
         H            4.568953163200    -0.898420436294     0.002091989461     1.007825032230
         H            4.388641163200     1.614797563706    -0.001401010539     1.007825032230
         H            2.108727163200     2.641575563706    -0.002884010539     1.007825032230

  Basis Set: AUG-CC-PVTZ
    Blend: AUG-CC-PVTZ
  Basis Set: (AUG-CC-PVTZ AUX)
    Blend: AUG-CC-PVTZ-JKFIT
	 Reference Energy          =    -551.2820081882612158 [Eh]
	 Singles Energy            =      -0.0000000000000000 [Eh]
	 Same-Spin Energy          =      -0.5996928552737025 [Eh]
	 Opposite-Spin Energy      =      -1.8247766303487318 [Eh]
	 Correlation Energy        =      -2.4244694856224345 [Eh]
	 Total Energy              =    -553.7064776738836827 [Eh]

	 ================> DF-SCS-MP2 Energies <==================
	-----------------------------------------------------------
	 SCS Same-Spin Scale       =       0.3333333333333333 [-]
	 SCS Opposite-Spin Scale   =       1.2000000000000000 [-]
	 SCS Same-Spin Energy      =      -0.1998976184245675 [Eh]
	 SCS Opposite-Spin Energy  =      -2.1897319564184783 [Eh]
	 SCS Correlation Energy    =      -2.3896295748430458 [Eh]
	 SCS Total Energy          =    -553.6716377631042860 [Eh]
	-----------------------------------------------------------

  Dipole Moment: [D]
     X:     1.5659      Y:     0.1980      Z:    -0.0081     Total:     1.5784

*** Psi4 exiting successfully. Buy a developer a beer!
