                               Psi4 1.3.2 release

  ==> Input File <==

--------------------------------------------------------------------------
#psi4
#
memory 32 gb

molecule  {
0 1
  O        0.0629391    -1.2307357     0.0015724
  N        1.0961490     0.8320480    -0.0012430
  C       -1.1354060    -0.5925990     0.0007920
  C       -1.7504730    -0.3080250    -1.2153360
  C       -1.7497660    -0.3035760     1.2162340
  C        1.2195230    -0.4906020     0.0005970
  C       -3.0144240     0.2837480    -1.2099290
  C       -3.0137120     0.2881830     1.2093930
  C       -3.6464470     0.5845060    -0.0006310
  C        2.4408500    -1.1790020     0.0015830
  C        3.6030640    -0.4211020     0.0005590
  C        3.5068820     0.9758400    -0.0013820
  C        2.2403890     1.5483070    -0.0022070
  H       -1.2410120    -0.5552270    -2.1426030
  H       -1.2397720    -0.5473760     2.1441080
  H       -3.5056790     0.5103880    -2.1530410
  H       -3.5044150     0.5182820     2.1519550
  H        2.4499920    -2.2642250     0.0030920
  H       -4.6315180     1.0439850    -0.0011840
  H        4.5737430    -0.9107530     0.0012630
  H        4.3934310     1.6024650    -0.0022300
  H        2.1135170     2.6292430    -0.0037130
units angstrom
no_reorient  #important for SAPT in psi4, default
symmetry c1  #important for SAPT in psi4, default
}

set PROPERTIES_ORIGIN ["COM"]
properties('MP2/aug-cc-pvtz', properties = ['dipole'])
--------------------------------------------------------------------------

    Molecular point group: c1
  Charge       = 0
  Multiplicity = 1
  Basis Set: AUG-CC-PVTZ
    Blend: AUG-CC-PVTZ
  Basis Set: (AUG-CC-PVTZ AUX)
    Blend: AUG-CC-PVTZ-JKFIT

    Orbital Energies [Eh]
    ---------------------

    Doubly Occupied:

       1A    -20.598803     2A    -15.566413     3A    -11.348401
       4A    -11.293143     5A    -11.285259     6A    -11.268825
       7A    -11.244756     8A    -11.239422     9A    -11.237027
      10A    -11.236932    11A    -11.230559    12A    -11.230537
      13A    -11.230336    14A     -1.445079    15A     -1.257877
      16A     -1.145531    17A     -1.095003    18A     -1.044003
      19A     -1.015462    20A     -0.994787    21A     -0.881242
      22A     -0.865408    23A     -0.835897    24A     -0.805517
      25A     -0.744252    26A     -0.707426    27A     -0.679098
      28A     -0.671152    29A     -0.662359    30A     -0.628793
      31A     -0.615895    32A     -0.597173    33A     -0.589307
      34A     -0.578683    35A     -0.572855    36A     -0.537598
      37A     -0.518407    38A     -0.513563    39A     -0.491720
      40A     -0.479971    41A     -0.433970    42A     -0.391000
      43A     -0.337788    44A     -0.331674    45A     -0.323914

  @DF-RHF Final Energy:  -551.28315681363665

   => Energetics <=

    Nuclear Repulsion Energy =            710.2179609142001482
    One-Electron Energy =               -2157.3966034839031636
    Two-Electron Energy =                 895.8954857560663640
    Total Energy =                       -551.2831568136366513
  Basis Set: (AUG-CC-PVTZ AUX)
    Blend: AUG-CC-PVTZ-RI
    Molecular point group: c1

    Geometry (in Angstrom), charge = 0, multiplicity = 1:

       Center              X                  Y                   Z               Mass
    ------------   -----------------  -----------------  -----------------  -----------------
         O            0.061971195286    -1.222765174899     0.001563928708    15.994914619570
         N            1.095181095286     0.840018525101    -0.001251471292    14.003074004430
         C           -1.136373904714    -0.584628474899     0.000783528708    12.000000000000
         C           -1.751440904714    -0.300054474899    -1.215344471292    12.000000000000
         C           -1.750733904714    -0.295605474899     1.216225528708    12.000000000000
         C            1.218555095286    -0.482631474899     0.000588528708    12.000000000000
         C           -3.015391904714     0.291718525101    -1.209937471292    12.000000000000
         C           -3.014679904714     0.296153525101     1.209384528708    12.000000000000
         C           -3.647414904714     0.592476525101    -0.000639471292    12.000000000000
         C            2.439882095286    -1.171031474899     0.001574528708    12.000000000000
         C            3.602096095286    -0.413131474899     0.000550528708    12.000000000000
         C            3.505914095286     0.983810525101    -0.001390471292    12.000000000000
         C            2.239421095286     1.556277525101    -0.002215471292    12.000000000000
         H           -1.241979904714    -0.547256474899    -2.142611471292     1.007825032230
         H           -1.240739904714    -0.539405474899     2.144099528708     1.007825032230
         H           -3.506646904714     0.518358525101    -2.153049471292     1.007825032230
         H           -3.505382904714     0.526252525101     2.151946528708     1.007825032230
         H            2.449024095286    -2.256254474899     0.003083528708     1.007825032230
         H           -4.632485904714     1.051955525101    -0.001192471292     1.007825032230
         H            4.572775095286    -0.902782474899     0.001254528708     1.007825032230
         H            4.392463095286     1.610435525101    -0.002238471292     1.007825032230
         H            2.112549095286     2.637213525101    -0.003721471292     1.007825032230

  Basis Set: AUG-CC-PVTZ
    Blend: AUG-CC-PVTZ
  Basis Set: (AUG-CC-PVTZ AUX)
    Blend: AUG-CC-PVTZ-JKFIT
	 Reference Energy          =    -551.2831568136366513 [Eh]
	 Singles Energy            =      -0.0000000000000000 [Eh]
	 Same-Spin Energy          =      -0.5994618996482550 [Eh]
	 Opposite-Spin Energy      =      -1.8236134422198509 [Eh]
	 Correlation Energy        =      -2.4230753418681061 [Eh]
	 Total Energy              =    -553.7062321555047220 [Eh]

	 ================> DF-SCS-MP2 Energies <==================
	-----------------------------------------------------------
	 SCS Same-Spin Scale       =       0.3333333333333333 [-]
	 SCS Opposite-Spin Scale   =       1.2000000000000000 [-]
	 SCS Same-Spin Energy      =      -0.1998206332160850 [Eh]
	 SCS Opposite-Spin Energy  =      -2.1883361306638212 [Eh]
	 SCS Correlation Energy    =      -2.3881567638799064 [Eh]
	 SCS Total Energy          =    -553.6713135775165711 [Eh]
	-----------------------------------------------------------

  Dipole Moment: [D]
     X:     1.6646      Y:     0.1488      Z:     0.0000     Total:     1.6713

*** Psi4 exiting successfully. Buy a developer a beer!
