                               Psi4 1.3.2 release

  ==> Input File <==

--------------------------------------------------------------------------
#psi4
#
memory 32 gb

molecule  {
0 1
  O        0.0894740    -1.2706490     0.0016280
  N        1.0961490     0.8320480    -0.0012430
  C       -1.1354060    -0.5925990     0.0007920
  C       -1.7504730    -0.3080250    -1.2153360
  C       -1.7497660    -0.3035760     1.2162340
  C        1.2195230    -0.4906020     0.0005970
  C       -3.0144240     0.2837480    -1.2099290
  C       -3.0137120     0.2881830     1.2093930
  C       -3.6464470     0.5845060    -0.0006310
  C        2.6150794    -1.2772063     0.0017237
  C        3.6030640    -0.4211020     0.0005590
  C        3.5068820     0.9758400    -0.0013820
  C        2.2403890     1.5483070    -0.0022070
  H       -1.2410120    -0.5552270    -2.1426030
  H       -1.2397720    -0.5473760     2.1441080
  H       -3.5056790     0.5103880    -2.1530410
  H       -3.5044150     0.5182820     2.1519550
  H        2.4499920    -2.2642250     0.0030920
  H       -4.6315180     1.0439850    -0.0011840
  H        4.5737430    -0.9107530     0.0012630
  H        4.3934310     1.6024650    -0.0022300
  H        2.1135170     2.6292430    -0.0037130
units angstrom
no_reorient  #important for SAPT in psi4, default
symmetry c1  #important for SAPT in psi4, default
}

set PROPERTIES_ORIGIN ["COM"]
properties('MP2/aug-cc-pvtz', properties = ['dipole'])
--------------------------------------------------------------------------

    Molecular point group: c1
  Charge       = 0
  Multiplicity = 1
  Basis Set: AUG-CC-PVTZ
    Blend: AUG-CC-PVTZ
  Basis Set: (AUG-CC-PVTZ AUX)
    Blend: AUG-CC-PVTZ-JKFIT

    Orbital Energies [Eh]
    ---------------------

    Doubly Occupied:

       1A    -20.609833     2A    -15.562885     3A    -11.364686
       4A    -11.299418     5A    -11.282104     6A    -11.253994
       7A    -11.249550     8A    -11.240642     9A    -11.240535
      10A    -11.236204    11A    -11.236197    12A    -11.234758
      13A    -11.233210    14A     -1.437717    15A     -1.250171
      16A     -1.149709    17A     -1.102250    18A     -1.030233
      19A     -1.019291    20A     -0.997126    21A     -0.872139
      22A     -0.866087    23A     -0.838128    24A     -0.800836
      25A     -0.736641    26A     -0.711980    27A     -0.693710
      28A     -0.678964    29A     -0.660491    30A     -0.624867
      31A     -0.607391    32A     -0.594656    33A     -0.592554
      34A     -0.577068    35A     -0.568957    36A     -0.539307
      37A     -0.517553    38A     -0.514699    39A     -0.497172
      40A     -0.485830    41A     -0.416769    42A     -0.406522
      43A     -0.339805    44A     -0.330182    45A     -0.318793

  @DF-RHF Final Energy:  -551.24355436804422

   => Energetics <=

    Nuclear Repulsion Energy =            705.8577509105950867
    One-Electron Energy =               -2148.5593801696054470
    Two-Electron Energy =                 891.4580748909661452
    Total Energy =                       -551.2435543680442152
  Basis Set: (AUG-CC-PVTZ AUX)
    Blend: AUG-CC-PVTZ-RI
    Molecular point group: c1

    Geometry (in Angstrom), charge = 0, multiplicity = 1:

       Center              X                  Y                   Z               Mass
    ------------   -----------------  -----------------  -----------------  -----------------
         O            0.073803344483    -1.252057803414     0.001604460367    15.994914619570
         N            1.080478344483     0.850639196586    -0.001266539633    14.003074004430
         C           -1.151076655517    -0.574007803414     0.000768460367    12.000000000000
         C           -1.766143655517    -0.289433803414    -1.215359539633    12.000000000000
         C           -1.765436655517    -0.284984803414     1.216210460367    12.000000000000
         C            1.203852344483    -0.472010803414     0.000573460367    12.000000000000
         C           -3.030094655517     0.302339196586    -1.209952539633    12.000000000000
         C           -3.029382655517     0.306774196586     1.209369460367    12.000000000000
         C           -3.662117655517     0.603097196586    -0.000654539633    12.000000000000
         C            2.599408744483    -1.258615103414     0.001700160367    12.000000000000
         C            3.587393344483    -0.402510803414     0.000535460367    12.000000000000
         C            3.491211344483     0.994431196586    -0.001405539633    12.000000000000
         C            2.224718344483     1.566898196586    -0.002230539633    12.000000000000
         H           -1.256682655517    -0.536635803414    -2.142626539633     1.007825032230
         H           -1.255442655517    -0.528784803414     2.144084460367     1.007825032230
         H           -3.521349655517     0.528979196586    -2.153064539633     1.007825032230
         H           -3.520085655517     0.536873196586     2.151931460367     1.007825032230
         H            2.434321344483    -2.245633803414     0.003068460367     1.007825032230
         H           -4.647188655517     1.062576196586    -0.001207539633     1.007825032230
         H            4.558072344483    -0.892161803414     0.001239460367     1.007825032230
         H            4.377760344483     1.621056196586    -0.002253539633     1.007825032230
         H            2.097846344483     2.647834196586    -0.003736539633     1.007825032230

  Basis Set: AUG-CC-PVTZ
    Blend: AUG-CC-PVTZ
  Basis Set: (AUG-CC-PVTZ AUX)
    Blend: AUG-CC-PVTZ-JKFIT
	 Reference Energy          =    -551.2435543680442152 [Eh]
	 Singles Energy            =      -0.0000000000000000 [Eh]
	 Same-Spin Energy          =      -0.5983349266210994 [Eh]
	 Opposite-Spin Energy      =      -1.8259543030005156 [Eh]
	 Correlation Energy        =      -2.4242892296216150 [Eh]
	 Total Energy              =    -553.6678435976658648 [Eh]

	 ================> DF-SCS-MP2 Energies <==================
	-----------------------------------------------------------
	 SCS Same-Spin Scale       =       0.3333333333333333 [-]
	 SCS Opposite-Spin Scale   =       1.2000000000000000 [-]
	 SCS Same-Spin Energy      =      -0.1994449755403665 [Eh]
	 SCS Opposite-Spin Energy  =      -2.1911451636006185 [Eh]
	 SCS Correlation Energy    =      -2.3905901391409849 [Eh]
	 SCS Total Energy          =    -553.6341445071851695 [Eh]
	-----------------------------------------------------------

  Dipole Moment: [D]
     X:     1.0543      Y:     0.0488      Z:     0.0002     Total:     1.0554

*** Psi4 exiting successfully. Buy a developer a beer!
