                               Psi4 1.3.2 release

  ==> Input File <==

--------------------------------------------------------------------------
#psi4
#
memory 32 gb

molecule  {
0 1
  O        0.0894740    -1.2706490     0.0016280
  N        1.0961490     0.8320480    -0.0012430
  C       -1.1354060    -0.5925990     0.0007920
  C       -1.7504730    -0.3080250    -1.2153360
  C       -1.7497660    -0.3035760     1.2162340
  C        1.1964208    -0.4925537     0.0005991
  C       -3.0144240     0.2837480    -1.2099290
  C       -3.0137120     0.2881830     1.2093930
  C       -3.6464470     0.5845060    -0.0006310
  C        2.4408500    -1.1790020     0.0015830
  C        3.6030640    -0.4211020     0.0005590
  C        3.5068820     0.9758400    -0.0013820
  C        2.2403890     1.5483070    -0.0022070
  H       -1.2410120    -0.5552270    -2.1426030
  H       -1.2397720    -0.5473760     2.1441080
  H       -3.5056790     0.5103880    -2.1530410
  H       -3.5044150     0.5182820     2.1519550
  H        2.4499920    -2.2642250     0.0030920
  H       -4.6315180     1.0439850    -0.0011840
  H        4.5737430    -0.9107530     0.0012630
  H        4.3934310     1.6024650    -0.0022300
  H        2.1135170     2.6292430    -0.0037130
units angstrom
no_reorient  #important for SAPT in psi4, default
symmetry c1  #important for SAPT in psi4, default
}

set PROPERTIES_ORIGIN ["COM"]
properties('MP2/aug-cc-pvtz', properties = ['dipole'])
--------------------------------------------------------------------------

    Molecular point group: c1
  Charge       = 0
  Multiplicity = 1
  Basis Set: AUG-CC-PVTZ
    Blend: AUG-CC-PVTZ
  Basis Set: (AUG-CC-PVTZ AUX)
    Blend: AUG-CC-PVTZ-JKFIT

    Orbital Energies [Eh]
    ---------------------

    Doubly Occupied:

       1A    -20.605295     2A    -15.563422     3A    -11.347067
       4A    -11.298427     5A    -11.282794     6A    -11.264856
       7A    -11.241969     8A    -11.240115     9A    -11.240008
      10A    -11.236156    11A    -11.235473    12A    -11.235466
      13A    -11.234215    14A     -1.443614    15A     -1.252956
      16A     -1.149756    17A     -1.090386    18A     -1.039353
      19A     -1.018716    20A     -0.996880    21A     -0.877942
      22A     -0.861154    23A     -0.837682    24A     -0.805751
      25A     -0.742145    26A     -0.706863    27A     -0.680186
      28A     -0.669817    29A     -0.662248    30A     -0.626946
      31A     -0.615098    32A     -0.595259    33A     -0.592847
      34A     -0.581664    35A     -0.569644    36A     -0.536001
      37A     -0.517466    38A     -0.515381    39A     -0.497626
      40A     -0.485150    41A     -0.427929    42A     -0.388710
      43A     -0.339373    44A     -0.329694    45A     -0.327453

  @DF-RHF Final Energy:  -551.28238209871904

   => Energetics <=

    Nuclear Repulsion Energy =            709.2082799435147535
    One-Electron Energy =               -2155.3674128461284454
    Two-Electron Energy =                 894.8767508038946517
    Total Energy =                       -551.2823820987190402
  Basis Set: (AUG-CC-PVTZ AUX)
    Blend: AUG-CC-PVTZ-RI
    Molecular point group: c1

    Geometry (in Angstrom), charge = 0, multiplicity = 1:

       Center              X                  Y                   Z               Mass
    ------------   -----------------  -----------------  -----------------  -----------------
         O            0.087645638018    -1.258809670539     0.001614182793    15.994914619570
         N            1.094320638018     0.843887329461    -0.001256817207    14.003074004430
         C           -1.137234361982    -0.580759670539     0.000778182793    12.000000000000
         C           -1.752301361982    -0.296185670539    -1.215349817207    12.000000000000
         C           -1.751594361982    -0.291736670539     1.216220182793    12.000000000000
         C            1.194592438018    -0.480714370539     0.000585282793    12.000000000000
         C           -3.016252361982     0.295587329461    -1.209942817207    12.000000000000
         C           -3.015540361982     0.300022329461     1.209379182793    12.000000000000
         C           -3.648275361982     0.596345329461    -0.000644817207    12.000000000000
         C            2.439021638018    -1.167162670539     0.001569182793    12.000000000000
         C            3.601235638018    -0.409262670539     0.000545182793    12.000000000000
         C            3.505053638018     0.987679329461    -0.001395817207    12.000000000000
         C            2.238560638018     1.560146329461    -0.002220817207    12.000000000000
         H           -1.242840361982    -0.543387670539    -2.142616817207     1.007825032230
         H           -1.241600361982    -0.535536670539     2.144094182793     1.007825032230
         H           -3.507507361982     0.522227329461    -2.153054817207     1.007825032230
         H           -3.506243361982     0.530121329461     2.151941182793     1.007825032230
         H            2.448163638018    -2.252385670539     0.003078182793     1.007825032230
         H           -4.633346361982     1.055824329461    -0.001197817207     1.007825032230
         H            4.571914638018    -0.898913670539     0.001249182793     1.007825032230
         H            4.391602638018     1.614304329461    -0.002243817207     1.007825032230
         H            2.111688638018     2.641082329461    -0.003726817207     1.007825032230

  Basis Set: AUG-CC-PVTZ
    Blend: AUG-CC-PVTZ
  Basis Set: (AUG-CC-PVTZ AUX)
    Blend: AUG-CC-PVTZ-JKFIT
	 Reference Energy          =    -551.2823820987190402 [Eh]
	 Singles Energy            =      -0.0000000000000000 [Eh]
	 Same-Spin Energy          =      -0.5995068338756182 [Eh]
	 Opposite-Spin Energy      =      -1.8246099063489827 [Eh]
	 Correlation Energy        =      -2.4241167402246009 [Eh]
	 Total Energy              =    -553.7064988389436166 [Eh]

	 ================> DF-SCS-MP2 Energies <==================
	-----------------------------------------------------------
	 SCS Same-Spin Scale       =       0.3333333333333333 [-]
	 SCS Opposite-Spin Scale   =       1.2000000000000000 [-]
	 SCS Same-Spin Energy      =      -0.1998356112918727 [Eh]
	 SCS Opposite-Spin Energy  =      -2.1895318876187790 [Eh]
	 SCS Correlation Energy    =      -2.3893674989106519 [Eh]
	 SCS Total Energy          =    -553.6717495976297414 [Eh]
	-----------------------------------------------------------

  Dipole Moment: [D]
     X:     1.1882      Y:     0.1545      Z:     0.0000     Total:     1.1982

*** Psi4 exiting successfully. Buy a developer a beer!
