                               Psi4 1.3.2 release

  ==> Input File <==

--------------------------------------------------------------------------
#psi4
#
memory 32 gb

molecule  {
0 1
  O        0.0894740    -1.2706490     0.0016280
  N        1.0961490     0.8320480    -0.0012430
  C       -1.1163508    -0.6017104    -0.0112202
  C       -1.7504730    -0.3080250    -1.2153360
  C       -1.7497660    -0.3035760     1.2162340
  C        1.2195230    -0.4906020     0.0005970
  C       -3.0144240     0.2837480    -1.2099290
  C       -3.0137120     0.2881830     1.2093930
  C       -3.6464470     0.5845060    -0.0006310
  C        2.4408500    -1.1790020     0.0015830
  C        3.6030640    -0.4211020     0.0005590
  C        3.5068820     0.9758400    -0.0013820
  C        2.2403890     1.5483070    -0.0022070
  H       -1.2410120    -0.5552270    -2.1426030
  H       -1.2397720    -0.5473760     2.1441080
  H       -3.5056790     0.5103880    -2.1530410
  H       -3.5044150     0.5182820     2.1519550
  H        2.4499920    -2.2642250     0.0030920
  H       -4.6315180     1.0439850    -0.0011840
  H        4.5737430    -0.9107530     0.0012630
  H        4.3934310     1.6024650    -0.0022300
  H        2.1135170     2.6292430    -0.0037130
units angstrom
no_reorient  #important for SAPT in psi4, default
symmetry c1  #important for SAPT in psi4, default
}

set PROPERTIES_ORIGIN ["COM"]
properties('MP2/aug-cc-pvtz', properties = ['dipole'])
--------------------------------------------------------------------------

    Molecular point group: c1
  Charge       = 0
  Multiplicity = 1
  Basis Set: AUG-CC-PVTZ
    Blend: AUG-CC-PVTZ
  Basis Set: (AUG-CC-PVTZ AUX)
    Blend: AUG-CC-PVTZ-JKFIT

    Orbital Energies [Eh]
    ---------------------

    Doubly Occupied:

       1A    -20.603284     2A    -15.567018     3A    -11.347207
       4A    -11.297227     5A    -11.285237     6A    -11.267791
       7A    -11.243140     8A    -11.239088     9A    -11.237987
      10A    -11.237715    11A    -11.234516    12A    -11.232485
      13A    -11.231941    14A     -1.441330    15A     -1.257315
      16A     -1.144684    17A     -1.094478    18A     -1.041895
      19A     -1.015038    20A     -0.994936    21A     -0.880705
      22A     -0.862845    23A     -0.834097    24A     -0.805552
      25A     -0.741879    26A     -0.707293    27A     -0.679538
      28A     -0.670488    29A     -0.660613    30A     -0.628713
      31A     -0.615812    32A     -0.596680    33A     -0.588070
      34A     -0.580297    35A     -0.572045    36A     -0.537815
      37A     -0.518488    38A     -0.514673    39A     -0.493065
      40A     -0.479812    41A     -0.433393    42A     -0.390838
      43A     -0.338177    44A     -0.331492    45A     -0.324663

  @DF-RHF Final Energy:  -551.28201051743065

   => Energetics <=

    Nuclear Repulsion Energy =            709.1451242557990327
    One-Electron Energy =               -2155.2515610790014762
    Two-Electron Energy =                 894.8244263057716807
    Total Energy =                       -551.2820105174306491
  Basis Set: (AUG-CC-PVTZ AUX)
    Blend: AUG-CC-PVTZ-RI
    Molecular point group: c1

    Geometry (in Angstrom), charge = 0, multiplicity = 1:

       Center              X                  Y                   Z               Mass
    ------------   -----------------  -----------------  -----------------  -----------------
         O            0.084688407116    -1.258307436386     0.002456954388    15.994914619570
         N            1.091363407116     0.844389563614    -0.000414045612    14.003074004430
         C           -1.121136392884    -0.589368836386    -0.010391245612    12.000000000000
         C           -1.755258592884    -0.295683436386    -1.214507045612    12.000000000000
         C           -1.754551592884    -0.291234436386     1.217062954388    12.000000000000
         C            1.214737407116    -0.478260436386     0.001425954388    12.000000000000
         C           -3.019209592884     0.296089563614    -1.209100045612    12.000000000000
         C           -3.018497592884     0.300524563614     1.210221954388    12.000000000000
         C           -3.651232592884     0.596847563614     0.000197954388    12.000000000000
         C            2.436064407116    -1.166660436386     0.002411954388    12.000000000000
         C            3.598278407116    -0.408760436386     0.001387954388    12.000000000000
         C            3.502096407116     0.988181563614    -0.000553045612    12.000000000000
         C            2.235603407116     1.560648563614    -0.001378045612    12.000000000000
         H           -1.245797592884    -0.542885436386    -2.141774045612     1.007825032230
         H           -1.244557592884    -0.535034436386     2.144936954388     1.007825032230
         H           -3.510464592884     0.522729563614    -2.152212045612     1.007825032230
         H           -3.509200592884     0.530623563614     2.152783954388     1.007825032230
         H            2.445206407116    -2.251883436386     0.003920954388     1.007825032230
         H           -4.636303592884     1.056326563614    -0.000355045612     1.007825032230
         H            4.568957407116    -0.898411436386     0.002091954388     1.007825032230
         H            4.388645407116     1.614806563614    -0.001401045612     1.007825032230
         H            2.108731407116     2.641584563614    -0.002884045612     1.007825032230

  Basis Set: AUG-CC-PVTZ
    Blend: AUG-CC-PVTZ
  Basis Set: (AUG-CC-PVTZ AUX)
    Blend: AUG-CC-PVTZ-JKFIT
	 Reference Energy          =    -551.2820105174306491 [Eh]
	 Singles Energy            =      -0.0000000000000000 [Eh]
	 Same-Spin Energy          =      -0.5996921591426445 [Eh]
	 Opposite-Spin Energy      =      -1.8247748486107778 [Eh]
	 Correlation Energy        =      -2.4244670077534223 [Eh]
	 Total Energy              =    -553.7064775251840274 [Eh]

	 ================> DF-SCS-MP2 Energies <==================
	-----------------------------------------------------------
	 SCS Same-Spin Scale       =       0.3333333333333333 [-]
	 SCS Opposite-Spin Scale   =       1.2000000000000000 [-]
	 SCS Same-Spin Energy      =      -0.1998973863808815 [Eh]
	 SCS Opposite-Spin Energy  =      -2.1897298183329332 [Eh]
	 SCS Correlation Energy    =      -2.3896272047138147 [Eh]
	 SCS Total Energy          =    -553.6716377221445100 [Eh]
	-----------------------------------------------------------

  Dipole Moment: [D]
     X:     1.5659      Y:     0.1980      Z:    -0.0081     Total:     1.5784

*** Psi4 exiting successfully. Buy a developer a beer!
