                               Psi4 1.3.2 release

  ==> Input File <==

--------------------------------------------------------------------------
#psi4
#
memory 32 gb

molecule  {
0 1
  O        0.0846399    -1.2724603    -0.0959562
  N        1.0961490     0.8320480    -0.0012430
  C       -1.1354060    -0.5925990     0.0007920
  C       -1.7504730    -0.3080250    -1.2153360
  C       -1.7497660    -0.3035760     1.2162340
  C        1.2195230    -0.4906020     0.0005970
  C       -3.0144240     0.2837480    -1.2099290
  C       -3.0137120     0.2881830     1.2093930
  C       -3.6464470     0.5845060    -0.0006310
  C        2.4408500    -1.1790020     0.0015830
  C        3.6030640    -0.4211020     0.0005590
  C        3.5068820     0.9758400    -0.0013820
  C        2.2403890     1.5483070    -0.0022070
  H       -1.2410120    -0.5552270    -2.1426030
  H       -1.2397720    -0.5473760     2.1441080
  H       -3.5056790     0.5103880    -2.1530410
  H       -3.5044150     0.5182820     2.1519550
  H        2.4499920    -2.2642250     0.0030920
  H       -4.6315180     1.0439850    -0.0011840
  H        4.5737430    -0.9107530     0.0012630
  H        4.3934310     1.6024650    -0.0022300
  H        2.1135170     2.6292430    -0.0037130
units angstrom
no_reorient  #important for SAPT in psi4, default
symmetry c1  #important for SAPT in psi4, default
}

set PROPERTIES_ORIGIN ["COM"]
properties('MP2/aug-cc-pvtz', properties = ['dipole'])
--------------------------------------------------------------------------

    Molecular point group: c1
  Charge       = 0
  Multiplicity = 1
  Basis Set: AUG-CC-PVTZ
    Blend: AUG-CC-PVTZ
  Basis Set: (AUG-CC-PVTZ AUX)
    Blend: AUG-CC-PVTZ-JKFIT

    Orbital Energies [Eh]
    ---------------------

    Doubly Occupied:

       1A    -20.600343     2A    -15.566679     3A    -11.346058
       4A    -11.295788     5A    -11.284790     6A    -11.267306
       7A    -11.242725     8A    -11.239275     9A    -11.238848
      10A    -11.237477    11A    -11.235330    12A    -11.232378
      13A    -11.231133    14A     -1.430370    15A     -1.256196
      16A     -1.147236    17A     -1.093917    18A     -1.040161
      19A     -1.016796    20A     -0.996149    21A     -0.878223
      22A     -0.860603    23A     -0.835265    24A     -0.805626
      25A     -0.738662    26A     -0.706028    27A     -0.679067
      28A     -0.668671    29A     -0.657947    30A     -0.628504
      31A     -0.614554    32A     -0.595174    33A     -0.590700
      34A     -0.579517    35A     -0.569699    36A     -0.536932
      37A     -0.517554    38A     -0.513291    39A     -0.494935
      40A     -0.482484    41A     -0.432733    42A     -0.390292
      43A     -0.338768    44A     -0.332123    45A     -0.326395

  @DF-RHF Final Energy:  -551.28065835273333

   => Energetics <=

    Nuclear Repulsion Energy =            708.9053412149856968
    One-Electron Energy =               -2154.8265900660303487
    Two-Electron Energy =                 894.6405904983114397
    Total Energy =                       -551.2806583527333260
  Basis Set: (AUG-CC-PVTZ AUX)
    Blend: AUG-CC-PVTZ-RI
    Molecular point group: c1

    Geometry (in Angstrom), charge = 0, multiplicity = 1:

       Center              X                  Y                   Z               Mass
    ------------   -----------------  -----------------  -----------------  -----------------
         O            0.081642968213    -1.260588520429    -0.086845736976    15.994914619570
         N            1.093152068213     0.843919779571     0.007867463024    14.003074004430
         C           -1.138402931787    -0.580727220429     0.009902463024    12.000000000000
         C           -1.753469931787    -0.296153220429    -1.206225536976    12.000000000000
         C           -1.752762931787    -0.291704220429     1.225344463024    12.000000000000
         C            1.216526068213    -0.478730220429     0.009707463024    12.000000000000
         C           -3.017420931787     0.295619779571    -1.200818536976    12.000000000000
         C           -3.016708931787     0.300054779571     1.218503463024    12.000000000000
         C           -3.649443931787     0.596377779571     0.008479463024    12.000000000000
         C            2.437853068213    -1.167130220429     0.010693463024    12.000000000000
         C            3.600067068213    -0.409230220429     0.009669463024    12.000000000000
         C            3.503885068213     0.987711779571     0.007728463024    12.000000000000
         C            2.237392068213     1.560178779571     0.006903463024    12.000000000000
         H           -1.244008931787    -0.543355220429    -2.133492536976     1.007825032230
         H           -1.242768931787    -0.535504220429     2.153218463024     1.007825032230
         H           -3.508675931787     0.522259779571    -2.143930536976     1.007825032230
         H           -3.507411931787     0.530153779571     2.161065463024     1.007825032230
         H            2.446995068213    -2.252353220429     0.012202463024     1.007825032230
         H           -4.634514931787     1.055856779571     0.007926463024     1.007825032230
         H            4.570746068213    -0.898881220429     0.010373463024     1.007825032230
         H            4.390434068213     1.614336779571     0.006880463024     1.007825032230
         H            2.110520068213     2.641114779571     0.005397463024     1.007825032230

  Basis Set: AUG-CC-PVTZ
    Blend: AUG-CC-PVTZ
  Basis Set: (AUG-CC-PVTZ AUX)
    Blend: AUG-CC-PVTZ-JKFIT
	 Reference Energy          =    -551.2806583527333260 [Eh]
	 Singles Energy            =      -0.0000000000000000 [Eh]
	 Same-Spin Energy          =      -0.5997942188543411 [Eh]
	 Opposite-Spin Energy      =      -1.8251828776483410 [Eh]
	 Correlation Energy        =      -2.4249770965026820 [Eh]
	 Total Energy              =    -553.7056354492359560 [Eh]

	 ================> DF-SCS-MP2 Energies <==================
	-----------------------------------------------------------
	 SCS Same-Spin Scale       =       0.3333333333333333 [-]
	 SCS Opposite-Spin Scale   =       1.2000000000000000 [-]
	 SCS Same-Spin Energy      =      -0.1999314062847804 [Eh]
	 SCS Opposite-Spin Energy  =      -2.1902194531780093 [Eh]
	 SCS Correlation Energy    =      -2.3901508594627896 [Eh]
	 SCS Total Energy          =    -553.6708092121961045 [Eh]
	-----------------------------------------------------------

  Dipole Moment: [D]
     X:     1.4942      Y:     0.2358      Z:     0.1056     Total:     1.5164

*** Psi4 exiting successfully. Buy a developer a beer!
