                               Psi4 1.3.2 release

  ==> Input File <==

--------------------------------------------------------------------------
#psi4
#
memory 32 gb

molecule  {
0 1
  O        0.0894740    -1.2706490     0.0016280
  N        0.9585702     0.8119063    -0.0012184
  C       -1.1354060    -0.5925990     0.0007920
  C       -1.7504730    -0.3080250    -1.2153360
  C       -1.7497660    -0.3035760     1.2162340
  C        1.2195230    -0.4906020     0.0005970
  C       -3.0144240     0.2837480    -1.2099290
  C       -3.0137120     0.2881830     1.2093930
  C       -3.6464470     0.5845060    -0.0006310
  C        2.4408500    -1.1790020     0.0015830
  C        3.6030640    -0.4211020     0.0005590
  C        3.5068820     0.9758400    -0.0013820
  C        2.2403890     1.5483070    -0.0022070
  H       -1.2410120    -0.5552270    -2.1426030
  H       -1.2397720    -0.5473760     2.1441080
  H       -3.5056790     0.5103880    -2.1530410
  H       -3.5044150     0.5182820     2.1519550
  H        2.4499920    -2.2642250     0.0030920
  H       -4.6315180     1.0439850    -0.0011840
  H        4.5737430    -0.9107530     0.0012630
  H        4.3934310     1.6024650    -0.0022300
  H        2.1135170     2.6292430    -0.0037130
units angstrom
no_reorient  #important for SAPT in psi4, default
symmetry c1  #important for SAPT in psi4, default
}

set PROPERTIES_ORIGIN ["COM"]
properties('MP2/aug-cc-pvtz', properties = ['dipole'])
--------------------------------------------------------------------------

    Molecular point group: c1
  Charge       = 0
  Multiplicity = 1
  Basis Set: AUG-CC-PVTZ
    Blend: AUG-CC-PVTZ
  Basis Set: (AUG-CC-PVTZ AUX)
    Blend: AUG-CC-PVTZ-JKFIT

    Orbital Energies [Eh]
    ---------------------

    Doubly Occupied:

       1A    -20.593925     2A    -15.578739     3A    -11.346193
       4A    -11.297411     5A    -11.293824     6A    -11.273551
       7A    -11.246459     8A    -11.244714     9A    -11.236326
      10A    -11.236224    11A    -11.230772    12A    -11.230769
      13A    -11.230123    14A     -1.431677    15A     -1.229121
      16A     -1.144644    17A     -1.098813    18A     -1.036750
      19A     -1.014555    20A     -0.994579    21A     -0.885168
      22A     -0.850197    23A     -0.833280    24A     -0.797867
      25A     -0.735191    26A     -0.700862    27A     -0.675781
      28A     -0.671421    29A     -0.656016    30A     -0.628538
      31A     -0.609998    32A     -0.592542    33A     -0.588462
      34A     -0.575466    35A     -0.569375    36A     -0.526349
      37A     -0.510885    38A     -0.510331    39A     -0.492314
      40A     -0.478408    41A     -0.451382    42A     -0.386569
      43A     -0.338765    44A     -0.332942    45A     -0.323830

  @DF-RHF Final Energy:  -551.26055580510388

   => Energetics <=

    Nuclear Repulsion Energy =            708.4036393081860297
    One-Electron Energy =               -2153.9061763127569975
    Two-Electron Energy =                 894.2419811994670908
    Total Energy =                       -551.2605558051038770
  Basis Set: (AUG-CC-PVTZ AUX)
    Blend: AUG-CC-PVTZ-RI
    Molecular point group: c1

    Geometry (in Angstrom), charge = 0, multiplicity = 1:

       Center              X                  Y                   Z               Mass
    ------------   -----------------  -----------------  -----------------  -----------------
         O            0.097286808355    -1.257297846645     0.001612316431    15.994914619570
         N            0.966383008355     0.825257453355    -0.001234083569    14.003074004430
         C           -1.127593191645    -0.579247846645     0.000776316431    12.000000000000
         C           -1.742660191645    -0.294673846645    -1.215351683569    12.000000000000
         C           -1.741953191645    -0.290224846645     1.216218316431    12.000000000000
         C            1.227335808355    -0.477250846645     0.000581316431    12.000000000000
         C           -3.006611191645     0.297099153355    -1.209944683569    12.000000000000
         C           -3.005899191645     0.301534153355     1.209377316431    12.000000000000
         C           -3.638634191645     0.597857153355    -0.000646683569    12.000000000000
         C            2.448662808355    -1.165650846645     0.001567316431    12.000000000000
         C            3.610876808355    -0.407750846645     0.000543316431    12.000000000000
         C            3.514694808355     0.989191153355    -0.001397683569    12.000000000000
         C            2.248201808355     1.561658153355    -0.002222683569    12.000000000000
         H           -1.233199191645    -0.541875846645    -2.142618683569     1.007825032230
         H           -1.231959191645    -0.534024846645     2.144092316431     1.007825032230
         H           -3.497866191645     0.523739153355    -2.153056683569     1.007825032230
         H           -3.496602191645     0.531633153355     2.151939316431     1.007825032230
         H            2.457804808355    -2.250873846645     0.003076316431     1.007825032230
         H           -4.623705191645     1.057336153355    -0.001199683569     1.007825032230
         H            4.581555808355    -0.897401846645     0.001247316431     1.007825032230
         H            4.401243808355     1.615816153355    -0.002245683569     1.007825032230
         H            2.121329808355     2.642594153355    -0.003728683569     1.007825032230

  Basis Set: AUG-CC-PVTZ
    Blend: AUG-CC-PVTZ
  Basis Set: (AUG-CC-PVTZ AUX)
    Blend: AUG-CC-PVTZ-JKFIT
	 Reference Energy          =    -551.2605558051038770 [Eh]
	 Singles Energy            =      -0.0000000000000000 [Eh]
	 Same-Spin Energy          =      -0.6007398748304087 [Eh]
	 Opposite-Spin Energy      =      -1.8299486691521931 [Eh]
	 Correlation Energy        =      -2.4306885439826020 [Eh]
	 Total Energy              =    -553.6912443490864462 [Eh]

	 ================> DF-SCS-MP2 Energies <==================
	-----------------------------------------------------------
	 SCS Same-Spin Scale       =       0.3333333333333333 [-]
	 SCS Opposite-Spin Scale   =       1.2000000000000000 [-]
	 SCS Same-Spin Energy      =      -0.2002466249434696 [Eh]
	 SCS Opposite-Spin Energy  =      -2.1959384029826317 [Eh]
	 SCS Correlation Energy    =      -2.3961850279261014 [Eh]
	 SCS Total Energy          =    -553.6567408330299713 [Eh]
	-----------------------------------------------------------

  Dipole Moment: [D]
     X:     1.8308      Y:     0.2198      Z:    -0.0001     Total:     1.8439

*** Psi4 exiting successfully. Buy a developer a beer!
