                               Psi4 1.3.2 release

  ==> Input File <==

--------------------------------------------------------------------------
#psi4
#
memory 32 gb

molecule  {
0 1
  O        0.0894740    -1.2706490     0.0016280
  N        1.0961490     0.8320480    -0.0012430
  C       -1.1354060    -0.5925990     0.0007920
  C       -1.7504730    -0.3080250    -1.2153360
  C       -1.7497660    -0.3035760     1.2162340
  C        1.2195230    -0.4906020     0.0005970
  C       -3.0144240     0.2837480    -1.2099290
  C       -3.0137120     0.2881830     1.2093930
  C       -3.6464470     0.5845060    -0.0006310
  C        2.3537353    -1.1298999     0.0015127
  C        3.6030640    -0.4211020     0.0005590
  C        3.5068820     0.9758400    -0.0013820
  C        2.2403890     1.5483070    -0.0022070
  H       -1.2410120    -0.5552270    -2.1426030
  H       -1.2397720    -0.5473760     2.1441080
  H       -3.5056790     0.5103880    -2.1530410
  H       -3.5044150     0.5182820     2.1519550
  H        2.4499920    -2.2642250     0.0030920
  H       -4.6315180     1.0439850    -0.0011840
  H        4.5737430    -0.9107530     0.0012630
  H        4.3934310     1.6024650    -0.0022300
  H        2.1135170     2.6292430    -0.0037130
units angstrom
no_reorient  #important for SAPT in psi4, default
symmetry c1  #important for SAPT in psi4, default
}

set PROPERTIES_ORIGIN ["COM"]
properties('MP2/aug-cc-pvtz', properties = ['dipole'])
--------------------------------------------------------------------------

    Molecular point group: c1
  Charge       = 0
  Multiplicity = 1
  Basis Set: AUG-CC-PVTZ
    Blend: AUG-CC-PVTZ
  Basis Set: (AUG-CC-PVTZ AUX)
    Blend: AUG-CC-PVTZ-JKFIT

    Orbital Energies [Eh]
    ---------------------

    Doubly Occupied:

       1A    -20.594006     2A    -15.566631     3A    -11.328920
       4A    -11.294026     5A    -11.286797     6A    -11.275014
       7A    -11.241384     8A    -11.237420     9A    -11.237416
      10A    -11.237315    11A    -11.231893    12A    -11.231891
      13A    -11.231318    14A     -1.429973    15A     -1.259046
      16A     -1.146527    17A     -1.090104    18A     -1.050075
      19A     -1.015652    20A     -0.996010    21A     -0.887638
      22A     -0.853318    23A     -0.834215    24A     -0.807981
      25A     -0.740839    26A     -0.703095    27A     -0.680462
      28A     -0.662060    29A     -0.657590    30A     -0.632341
      31A     -0.615590    32A     -0.594907    33A     -0.590899
      34A     -0.581768    35A     -0.567469    36A     -0.524265
      37A     -0.516889    38A     -0.510842    39A     -0.493618
      40A     -0.481533    41A     -0.435438    42A     -0.382677
      43A     -0.343966    44A     -0.334797    45A     -0.325966

  @DF-RHF Final Energy:  -551.26843740241247

   => Energetics <=

    Nuclear Repulsion Energy =            710.9010881986614550
    One-Electron Energy =               -2158.8558913975612086
    Two-Electron Energy =                 896.6863657964872800
    Total Energy =                       -551.2684374024124736
  Basis Set: (AUG-CC-PVTZ AUX)
    Blend: AUG-CC-PVTZ-RI
    Molecular point group: c1

    Geometry (in Angstrom), charge = 0, multiplicity = 1:

       Center              X                  Y                   Z               Mass
    ------------   -----------------  -----------------  -----------------  -----------------
         O            0.092135946793    -1.262390960538     0.001619261463    15.994914619570
         N            1.098810946793     0.840306039462    -0.001251738537    14.003074004430
         C           -1.132744053207    -0.584340960538     0.000783261463    12.000000000000
         C           -1.747811053207    -0.299766960538    -1.215344738537    12.000000000000
         C           -1.747104053207    -0.295317960538     1.216225261463    12.000000000000
         C            1.222184946793    -0.482343960538     0.000588261463    12.000000000000
         C           -3.011762053207     0.292006039462    -1.209937738537    12.000000000000
         C           -3.011050053207     0.296441039462     1.209384261463    12.000000000000
         C           -3.643785053207     0.592764039462    -0.000639738537    12.000000000000
         C            2.356397246793    -1.121641860538     0.001503961463    12.000000000000
         C            3.605725946793    -0.412843960538     0.000550261463    12.000000000000
         C            3.509543946793     0.984098039462    -0.001390738537    12.000000000000
         C            2.243050946793     1.556565039462    -0.002215738537    12.000000000000
         H           -1.238350053207    -0.546968960538    -2.142611738537     1.007825032230
         H           -1.237110053207    -0.539117960538     2.144099261463     1.007825032230
         H           -3.503017053207     0.518646039462    -2.153049738537     1.007825032230
         H           -3.501753053207     0.526540039462     2.151946261463     1.007825032230
         H            2.452653946793    -2.255966960538     0.003083261463     1.007825032230
         H           -4.628856053207     1.052243039462    -0.001192738537     1.007825032230
         H            4.576404946793    -0.902494960538     0.001254261463     1.007825032230
         H            4.396092946793     1.610723039462    -0.002238738537     1.007825032230
         H            2.116178946793     2.637501039462    -0.003721738537     1.007825032230

  Basis Set: AUG-CC-PVTZ
    Blend: AUG-CC-PVTZ
  Basis Set: (AUG-CC-PVTZ AUX)
    Blend: AUG-CC-PVTZ-JKFIT
	 Reference Energy          =    -551.2684374024124736 [Eh]
	 Singles Energy            =      -0.0000000000000000 [Eh]
	 Same-Spin Energy          =      -0.6002005963682453 [Eh]
	 Opposite-Spin Energy      =      -1.8255128558267866 [Eh]
	 Correlation Energy        =      -2.4257134521950316 [Eh]
	 Total Energy              =    -553.6941508546075283 [Eh]

	 ================> DF-SCS-MP2 Energies <==================
	-----------------------------------------------------------
	 SCS Same-Spin Scale       =       0.3333333333333333 [-]
	 SCS Opposite-Spin Scale   =       1.2000000000000000 [-]
	 SCS Same-Spin Energy      =      -0.2000668654560818 [Eh]
	 SCS Opposite-Spin Energy  =      -2.1906154269921436 [Eh]
	 SCS Correlation Energy    =      -2.3906822924482256 [Eh]
	 SCS Total Energy          =    -553.6591196948606921 [Eh]
	-----------------------------------------------------------

  Dipole Moment: [D]
     X:     1.6473      Y:     0.3383      Z:    -0.0003     Total:     1.6817

*** Psi4 exiting successfully. Buy a developer a beer!
