                               Psi4 1.4a3.dev225

  ==> Input File <==

--------------------------------------------------------------------------
#psi4
#
memory 32 gb

molecule  {
0 1
  O        0.0894740    -1.2706490     0.0016280
  N        1.0961490     0.8320480    -0.0012430
  C       -1.1354060    -0.5925990     0.0007920
  C       -1.7504730    -0.3080250    -1.2153360
  C       -1.7497660    -0.3035760     1.2162340
  C        1.2195230    -0.4906020     0.0005970
  C       -3.0144240     0.2837480    -1.2099290
  C       -3.0137120     0.2881830     1.2093930
  C       -3.6464470     0.5845060    -0.0006310
  C        2.4582729    -1.1888224     0.0015971
  C        3.6030640    -0.4211020     0.0005590
  C        3.5068820     0.9758400    -0.0013820
  C        2.2403890     1.5483070    -0.0022070
  H       -1.2410120    -0.5552270    -2.1426030
  H       -1.2397720    -0.5473760     2.1441080
  H       -3.5056790     0.5103880    -2.1530410
  H       -3.5044150     0.5182820     2.1519550
  H        2.4499920    -2.2642250     0.0030920
  H       -4.6315180     1.0439850    -0.0011840
  H        4.5737430    -0.9107530     0.0012630
  H        4.3934310     1.6024650    -0.0022300
  H        2.1135170     2.6292430    -0.0037130
units angstrom
no_reorient  #important for SAPT in psi4, default
symmetry c1  #important for SAPT in psi4, default
}

set PROPERTIES_ORIGIN ["COM"]
properties('MP2/aug-cc-pvtz', properties = ['dipole'])
--------------------------------------------------------------------------

    Molecular point group: c1
  Charge       = 0
  Multiplicity = 1
  Basis Set: AUG-CC-PVTZ
    Blend: AUG-CC-PVTZ
  Basis Set: (AUG-CC-PVTZ AUX)
    Blend: AUG-CC-PVTZ-JKFIT

    Orbital Energies [Eh]
    ---------------------

    Doubly Occupied:

       1A    -20.601845     2A    -15.565512     3A    -11.348425
       4A    -11.296895     5A    -11.283893     6A    -11.265247
       7A    -11.242661     8A    -11.239097     9A    -11.238991
      10A    -11.237384    11A    -11.234134    12A    -11.234127
      13A    -11.233122    14A     -1.433905    15A     -1.254937
      16A     -1.148153    17A     -1.094154    18A     -1.038767
      19A     -1.017549    20A     -0.996464    21A     -0.876948
      22A     -0.861917    23A     -0.836255    24A     -0.805142
      25A     -0.739580    26A     -0.706640    27A     -0.679343
      28A     -0.670817    29A     -0.659090    30A     -0.627301
      31A     -0.614237    32A     -0.594893    33A     -0.591473
      34A     -0.579689    35A     -0.570376    36A     -0.538186
      37A     -0.517449    38A     -0.514164    39A     -0.495749
      40A     -0.483585    41A     -0.431351    42A     -0.391446
      43A     -0.338670    44A     -0.329172    45A     -0.328201

  @DF-RHF Final Energy:  -551.28228229208037

   => Energetics <=

    Nuclear Repulsion Energy =            708.7344261179042633
    One-Electron Energy =               -2154.4595335755711858
    Two-Electron Energy =                 894.4428251655866688
    Total Energy =                       -551.2822822920803674
  Basis Set: (AUG-CC-PVTZ AUX)
    Blend: AUG-CC-PVTZ-RI
    Molecular point group: c1

    Geometry (in Angstrom), charge = 0, multiplicity = 1:

       Center              X                  Y                   Z               Mass
    ------------   -----------------  -----------------  -----------------  -----------------
         O            0.084802908675    -1.258257701898     0.001613341024    15.994914619570
         N            1.091477908675     0.844439298102    -0.001257658976    14.003074004430
         C           -1.140077091325    -0.580207701898     0.000777341024    12.000000000000
         C           -1.755144091325    -0.295633701898    -1.215350658976    12.000000000000
         C           -1.754437091325    -0.291184701898     1.216219341024    12.000000000000
         C            1.214851908675    -0.478210701898     0.000582341024    12.000000000000
         C           -3.019095091325     0.296139298102    -1.209943658976    12.000000000000
         C           -3.018383091325     0.300574298102     1.209378341024    12.000000000000
         C           -3.651118091325     0.596897298102    -0.000645658976    12.000000000000
         C            2.453601808675    -1.176431101898     0.001582441024    12.000000000000
         C            3.598392908675    -0.408710701898     0.000544341024    12.000000000000
         C            3.502210908675     0.988231298102    -0.001396658976    12.000000000000
         C            2.235717908675     1.560698298102    -0.002221658976    12.000000000000
         H           -1.245683091325    -0.542835701898    -2.142617658976     1.007825032230
         H           -1.244443091325    -0.534984701898     2.144093341024     1.007825032230
         H           -3.510350091325     0.522779298102    -2.153055658976     1.007825032230
         H           -3.509086091325     0.530673298102     2.151940341024     1.007825032230
         H            2.445320908675    -2.251833701898     0.003077341024     1.007825032230
         H           -4.636189091325     1.056376298102    -0.001198658976     1.007825032230
         H            4.569071908675    -0.898361701898     0.001248341024     1.007825032230
         H            4.388759908675     1.614856298102    -0.002244658976     1.007825032230
         H            2.108845908675     2.641634298102    -0.003727658976     1.007825032230

  Basis Set: AUG-CC-PVTZ
    Blend: AUG-CC-PVTZ
  Basis Set: (AUG-CC-PVTZ AUX)
    Blend: AUG-CC-PVTZ-JKFIT
	 Reference Energy          =    -551.2822822920803674 [Eh]
	 Singles Energy            =      -0.0000000000000000 [Eh]
	 Same-Spin Energy          =      -0.5994714534422375 [Eh]
	 Opposite-Spin Energy      =      -1.8247354691683371 [Eh]
	 Correlation Energy        =      -2.4242069226105745 [Eh]
	 Total Energy              =    -553.7064892146909187 [Eh]

	 ================> DF-SCS-MP2 Energies <==================
	-----------------------------------------------------------
	 SCS Same-Spin Scale       =       0.3333333333333333 [-]
	 SCS Opposite-Spin Scale   =       1.2000000000000000 [-]
	 SCS Same-Spin Energy      =      -0.1998238178140792 [Eh]
	 SCS Opposite-Spin Energy  =      -2.1896825630020045 [Eh]
	 SCS Correlation Energy    =      -2.3895063808160835 [Eh]
	 SCS Total Energy          =    -553.6717886728964686 [Eh]
	-----------------------------------------------------------

  Dipole Moment: [D]
     X:     1.3689      Y:     0.1960      Z:    -0.0001     Total:     1.3829

*** Psi4 exiting successfully. Buy a developer a beer!
