                               Psi4 1.3.2 release

  ==> Input File <==

--------------------------------------------------------------------------
#psi4
#
memory 32 gb

molecule  {
0 1
  O        0.0799912    -1.2721238    -0.1446012
  N        1.0961490     0.8320480    -0.0012430
  C       -1.1354060    -0.5925990     0.0007920
  C       -1.7504730    -0.3080250    -1.2153360
  C       -1.7497660    -0.3035760     1.2162340
  C        1.2195230    -0.4906020     0.0005970
  C       -3.0144240     0.2837480    -1.2099290
  C       -3.0137120     0.2881830     1.2093930
  C       -3.6464470     0.5845060    -0.0006310
  C        2.4408500    -1.1790020     0.0015830
  C        3.6030640    -0.4211020     0.0005590
  C        3.5068820     0.9758400    -0.0013820
  C        2.2403890     1.5483070    -0.0022070
  H       -1.2410120    -0.5552270    -2.1426030
  H       -1.2397720    -0.5473760     2.1441080
  H       -3.5056790     0.5103880    -2.1530410
  H       -3.5044150     0.5182820     2.1519550
  H        2.4499920    -2.2642250     0.0030920
  H       -4.6315180     1.0439850    -0.0011840
  H        4.5737430    -0.9107530     0.0012630
  H        4.3934310     1.6024650    -0.0022300
  H        2.1135170     2.6292430    -0.0037130
units angstrom
no_reorient  #important for SAPT in psi4, default
symmetry c1  #important for SAPT in psi4, default
}

set PROPERTIES_ORIGIN ["COM"]
properties('MP2/aug-cc-pvtz', properties = ['dipole'])
--------------------------------------------------------------------------

    Molecular point group: c1
  Charge       = 0
  Multiplicity = 1
  Basis Set: AUG-CC-PVTZ
    Blend: AUG-CC-PVTZ
  Basis Set: (AUG-CC-PVTZ AUX)
    Blend: AUG-CC-PVTZ-JKFIT

    Orbital Energies [Eh]
    ---------------------

    Doubly Occupied:

       1A    -20.600021     2A    -15.567553     3A    -11.346414
       4A    -11.295158     5A    -11.285254     6A    -11.267771
       7A    -11.243554     8A    -11.239686     9A    -11.239308
      10A    -11.236607    11A    -11.235820    12A    -11.231879
      13A    -11.229539    14A     -1.427726    15A     -1.256788
      16A     -1.146586    17A     -1.094436    18A     -1.040115
      19A     -1.016330    20A     -0.995857    21A     -0.877932
      22A     -0.860683    23A     -0.834565    24A     -0.805546
      25A     -0.737522    26A     -0.705982    27A     -0.678733
      28A     -0.668543    29A     -0.657135    30A     -0.628787
      31A     -0.614406    32A     -0.595374    33A     -0.590190
      34A     -0.579274    35A     -0.569060    36A     -0.537285
      37A     -0.517741    38A     -0.512740    39A     -0.494399
      40A     -0.481641    41A     -0.433117    42A     -0.390666
      43A     -0.339085    44A     -0.332999    45A     -0.325221

  @DF-RHF Final Energy:  -551.27823316383933

   => Energetics <=

    Nuclear Repulsion Energy =            708.7621201056912241
    One-Electron Energy =               -2154.5506469480883425
    Two-Electron Energy =                 894.5102936785576730
    Total Energy =                       -551.2782331638393316
  Basis Set: (AUG-CC-PVTZ AUX)
    Blend: AUG-CC-PVTZ-RI
    Molecular point group: c1

    Geometry (in Angstrom), charge = 0, multiplicity = 1:

       Center              X                  Y                   Z               Mass
    ------------   -----------------  -----------------  -----------------  -----------------
         O            0.077428922149    -1.260283483214    -0.130942424381    15.994914619570
         N            1.093586722149     0.843888316786     0.012415775619    14.003074004430
         C           -1.137968277851    -0.580758683214     0.014450775619    12.000000000000
         C           -1.753035277851    -0.296184683214    -1.201677224381    12.000000000000
         C           -1.752328277851    -0.291735683214     1.229892775619    12.000000000000
         C            1.216960722149    -0.478761683214     0.014255775619    12.000000000000
         C           -3.016986277851     0.295588316786    -1.196270224381    12.000000000000
         C           -3.016274277851     0.300023316786     1.223051775619    12.000000000000
         C           -3.649009277851     0.596346316786     0.013027775619    12.000000000000
         C            2.438287722149    -1.167161683214     0.015241775619    12.000000000000
         C            3.600501722149    -0.409261683214     0.014217775619    12.000000000000
         C            3.504319722149     0.987680316786     0.012276775619    12.000000000000
         C            2.237826722149     1.560147316786     0.011451775619    12.000000000000
         H           -1.243574277851    -0.543386683214    -2.128944224381     1.007825032230
         H           -1.242334277851    -0.535535683214     2.157766775619     1.007825032230
         H           -3.508241277851     0.522228316786    -2.139382224381     1.007825032230
         H           -3.506977277851     0.530122316786     2.165613775619     1.007825032230
         H            2.447429722149    -2.252384683214     0.016750775619     1.007825032230
         H           -4.634080277851     1.055825316786     0.012474775619     1.007825032230
         H            4.571180722149    -0.898912683214     0.014921775619     1.007825032230
         H            4.390868722149     1.614305316786     0.011428775619     1.007825032230
         H            2.110954722149     2.641083316786     0.009945775619     1.007825032230

  Basis Set: AUG-CC-PVTZ
    Blend: AUG-CC-PVTZ
  Basis Set: (AUG-CC-PVTZ AUX)
    Blend: AUG-CC-PVTZ-JKFIT
	 Reference Energy          =    -551.2782331638393316 [Eh]
	 Singles Energy            =      -0.0000000000000000 [Eh]
	 Same-Spin Energy          =      -0.5999865449219528 [Eh]
	 Opposite-Spin Energy      =      -1.8256070092039149 [Eh]
	 Correlation Energy        =      -2.4255935541258680 [Eh]
	 Total Energy              =    -553.7038267179651712 [Eh]

	 ================> DF-SCS-MP2 Energies <==================
	-----------------------------------------------------------
	 SCS Same-Spin Scale       =       0.3333333333333333 [-]
	 SCS Opposite-Spin Scale   =       1.2000000000000000 [-]
	 SCS Same-Spin Energy      =      -0.1999955149739843 [Eh]
	 SCS Opposite-Spin Energy  =      -2.1907284110446978 [Eh]
	 SCS Correlation Energy    =      -2.3907239260186821 [Eh]
	 SCS Total Energy          =    -553.6689570898580541 [Eh]
	-----------------------------------------------------------

  Dipole Moment: [D]
     X:     1.5766      Y:     0.2519      Z:     0.1586     Total:     1.6044

*** Psi4 exiting successfully. Buy a developer a beer!
