                               Psi4 1.4a3.dev225

  ==> Input File <==

--------------------------------------------------------------------------
#psi4
#
memory 32 gb

molecule  {
0 1
  O        0.0894740    -1.2706490     0.0016280
  N        1.0961490     0.8320480    -0.0012430
  C       -1.1354060    -0.5925990     0.0007920
  C       -1.7504730    -0.3080250    -1.2153360
  C       -1.7497660    -0.3035760     1.2162340
  C        1.2195230    -0.4906020     0.0005970
  C       -3.0144240     0.2837480    -1.2099290
  C       -3.0137120     0.2881830     1.2093930
  C       -3.6464470     0.5845060    -0.0006310
  C        2.4844074    -1.2035531     0.0016182
  C        3.6030640    -0.4211020     0.0005590
  C        3.5068820     0.9758400    -0.0013820
  C        2.2403890     1.5483070    -0.0022070
  H       -1.2410120    -0.5552270    -2.1426030
  H       -1.2397720    -0.5473760     2.1441080
  H       -3.5056790     0.5103880    -2.1530410
  H       -3.5044150     0.5182820     2.1519550
  H        2.4499920    -2.2642250     0.0030920
  H       -4.6315180     1.0439850    -0.0011840
  H        4.5737430    -0.9107530     0.0012630
  H        4.3934310     1.6024650    -0.0022300
  H        2.1135170     2.6292430    -0.0037130
units angstrom
no_reorient  #important for SAPT in psi4, default
symmetry c1  #important for SAPT in psi4, default
}

set PROPERTIES_ORIGIN ["COM"]
properties('MP2/aug-cc-pvtz', properties = ['dipole'])
--------------------------------------------------------------------------

    Molecular point group: c1
  Charge       = 0
  Multiplicity = 1
  Basis Set: AUG-CC-PVTZ
    Blend: AUG-CC-PVTZ
  Basis Set: (AUG-CC-PVTZ AUX)
    Blend: AUG-CC-PVTZ-JKFIT

    Orbital Energies [Eh]
    ---------------------

    Doubly Occupied:

       1A    -20.603532     2A    -15.565176     3A    -11.352256
       4A    -11.297484     5A    -11.283361     6A    -11.262944
       7A    -11.243778     8A    -11.239450     9A    -11.239343
      10A    -11.236537    11A    -11.234604    12A    -11.234597
      13A    -11.233499    14A     -1.434767    15A     -1.254062
      16A     -1.148510    17A     -1.095364    18A     -1.036763
      19A     -1.017947    20A     -0.996547    21A     -0.874704
      22A     -0.863776    23A     -0.836683    24A     -0.804287
      25A     -0.739130    26A     -0.707465    27A     -0.679295
      28A     -0.674147    29A     -0.659435    30A     -0.626110
      31A     -0.613339    32A     -0.594906    33A     -0.591704
      34A     -0.579232    35A     -0.570727    36A     -0.540093
      37A     -0.517522    38A     -0.514550    39A     -0.496157
      40A     -0.484041    41A     -0.429705    42A     -0.393846
      43A     -0.338821    44A     -0.328662    45A     -0.326974

  @DF-RHF Final Energy:  -551.27996477470731

   => Energetics <=

    Nuclear Repulsion Energy =            708.2295290665267657
    One-Electron Energy =               -2153.4273251795057149
    Two-Electron Energy =                 893.9178313382716397
    Total Energy =                       -551.2799647747073095
  Basis Set: (AUG-CC-PVTZ AUX)
    Blend: AUG-CC-PVTZ-RI
    Molecular point group: c1

    Geometry (in Angstrom), charge = 0, multiplicity = 1:

       Center              X                  Y                   Z               Mass
    ------------   -----------------  -----------------  -----------------  -----------------
         O            0.082969642131    -1.257224381976     0.001611860915    15.994914619570
         N            1.089644642131     0.845472618024    -0.001259139085    14.003074004430
         C           -1.141910357869    -0.579174381976     0.000775860915    12.000000000000
         C           -1.756977357869    -0.294600381976    -1.215352139085    12.000000000000
         C           -1.756270357869    -0.290151381976     1.216217860915    12.000000000000
         C            1.213018642131    -0.477177381976     0.000580860915    12.000000000000
         C           -3.020928357869     0.297172618024    -1.209945139085    12.000000000000
         C           -3.020216357869     0.301607618024     1.209376860915    12.000000000000
         C           -3.652951357869     0.597930618024    -0.000647139085    12.000000000000
         C            2.477903042131    -1.190128481976     0.001602060915    12.000000000000
         C            3.596559642131    -0.407677381976     0.000542860915    12.000000000000
         C            3.500377642131     0.989264618024    -0.001398139085    12.000000000000
         C            2.233884642131     1.561731618024    -0.002223139085    12.000000000000
         H           -1.247516357869    -0.541802381976    -2.142619139085     1.007825032230
         H           -1.246276357869    -0.533951381976     2.144091860915     1.007825032230
         H           -3.512183357869     0.523812618024    -2.153057139085     1.007825032230
         H           -3.510919357869     0.531706618024     2.151938860915     1.007825032230
         H            2.443487642131    -2.250800381976     0.003075860915     1.007825032230
         H           -4.638022357869     1.057409618024    -0.001200139085     1.007825032230
         H            4.567238642131    -0.897328381976     0.001246860915     1.007825032230
         H            4.386926642131     1.615889618024    -0.002246139085     1.007825032230
         H            2.107012642131     2.642667618024    -0.003729139085     1.007825032230

  Basis Set: AUG-CC-PVTZ
    Blend: AUG-CC-PVTZ
  Basis Set: (AUG-CC-PVTZ AUX)
    Blend: AUG-CC-PVTZ-JKFIT
	 Reference Energy          =    -551.2799647747073095 [Eh]
	 Singles Energy            =      -0.0000000000000000 [Eh]
	 Same-Spin Energy          =      -0.5992504053522828 [Eh]
	 Opposite-Spin Energy      =      -1.8247463902006369 [Eh]
	 Correlation Energy        =      -2.4239967955529198 [Eh]
	 Total Energy              =    -553.7039615702602759 [Eh]

	 ================> DF-SCS-MP2 Energies <==================
	-----------------------------------------------------------
	 SCS Same-Spin Scale       =       0.3333333333333333 [-]
	 SCS Opposite-Spin Scale   =       1.2000000000000000 [-]
	 SCS Same-Spin Energy      =      -0.1997501351174276 [Eh]
	 SCS Opposite-Spin Energy  =      -2.1896956682407640 [Eh]
	 SCS Correlation Energy    =      -2.3894458033581918 [Eh]
	 SCS Total Energy          =    -553.6694105780654809 [Eh]
	-----------------------------------------------------------

  Dipole Moment: [D]
     X:     1.3077      Y:     0.1672      Z:    -0.0000     Total:     1.3183

*** Psi4 exiting successfully. Buy a developer a beer!
