                               Psi4 1.3.2 release

  ==> Input File <==

--------------------------------------------------------------------------
#psi4
#
memory 32 gb

molecule  {
0 1
  O        0.0894740    -1.2706490     0.0016280
  N        1.1887130     0.8374322    -0.0012482
  C       -1.1354060    -0.5925990     0.0007920
  C       -1.7504730    -0.3080250    -1.2153360
  C       -1.7497660    -0.3035760     1.2162340
  C        1.2195230    -0.4906020     0.0005970
  C       -3.0144240     0.2837480    -1.2099290
  C       -3.0137120     0.2881830     1.2093930
  C       -3.6464470     0.5845060    -0.0006310
  C        2.4408500    -1.1790020     0.0015830
  C        3.6030640    -0.4211020     0.0005590
  C        3.5068820     0.9758400    -0.0013820
  C        2.2403890     1.5483070    -0.0022070
  H       -1.2410120    -0.5552270    -2.1426030
  H       -1.2397720    -0.5473760     2.1441080
  H       -3.5056790     0.5103880    -2.1530410
  H       -3.5044150     0.5182820     2.1519550
  H        2.4499920    -2.2642250     0.0030920
  H       -4.6315180     1.0439850    -0.0011840
  H        4.5737430    -0.9107530     0.0012630
  H        4.3934310     1.6024650    -0.0022300
  H        2.1135170     2.6292430    -0.0037130
units angstrom
no_reorient  #important for SAPT in psi4, default
symmetry c1  #important for SAPT in psi4, default
}

set PROPERTIES_ORIGIN ["COM"]
properties('MP2/aug-cc-pvtz', properties = ['dipole'])
--------------------------------------------------------------------------

    Molecular point group: c1
  Charge       = 0
  Multiplicity = 1
  Basis Set: AUG-CC-PVTZ
    Blend: AUG-CC-PVTZ
  Basis Set: (AUG-CC-PVTZ AUX)
    Blend: AUG-CC-PVTZ-JKFIT

    Orbital Energies [Eh]
    ---------------------

    Doubly Occupied:

       1A    -20.604735     2A    -15.555788     3A    -11.345879
       4A    -11.298366     5A    -11.273777     6A    -11.261996
       7A    -11.240632     8A    -11.240524     9A    -11.239028
      10A    -11.235874    11A    -11.235867    12A    -11.234744
      13A    -11.233251    14A     -1.434701    15A     -1.276824
      16A     -1.150150    17A     -1.090561    18A     -1.042754
      19A     -1.019178    20A     -0.998167    21A     -0.874556
      22A     -0.868556    23A     -0.837851    24A     -0.809632
      25A     -0.743638    26A     -0.710217    27A     -0.681855
      28A     -0.666158    29A     -0.660945    30A     -0.628629
      31A     -0.619058    32A     -0.596588    33A     -0.593636
      34A     -0.583995    35A     -0.570813    36A     -0.539702
      37A     -0.523894    38A     -0.515505    39A     -0.497348
      40A     -0.486933    41A     -0.414665    42A     -0.392796
      43A     -0.340116    44A     -0.330462    45A     -0.327115

  @DF-RHF Final Energy:  -551.27856543126359

   => Energetics <=

    Nuclear Repulsion Energy =            709.8087544337704458
    One-Electron Energy =               -2156.5197268380507012
    Two-Electron Energy =                 895.4324069730166684
    Total Energy =                       -551.2785654312635870
  Basis Set: (AUG-CC-PVTZ AUX)
    Blend: AUG-CC-PVTZ-RI
    Molecular point group: c1

    Geometry (in Angstrom), charge = 0, multiplicity = 1:

       Center              X                  Y                   Z               Mass
    ------------   -----------------  -----------------  -----------------  -----------------
         O            0.078448107591    -1.259387309326     0.001614755757    15.994914619570
         N            1.177687107591     0.848693890674    -0.001261444243    14.003074004430
         C           -1.146431892409    -0.581337309326     0.000778755757    12.000000000000
         C           -1.761498892409    -0.296763309326    -1.215349244243    12.000000000000
         C           -1.760791892409    -0.292314309326     1.216220755757    12.000000000000
         C            1.208497107591    -0.479340309326     0.000583755757    12.000000000000
         C           -3.025449892409     0.295009690674    -1.209942244243    12.000000000000
         C           -3.024737892409     0.299444690674     1.209379755757    12.000000000000
         C           -3.657472892409     0.595767690674    -0.000644244243    12.000000000000
         C            2.429824107591    -1.167740309326     0.001569755757    12.000000000000
         C            3.592038107591    -0.409840309326     0.000545755757    12.000000000000
         C            3.495856107591     0.987101690674    -0.001395244243    12.000000000000
         C            2.229363107591     1.559568690674    -0.002220244243    12.000000000000
         H           -1.252037892409    -0.543965309326    -2.142616244243     1.007825032230
         H           -1.250797892409    -0.536114309326     2.144094755757     1.007825032230
         H           -3.516704892409     0.521649690674    -2.153054244243     1.007825032230
         H           -3.515440892409     0.529543690674     2.151941755757     1.007825032230
         H            2.438966107591    -2.252963309326     0.003078755757     1.007825032230
         H           -4.642543892409     1.055246690674    -0.001197244243     1.007825032230
         H            4.562717107591    -0.899491309326     0.001249755757     1.007825032230
         H            4.382405107591     1.613726690674    -0.002243244243     1.007825032230
         H            2.102491107591     2.640504690674    -0.003726244243     1.007825032230

  Basis Set: AUG-CC-PVTZ
    Blend: AUG-CC-PVTZ
  Basis Set: (AUG-CC-PVTZ AUX)
    Blend: AUG-CC-PVTZ-JKFIT
	 Reference Energy          =    -551.2785654312635870 [Eh]
	 Singles Energy            =      -0.0000000000000000 [Eh]
	 Same-Spin Energy          =      -0.5993094081566185 [Eh]
	 Opposite-Spin Energy      =      -1.8227415874792805 [Eh]
	 Correlation Energy        =      -2.4220509956358991 [Eh]
	 Total Energy              =    -553.7006164268995008 [Eh]

	 ================> DF-SCS-MP2 Energies <==================
	-----------------------------------------------------------
	 SCS Same-Spin Scale       =       0.3333333333333333 [-]
	 SCS Opposite-Spin Scale   =       1.2000000000000000 [-]
	 SCS Same-Spin Energy      =      -0.1997698027188728 [Eh]
	 SCS Opposite-Spin Energy  =      -2.1872899049751364 [Eh]
	 SCS Correlation Energy    =      -2.3870597076940094 [Eh]
	 SCS Total Energy          =    -553.6656251389575800 [Eh]
	-----------------------------------------------------------

  Dipole Moment: [D]
     X:     1.0766      Y:     0.2177      Z:    -0.0001     Total:     1.0984

*** Psi4 exiting successfully. Buy a developer a beer!
