                               Psi4 1.3.2 release

  ==> Input File <==

--------------------------------------------------------------------------
#psi4
#
memory 32 gb

molecule  {
0 1
  O        0.0894740    -1.2706490     0.0016280
  N        1.0961490     0.8320480    -0.0012430
  C       -1.1354060    -0.5925990     0.0007920
  C       -1.7504730    -0.3080250    -1.2153360
  C       -1.7497660    -0.3035760     1.2162340
  C        1.2195230    -0.4906020     0.0005970
  C       -3.0144240     0.2837480    -1.2099290
  C       -3.0137120     0.2881830     1.2093930
  C       -3.6464470     0.5845060    -0.0006310
  C        2.2666206    -1.0807977     0.0014423
  C        3.6030640    -0.4211020     0.0005590
  C        3.5068820     0.9758400    -0.0013820
  C        2.2403890     1.5483070    -0.0022070
  H       -1.2410120    -0.5552270    -2.1426030
  H       -1.2397720    -0.5473760     2.1441080
  H       -3.5056790     0.5103880    -2.1530410
  H       -3.5044150     0.5182820     2.1519550
  H        2.4499920    -2.2642250     0.0030920
  H       -4.6315180     1.0439850    -0.0011840
  H        4.5737430    -0.9107530     0.0012630
  H        4.3934310     1.6024650    -0.0022300
  H        2.1135170     2.6292430    -0.0037130
units angstrom
no_reorient  #important for SAPT in psi4, default
symmetry c1  #important for SAPT in psi4, default
}

set PROPERTIES_ORIGIN ["COM"]
properties('MP2/aug-cc-pvtz', properties = ['dipole'])
--------------------------------------------------------------------------

    Molecular point group: c1
  Charge       = 0
  Multiplicity = 1
  Basis Set: AUG-CC-PVTZ
    Blend: AUG-CC-PVTZ
  Basis Set: (AUG-CC-PVTZ AUX)
    Blend: AUG-CC-PVTZ-JKFIT

    Orbital Energies [Eh]
    ---------------------

    Doubly Occupied:

       1A    -20.586773     2A    -15.567420     3A    -11.308510
       4A    -11.291249     5A    -11.289876     6A    -11.282822
       7A    -11.245250     8A    -11.235864     9A    -11.235761
      10A    -11.231668    11A    -11.229836    12A    -11.229806
      13A    -11.229614    14A     -1.426792    15A     -1.263521
      16A     -1.145267    17A     -1.088900    18A     -1.062692
      19A     -1.013888    20A     -0.995322    21A     -0.896890
      22A     -0.845140    23A     -0.832322    24A     -0.809185
      25A     -0.741552    26A     -0.699583    27A     -0.682525
      28A     -0.660378    29A     -0.656791    30A     -0.632552
      31A     -0.615669    32A     -0.594476    33A     -0.592497
      34A     -0.583153    35A     -0.565154    36A     -0.516134
      37A     -0.514585    38A     -0.499141    39A     -0.491278
      40A     -0.479763    41A     -0.435641    42A     -0.376723
      43A     -0.357816    44A     -0.333824    45A     -0.323824

  @DF-RHF Final Energy:  -551.21903792504304

   => Energetics <=

    Nuclear Repulsion Energy =            712.9377151344540380
    One-Electron Energy =               -2162.9186495687154093
    Two-Electron Energy =                 898.7618965092183316
    Total Energy =                       -551.2190379250430396
  Basis Set: (AUG-CC-PVTZ AUX)
    Blend: AUG-CC-PVTZ-RI
    Molecular point group: c1

    Geometry (in Angstrom), charge = 0, multiplicity = 1:

       Center              X                  Y                   Z               Mass
    ------------   -----------------  -----------------  -----------------  -----------------
         O            0.098246814229    -1.265835350923     0.001624199838    15.994914619570
         N            1.104921814229     0.836861649077    -0.001246800162    14.003074004430
         C           -1.126633185771    -0.587785350923     0.000788199838    12.000000000000
         C           -1.741700185771    -0.303211350923    -1.215339800162    12.000000000000
         C           -1.740993185771    -0.298762350923     1.216230199838    12.000000000000
         C            1.228295814229    -0.485788350923     0.000593199838    12.000000000000
         C           -3.005651185771     0.288561649077    -1.209932800162    12.000000000000
         C           -3.004939185771     0.292996649077     1.209389199838    12.000000000000
         C           -3.637674185771     0.589319649077    -0.000634800162    12.000000000000
         C            2.275393414229    -1.075984050923     0.001438499838    12.000000000000
         C            3.611836814229    -0.416288350923     0.000555199838    12.000000000000
         C            3.515654814229     0.980653649077    -0.001385800162    12.000000000000
         C            2.249161814229     1.553120649077    -0.002210800162    12.000000000000
         H           -1.232239185771    -0.550413350923    -2.142606800162     1.007825032230
         H           -1.230999185771    -0.542562350923     2.144104199838     1.007825032230
         H           -3.496906185771     0.515201649077    -2.153044800162     1.007825032230
         H           -3.495642185771     0.523095649077     2.151951199838     1.007825032230
         H            2.458764814229    -2.259411350923     0.003088199838     1.007825032230
         H           -4.622745185771     1.048798649077    -0.001187800162     1.007825032230
         H            4.582515814229    -0.905939350923     0.001259199838     1.007825032230
         H            4.402203814229     1.607278649077    -0.002233800162     1.007825032230
         H            2.122289814229     2.634056649077    -0.003716800162     1.007825032230

  Basis Set: AUG-CC-PVTZ
    Blend: AUG-CC-PVTZ
  Basis Set: (AUG-CC-PVTZ AUX)
    Blend: AUG-CC-PVTZ-JKFIT
	 Reference Energy          =    -551.2190379250430396 [Eh]
	 Singles Energy            =      -0.0000000000000000 [Eh]
	 Same-Spin Energy          =      -0.6004952789491527 [Eh]
	 Opposite-Spin Energy      =      -1.8271086311037679 [Eh]
	 Correlation Energy        =      -2.4276039100529205 [Eh]
	 Total Energy              =    -553.6466418350959202 [Eh]

	 ================> DF-SCS-MP2 Energies <==================
	-----------------------------------------------------------
	 SCS Same-Spin Scale       =       0.3333333333333333 [-]
	 SCS Opposite-Spin Scale   =       1.2000000000000000 [-]
	 SCS Same-Spin Energy      =      -0.2001650929830509 [Eh]
	 SCS Opposite-Spin Energy  =      -2.1925303573245212 [Eh]
	 SCS Correlation Energy    =      -2.3926954503075719 [Eh]
	 SCS Total Energy          =    -553.6117333753505818 [Eh]
	-----------------------------------------------------------

  Dipole Moment: [D]
     X:     1.9229      Y:     0.4984      Z:    -0.0005     Total:     1.9864

*** Psi4 exiting successfully. Buy a developer a beer!
