                               Psi4 1.3.2 release

  ==> Input File <==

--------------------------------------------------------------------------
#psi4
#
memory 32 gb

molecule  {
0 1
  O        0.0894740    -1.2706490     0.0016280
  N        1.0961490     0.8320480    -0.0012430
  C       -1.1354060    -0.5925990     0.0007920
  C       -1.7504730    -0.3080250    -1.2153360
  C       -1.7497660    -0.3035760     1.2162340
  C        1.2195230    -0.4906020     0.0005970
  C       -3.0144240     0.2837480    -1.2099290
  C       -3.0137120     0.2881830     1.2093930
  C       -3.6464470     0.5845060    -0.0006310
  C        2.4408500    -1.1790020     0.0015830
  C        3.6030640    -0.4211020     0.0005590
  C        3.5068820     0.9758400    -0.0013820
  C        2.1556261     1.4952481    -0.0021356
  H       -1.2410120    -0.5552270    -2.1426030
  H       -1.2397720    -0.5473760     2.1441080
  H       -3.5056790     0.5103880    -2.1530410
  H       -3.5044150     0.5182820     2.1519550
  H        2.4499920    -2.2642250     0.0030920
  H       -4.6315180     1.0439850    -0.0011840
  H        4.5737430    -0.9107530     0.0012630
  H        4.3934310     1.6024650    -0.0022300
  H        2.1135170     2.6292430    -0.0037130
units angstrom
no_reorient  #important for SAPT in psi4, default
symmetry c1  #important for SAPT in psi4, default
}

set PROPERTIES_ORIGIN ["COM"]
properties('MP2/aug-cc-pvtz', properties = ['dipole'])
--------------------------------------------------------------------------

    Molecular point group: c1
  Charge       = 0
  Multiplicity = 1
  Basis Set: AUG-CC-PVTZ
    Blend: AUG-CC-PVTZ
  Basis Set: (AUG-CC-PVTZ AUX)
    Blend: AUG-CC-PVTZ-JKFIT

    Orbital Energies [Eh]
    ---------------------

    Doubly Occupied:

       1A    -20.601475     2A    -15.563655     3A    -11.347486
       4A    -11.297692     5A    -11.286253     6A    -11.263620
       7A    -11.240201     8A    -11.240097     9A    -11.239628
      10A    -11.238372    11A    -11.235123    12A    -11.235117
      13A    -11.234129    14A     -1.435127    15A     -1.288017
      16A     -1.149650    17A     -1.096692    18A     -1.035691
      19A     -1.018641    20A     -0.992772    21A     -0.871907
      22A     -0.870130    23A     -0.837315    24A     -0.808640
      25A     -0.741293    26A     -0.707424    27A     -0.682374
      28A     -0.669401    29A     -0.660652    30A     -0.626033
      31A     -0.607017    32A     -0.594599    33A     -0.594003
      34A     -0.585209    35A     -0.570699    36A     -0.541983
      37A     -0.523714    38A     -0.514879    39A     -0.497066
      40A     -0.485851    41A     -0.423808    42A     -0.401598
      43A     -0.339349    44A     -0.329236    45A     -0.321164

  @DF-RHF Final Energy:  -551.27163677958083

   => Energetics <=

    Nuclear Repulsion Energy =            710.8032093494342689
    One-Electron Energy =               -2158.4601268076417000
    Two-Electron Energy =                 896.3852806786264864
    Total Energy =                       -551.2716367795808310
  Basis Set: (AUG-CC-PVTZ AUX)
    Blend: AUG-CC-PVTZ-RI
    Molecular point group: c1

    Geometry (in Angstrom), charge = 0, multiplicity = 1:

       Center              X                  Y                   Z               Mass
    ------------   -----------------  -----------------  -----------------  -----------------
         O            0.091970974199    -1.255224634669     0.001609321580    15.994914619570
         N            1.098645974199     0.847472365331    -0.001261678420    14.003074004430
         C           -1.132909025801    -0.577174634669     0.000773321580    12.000000000000
         C           -1.747976025801    -0.292600634669    -1.215354678420    12.000000000000
         C           -1.747269025801    -0.288151634669     1.216215321580    12.000000000000
         C            1.222019974199    -0.475177634669     0.000578321580    12.000000000000
         C           -3.011927025801     0.299172365331    -1.209947678420    12.000000000000
         C           -3.011215025801     0.303607365331     1.209374321580    12.000000000000
         C           -3.643950025801     0.599930365331    -0.000649678420    12.000000000000
         C            2.443346974199    -1.163577634669     0.001564321580    12.000000000000
         C            3.605560974199    -0.405677634669     0.000540321580    12.000000000000
         C            3.509378974199     0.991264365331    -0.001400678420    12.000000000000
         C            2.158123074199     1.510672465331    -0.002154278420    12.000000000000
         H           -1.238515025801    -0.539802634669    -2.142621678420     1.007825032230
         H           -1.237275025801    -0.531951634669     2.144089321580     1.007825032230
         H           -3.503182025801     0.525812365331    -2.153059678420     1.007825032230
         H           -3.501918025801     0.533706365331     2.151936321580     1.007825032230
         H            2.452488974199    -2.248800634669     0.003073321580     1.007825032230
         H           -4.629021025801     1.059409365331    -0.001202678420     1.007825032230
         H            4.576239974199    -0.895328634669     0.001244321580     1.007825032230
         H            4.395927974199     1.617889365331    -0.002248678420     1.007825032230
         H            2.116013974199     2.644667365331    -0.003731678420     1.007825032230

  Basis Set: AUG-CC-PVTZ
    Blend: AUG-CC-PVTZ
  Basis Set: (AUG-CC-PVTZ AUX)
    Blend: AUG-CC-PVTZ-JKFIT
	 Reference Energy          =    -551.2716367795808310 [Eh]
	 Singles Energy            =      -0.0000000000000000 [Eh]
	 Same-Spin Energy          =      -0.5992459408903990 [Eh]
	 Opposite-Spin Energy      =      -1.8235312657257525 [Eh]
	 Correlation Energy        =      -2.4227772066161517 [Eh]
	 Total Energy              =    -553.6944139861969916 [Eh]

	 ================> DF-SCS-MP2 Energies <==================
	-----------------------------------------------------------
	 SCS Same-Spin Scale       =       0.3333333333333333 [-]
	 SCS Opposite-Spin Scale   =       1.2000000000000000 [-]
	 SCS Same-Spin Energy      =      -0.1997486469634663 [Eh]
	 SCS Opposite-Spin Energy  =      -2.1882375188709031 [Eh]
	 SCS Correlation Energy    =      -2.3879861658343695 [Eh]
	 SCS Total Energy          =    -553.6596229454152081 [Eh]
	-----------------------------------------------------------

  Dipole Moment: [D]
     X:     1.2140      Y:     0.1822      Z:    -0.0000     Total:     1.2276

*** Psi4 exiting successfully. Buy a developer a beer!
