                               Psi4 1.3.2 release

  ==> Input File <==

--------------------------------------------------------------------------
#psi4
#
memory 32 gb

molecule  {
0 1
  O        0.0894740    -1.2706490     0.0016280
  N        1.0961490     0.8320480    -0.0012430
  C       -1.1109962    -0.5502644     0.0007371
  C       -1.7504730    -0.3080250    -1.2153360
  C       -1.7497660    -0.3035760     1.2162340
  C        1.2195230    -0.4906020     0.0005970
  C       -3.0144240     0.2837480    -1.2099290
  C       -3.0137120     0.2881830     1.2093930
  C       -3.6464470     0.5845060    -0.0006310
  C        2.4408500    -1.1790020     0.0015830
  C        3.6030640    -0.4211020     0.0005590
  C        3.5068820     0.9758400    -0.0013820
  C        2.2403890     1.5483070    -0.0022070
  H       -1.2410120    -0.5552270    -2.1426030
  H       -1.2397720    -0.5473760     2.1441080
  H       -3.5056790     0.5103880    -2.1530410
  H       -3.5044150     0.5182820     2.1519550
  H        2.4499920    -2.2642250     0.0030920
  H       -4.6315180     1.0439850    -0.0011840
  H        4.5737430    -0.9107530     0.0012630
  H        4.3934310     1.6024650    -0.0022300
  H        2.1135170     2.6292430    -0.0037130
units angstrom
no_reorient  #important for SAPT in psi4, default
symmetry c1  #important for SAPT in psi4, default
}

set PROPERTIES_ORIGIN ["COM"]
properties('MP2/aug-cc-pvtz', properties = ['dipole'])
--------------------------------------------------------------------------

    Molecular point group: c1
  Charge       = 0
  Multiplicity = 1
  Basis Set: AUG-CC-PVTZ
    Blend: AUG-CC-PVTZ
  Basis Set: (AUG-CC-PVTZ AUX)
    Blend: AUG-CC-PVTZ-JKFIT

    Orbital Energies [Eh]
    ---------------------

    Doubly Occupied:

       1A    -20.602442     2A    -15.566178     3A    -11.345439
       4A    -11.296575     5A    -11.284715     6A    -11.267119
       7A    -11.242048     8A    -11.238469     9A    -11.238363
      10A    -11.238319    11A    -11.233629    12A    -11.233621
      13A    -11.232496    14A     -1.435411    15A     -1.255952
      16A     -1.146989    17A     -1.093786    18A     -1.039945
      19A     -1.016544    20A     -0.996131    21A     -0.878912
      22A     -0.860251    23A     -0.835175    24A     -0.805656
      25A     -0.738780    26A     -0.707218    27A     -0.679402
      28A     -0.668737    29A     -0.659033    30A     -0.628541
      31A     -0.615096    32A     -0.595343    33A     -0.590474
      34A     -0.580094    35A     -0.570750    36A     -0.536783
      37A     -0.517469    38A     -0.513639    39A     -0.495330
      40A     -0.482875    41A     -0.433030    42A     -0.390356
      43A     -0.338798    44A     -0.330420    45A     -0.326826

  @DF-RHF Final Energy:  -551.28093679388144

   => Energetics <=

    Nuclear Repulsion Energy =            709.3492599615734662
    One-Electron Energy =               -2155.6940753256367316
    Two-Electron Energy =                 895.0638785701819415
    Total Energy =                       -551.2809367938814376
  Basis Set: (AUG-CC-PVTZ AUX)
    Blend: AUG-CC-PVTZ-RI
    Molecular point group: c1

    Geometry (in Angstrom), charge = 0, multiplicity = 1:

       Center              X                  Y                   Z               Mass
    ------------   -----------------  -----------------  -----------------  -----------------
         O            0.084312795988    -1.261916238185     0.001618181193    15.994914619570
         N            1.090987795988     0.840780761815    -0.001252818807    14.003074004430
         C           -1.116157404012    -0.541531638185     0.000727281193    12.000000000000
         C           -1.755634204012    -0.299292238185    -1.215345818807    12.000000000000
         C           -1.754927204012    -0.294843238185     1.216224181193    12.000000000000
         C            1.214361795988    -0.481869238185     0.000587181193    12.000000000000
         C           -3.019585204012     0.292480761815    -1.209938818807    12.000000000000
         C           -3.018873204012     0.296915761815     1.209383181193    12.000000000000
         C           -3.651608204012     0.593238761815    -0.000640818807    12.000000000000
         C            2.435688795988    -1.170269238185     0.001573181193    12.000000000000
         C            3.597902795988    -0.412369238185     0.000549181193    12.000000000000
         C            3.501720795988     0.984572761815    -0.001391818807    12.000000000000
         C            2.235227795988     1.557039761815    -0.002216818807    12.000000000000
         H           -1.246173204012    -0.546494238185    -2.142612818807     1.007825032230
         H           -1.244933204012    -0.538643238185     2.144098181193     1.007825032230
         H           -3.510840204012     0.519120761815    -2.153050818807     1.007825032230
         H           -3.509576204012     0.527014761815     2.151945181193     1.007825032230
         H            2.444830795988    -2.255492238185     0.003082181193     1.007825032230
         H           -4.636679204012     1.052717761815    -0.001193818807     1.007825032230
         H            4.568581795988    -0.902020238185     0.001253181193     1.007825032230
         H            4.388269795988     1.611197761815    -0.002239818807     1.007825032230
         H            2.108355795988     2.637975761815    -0.003722818807     1.007825032230

  Basis Set: AUG-CC-PVTZ
    Blend: AUG-CC-PVTZ
  Basis Set: (AUG-CC-PVTZ AUX)
    Blend: AUG-CC-PVTZ-JKFIT
	 Reference Energy          =    -551.2809367938814376 [Eh]
	 Singles Energy            =      -0.0000000000000000 [Eh]
	 Same-Spin Energy          =      -0.5999257053744464 [Eh]
	 Opposite-Spin Energy      =      -1.8255343155233041 [Eh]
	 Correlation Energy        =      -2.4254600208977504 [Eh]
	 Total Energy              =    -553.7063968147791684 [Eh]

	 ================> DF-SCS-MP2 Energies <==================
	-----------------------------------------------------------
	 SCS Same-Spin Scale       =       0.3333333333333333 [-]
	 SCS Opposite-Spin Scale   =       1.2000000000000000 [-]
	 SCS Same-Spin Energy      =      -0.1999752351248155 [Eh]
	 SCS Opposite-Spin Energy  =      -2.1906411786279647 [Eh]
	 SCS Correlation Energy    =      -2.3906164137527801 [Eh]
	 SCS Total Energy          =    -553.6715532076342470 [Eh]
	-----------------------------------------------------------

  Dipole Moment: [D]
     X:     1.4653      Y:     0.2206      Z:    -0.0001     Total:     1.4818

*** Psi4 exiting successfully. Buy a developer a beer!
