                               Psi4 1.3.2 release

  ==> Input File <==

--------------------------------------------------------------------------
#psi4
#
memory 32 gb

molecule  {
0 1
  O        0.0894740    -1.2706490     0.0016280
  N        1.0961490     0.8320480    -0.0012430
  C       -1.1470531    -0.6140794     0.0008199
  C       -1.7504730    -0.3080250    -1.2153360
  C       -1.7497660    -0.3035760     1.2162340
  C        1.2195230    -0.4906020     0.0005970
  C       -3.0144240     0.2837480    -1.2099290
  C       -3.0137120     0.2881830     1.2093930
  C       -3.6464470     0.5845060    -0.0006310
  C        2.4408500    -1.1790020     0.0015830
  C        3.6030640    -0.4211020     0.0005590
  C        3.5068820     0.9758400    -0.0013820
  C        2.2403890     1.5483070    -0.0022070
  H       -1.2410120    -0.5552270    -2.1426030
  H       -1.2397720    -0.5473760     2.1441080
  H       -3.5056790     0.5103880    -2.1530410
  H       -3.5044150     0.5182820     2.1519550
  H        2.4499920    -2.2642250     0.0030920
  H       -4.6315180     1.0439850    -0.0011840
  H        4.5737430    -0.9107530     0.0012630
  H        4.3934310     1.6024650    -0.0022300
  H        2.1135170     2.6292430    -0.0037130
units angstrom
no_reorient  #important for SAPT in psi4, default
symmetry c1  #important for SAPT in psi4, default
}

set PROPERTIES_ORIGIN ["COM"]
properties('MP2/aug-cc-pvtz', properties = ['dipole'])
--------------------------------------------------------------------------

    Molecular point group: c1
  Charge       = 0
  Multiplicity = 1
  Basis Set: AUG-CC-PVTZ
    Blend: AUG-CC-PVTZ
  Basis Set: (AUG-CC-PVTZ AUX)
    Blend: AUG-CC-PVTZ-JKFIT

    Orbital Energies [Eh]
    ---------------------

    Doubly Occupied:

       1A    -20.599709     2A    -15.565511     3A    -11.345743
       4A    -11.296594     5A    -11.284098     6A    -11.266697
       7A    -11.241808     8A    -11.238993     9A    -11.238884
      10A    -11.237825    11A    -11.234043    12A    -11.234036
      13A    -11.233102    14A     -1.432229    15A     -1.255359
      16A     -1.148204    17A     -1.093193    18A     -1.040420
      19A     -1.017535    20A     -0.996447    21A     -0.878418
      22A     -0.860778    23A     -0.836148    24A     -0.805704
      25A     -0.740294    26A     -0.705524    27A     -0.679463
      28A     -0.668839    29A     -0.658683    30A     -0.628089
      31A     -0.614472    32A     -0.594627    33A     -0.591610
      34A     -0.579945    35A     -0.569612    36A     -0.536388
      37A     -0.517347    38A     -0.514050    39A     -0.495247
      40A     -0.483287    41A     -0.431968    42A     -0.389663
      43A     -0.338547    44A     -0.330754    45A     -0.328281

  @DF-RHF Final Energy:  -551.28280668887294

   => Energetics <=

    Nuclear Repulsion Energy =            708.9210655159299677
    One-Electron Energy =               -2154.8514083840195781
    Two-Electron Energy =                 894.6475361792166723
    Total Energy =                       -551.2828066888729381
  Basis Set: (AUG-CC-PVTZ AUX)
    Blend: AUG-CC-PVTZ-RI
    Molecular point group: c1

    Geometry (in Angstrom), charge = 0, multiplicity = 1:

       Center              X                  Y                   Z               Mass
    ------------   -----------------  -----------------  -----------------  -----------------
         O            0.086842092835    -1.257439783517     0.001612372991    15.994914619570
         N            1.093517092835     0.845257216483    -0.001258627009    14.003074004430
         C           -1.149685007165    -0.600870183517     0.000804272991    12.000000000000
         C           -1.753104907165    -0.294815783517    -1.215351627009    12.000000000000
         C           -1.752397907165    -0.290366783517     1.216218372991    12.000000000000
         C            1.216891092835    -0.477392783517     0.000581372991    12.000000000000
         C           -3.017055907165     0.296957216483    -1.209944627009    12.000000000000
         C           -3.016343907165     0.301392216483     1.209377372991    12.000000000000
         C           -3.649078907165     0.597715216483    -0.000646627009    12.000000000000
         C            2.438218092835    -1.165792783517     0.001567372991    12.000000000000
         C            3.600432092835    -0.407892783517     0.000543372991    12.000000000000
         C            3.504250092835     0.989049216483    -0.001397627009    12.000000000000
         C            2.237757092835     1.561516216483    -0.002222627009    12.000000000000
         H           -1.243643907165    -0.542017783517    -2.142618627009     1.007825032230
         H           -1.242403907165    -0.534166783517     2.144092372991     1.007825032230
         H           -3.508310907165     0.523597216483    -2.153056627009     1.007825032230
         H           -3.507046907165     0.531491216483     2.151939372991     1.007825032230
         H            2.447360092835    -2.251015783517     0.003076372991     1.007825032230
         H           -4.634149907165     1.057194216483    -0.001199627009     1.007825032230
         H            4.571111092835    -0.897543783517     0.001247372991     1.007825032230
         H            4.390799092835     1.615674216483    -0.002245627009     1.007825032230
         H            2.110885092835     2.642452216483    -0.003728627009     1.007825032230

  Basis Set: AUG-CC-PVTZ
    Blend: AUG-CC-PVTZ
  Basis Set: (AUG-CC-PVTZ AUX)
    Blend: AUG-CC-PVTZ-JKFIT
	 Reference Energy          =    -551.2828066888729381 [Eh]
	 Singles Energy            =      -0.0000000000000000 [Eh]
	 Same-Spin Energy          =      -0.5995065643580131 [Eh]
	 Opposite-Spin Energy      =      -1.8245140326362135 [Eh]
	 Correlation Energy        =      -2.4240205969942266 [Eh]
	 Total Energy              =    -553.7068272858671207 [Eh]

	 ================> DF-SCS-MP2 Energies <==================
	-----------------------------------------------------------
	 SCS Same-Spin Scale       =       0.3333333333333333 [-]
	 SCS Opposite-Spin Scale   =       1.2000000000000000 [-]
	 SCS Same-Spin Energy      =      -0.1998355214526710 [Eh]
	 SCS Opposite-Spin Energy  =      -2.1894168391634561 [Eh]
	 SCS Correlation Energy    =      -2.3892523606161271 [Eh]
	 SCS Total Energy          =    -553.6720590494891212 [Eh]
	-----------------------------------------------------------

  Dipole Moment: [D]
     X:     1.3853      Y:     0.2156      Z:    -0.0001     Total:     1.4020

*** Psi4 exiting successfully. Buy a developer a beer!
