                               Psi4 1.4a3.dev225

  ==> Input File <==

--------------------------------------------------------------------------
#psi4
#
memory 32 gb

molecule  {
0 1
  O        0.0894740    -1.2706490     0.0016280
  N        1.0961490     0.8320480    -0.0012430
  C       -1.1354060    -0.5925990     0.0007920
  C       -1.7504730    -0.3080250    -1.2153360
  C       -1.7497660    -0.3035760     1.2162340
  C        1.2195230    -0.4906020     0.0005970
  C       -3.0144240     0.2837480    -1.2099290
  C       -3.0137120     0.2881830     1.2093930
  C       -3.6464470     0.5845060    -0.0006310
  C        2.4408500    -1.1790020     0.0015830
  C        3.6030640    -0.4211020     0.0005590
  C        3.5068820     0.9758400    -0.0013820
  C        2.2573416     1.5589188    -0.0022213
  H       -1.2410120    -0.5552270    -2.1426030
  H       -1.2397720    -0.5473760     2.1441080
  H       -3.5056790     0.5103880    -2.1530410
  H       -3.5044150     0.5182820     2.1519550
  H        2.4499920    -2.2642250     0.0030920
  H       -4.6315180     1.0439850    -0.0011840
  H        4.5737430    -0.9107530     0.0012630
  H        4.3934310     1.6024650    -0.0022300
  H        2.1135170     2.6292430    -0.0037130
units angstrom
no_reorient  #important for SAPT in psi4, default
symmetry c1  #important for SAPT in psi4, default
}

set PROPERTIES_ORIGIN ["COM"]
properties('MP2/aug-cc-pvtz', properties = ['dipole'])
--------------------------------------------------------------------------

    Molecular point group: c1
  Charge       = 0
  Multiplicity = 1
  Basis Set: AUG-CC-PVTZ
    Blend: AUG-CC-PVTZ
  Basis Set: (AUG-CC-PVTZ AUX)
    Blend: AUG-CC-PVTZ-JKFIT

    Orbital Energies [Eh]
    ---------------------

    Doubly Occupied:

       1A    -20.600506     2A    -15.565897     3A    -11.345275
       4A    -11.296259     5A    -11.283696     6A    -11.267403
       7A    -11.242685     8A    -11.238605     9A    -11.238499
      10A    -11.237648    11A    -11.233565    12A    -11.233559
      13A    -11.232627    14A     -1.433001    15A     -1.250225
      16A     -1.147587    17A     -1.092769    18A     -1.041322
      19A     -1.017022    20A     -0.997060    21A     -0.880038
      22A     -0.858829    23A     -0.835708    24A     -0.805012
      25A     -0.739782    26A     -0.705629    27A     -0.678872
      28A     -0.668560    29A     -0.658547    30A     -0.629705
      31A     -0.615502    32A     -0.594990    33A     -0.590969
      34A     -0.579172    35A     -0.569974    36A     -0.535383
      37A     -0.516463    38A     -0.513615    39A     -0.495093
      40A     -0.482916    41A     -0.432784    42A     -0.387676
      43A     -0.338942    44A     -0.332348    45A     -0.327616

  @DF-RHF Final Energy:  -551.28174051138274

   => Energetics <=

    Nuclear Repulsion Energy =            708.7590523622650380
    One-Electron Energy =               -2154.5429091748092105
    Two-Electron Energy =                 894.5021163011614362
    Total Energy =                       -551.2817405113827363
  Basis Set: (AUG-CC-PVTZ AUX)
    Blend: AUG-CC-PVTZ-RI
    Molecular point group: c1

    Geometry (in Angstrom), charge = 0, multiplicity = 1:

       Center              X                  Y                   Z               Mass
    ------------   -----------------  -----------------  -----------------  -----------------
         O            0.084835898985    -1.259690967071     0.001615333210    15.994914619570
         N            1.091510898985     0.843006032929    -0.001255666790    14.003074004430
         C           -1.140044101015    -0.581640967071     0.000779333210    12.000000000000
         C           -1.755111101015    -0.297066967071    -1.215348666790    12.000000000000
         C           -1.754404101015    -0.292617967071     1.216221333210    12.000000000000
         C            1.214884898985    -0.479643967071     0.000584333210    12.000000000000
         C           -3.019062101015     0.294706032929    -1.209941666790    12.000000000000
         C           -3.018350101015     0.299141032929     1.209380333210    12.000000000000
         C           -3.651085101015     0.595464032929    -0.000643666790    12.000000000000
         C            2.436211898985    -1.168043967071     0.001570333210    12.000000000000
         C            3.598425898985    -0.410143967071     0.000546333210    12.000000000000
         C            3.502243898985     0.986798032929    -0.001394666790    12.000000000000
         C            2.252703498985     1.569876832929    -0.002233966790    12.000000000000
         H           -1.245650101015    -0.544268967071    -2.142615666790     1.007825032230
         H           -1.244410101015    -0.536417967071     2.144095333210     1.007825032230
         H           -3.510317101015     0.521346032929    -2.153053666790     1.007825032230
         H           -3.509053101015     0.529240032929     2.151942333210     1.007825032230
         H            2.445353898985    -2.253266967071     0.003079333210     1.007825032230
         H           -4.636156101015     1.054943032929    -0.001196666790     1.007825032230
         H            4.569104898985    -0.899794967071     0.001250333210     1.007825032230
         H            4.388792898985     1.613423032929    -0.002242666790     1.007825032230
         H            2.108878898985     2.640201032929    -0.003725666790     1.007825032230

  Basis Set: AUG-CC-PVTZ
    Blend: AUG-CC-PVTZ
  Basis Set: (AUG-CC-PVTZ AUX)
    Blend: AUG-CC-PVTZ-JKFIT
	 Reference Energy          =    -551.2817405113827363 [Eh]
	 Singles Energy            =      -0.0000000000000000 [Eh]
	 Same-Spin Energy          =      -0.5996350014499134 [Eh]
	 Opposite-Spin Energy      =      -1.8251375640928882 [Eh]
	 Correlation Energy        =      -2.4247725655428018 [Eh]
	 Total Energy              =    -553.7065130769254893 [Eh]

	 ================> DF-SCS-MP2 Energies <==================
	-----------------------------------------------------------
	 SCS Same-Spin Scale       =       0.3333333333333333 [-]
	 SCS Opposite-Spin Scale   =       1.2000000000000000 [-]
	 SCS Same-Spin Energy      =      -0.1998783338166378 [Eh]
	 SCS Opposite-Spin Energy  =      -2.1901650769114656 [Eh]
	 SCS Correlation Energy    =      -2.3900434107281034 [Eh]
	 SCS Total Energy          =    -553.6717839221108761 [Eh]
	-----------------------------------------------------------

  Dipole Moment: [D]
     X:     1.4440      Y:     0.2210      Z:    -0.0001     Total:     1.4609

*** Psi4 exiting successfully. Buy a developer a beer!
