                               Psi4 1.3.2 release

  ==> Input File <==

--------------------------------------------------------------------------
#psi4
#
memory 32 gb

molecule  {
0 1
  O        0.0894740    -1.2706490     0.0016280
  N        1.1423840     0.8355480    -0.0012467
  C       -1.1354060    -0.5925990     0.0007920
  C       -1.7504730    -0.3080250    -1.2153360
  C       -1.7497660    -0.3035760     1.2162340
  C        1.2195230    -0.4906020     0.0005970
  C       -3.0144240     0.2837480    -1.2099290
  C       -3.0137120     0.2881830     1.2093930
  C       -3.6464470     0.5845060    -0.0006310
  C        2.4408500    -1.1790020     0.0015830
  C        3.6030640    -0.4211020     0.0005590
  C        3.5068820     0.9758400    -0.0013820
  C        2.2403890     1.5483070    -0.0022070
  H       -1.2410120    -0.5552270    -2.1426030
  H       -1.2397720    -0.5473760     2.1441080
  H       -3.5056790     0.5103880    -2.1530410
  H       -3.5044150     0.5182820     2.1519550
  H        2.4499920    -2.2642250     0.0030920
  H       -4.6315180     1.0439850    -0.0011840
  H        4.5737430    -0.9107530     0.0012630
  H        4.3934310     1.6024650    -0.0022300
  H        2.1135170     2.6292430    -0.0037130
units angstrom
no_reorient  #important for SAPT in psi4, default
symmetry c1  #important for SAPT in psi4, default
}

set PROPERTIES_ORIGIN ["COM"]
properties('MP2/aug-cc-pvtz', properties = ['dipole'])
--------------------------------------------------------------------------

    Molecular point group: c1
  Charge       = 0
  Multiplicity = 1
  Basis Set: AUG-CC-PVTZ
    Blend: AUG-CC-PVTZ
  Basis Set: (AUG-CC-PVTZ AUX)
    Blend: AUG-CC-PVTZ-JKFIT

    Orbital Energies [Eh]
    ---------------------

    Doubly Occupied:

       1A    -20.602746     2A    -15.560857     3A    -11.345696
       4A    -11.297413     5A    -11.279157     6A    -11.264450
       7A    -11.240419     8A    -11.239731     9A    -11.239624
      10A    -11.235623    11A    -11.234834    12A    -11.234827
      13A    -11.233794    14A     -1.433982    15A     -1.265850
      16A     -1.149022    17A     -1.091838    18A     -1.041539
      19A     -1.018214    20A     -0.997229    21A     -0.876505
      22A     -0.864555    23A     -0.836892    24A     -0.807845
      25A     -0.741701    26A     -0.708081    27A     -0.680644
      28A     -0.667534    29A     -0.659879    30A     -0.628362
      31A     -0.616742    32A     -0.595747    33A     -0.592420
      34A     -0.581894    35A     -0.570444    36A     -0.538546
      37A     -0.520445    38A     -0.514685    39A     -0.496383
      40A     -0.485082    41A     -0.423872    42A     -0.391315
      43A     -0.339326    44A     -0.329177    45A     -0.328986

  @DF-RHF Final Energy:  -551.28287308921131

   => Energetics <=

    Nuclear Repulsion Energy =            709.4164566156620140
    One-Electron Energy =               -2155.7908415574793253
    Two-Electron Energy =                 895.0915118526061178
    Total Energy =                       -551.2828730892113072
  Basis Set: (AUG-CC-PVTZ AUX)
    Blend: AUG-CC-PVTZ-RI
    Molecular point group: c1

    Geometry (in Angstrom), charge = 0, multiplicity = 1:

       Center              X                  Y                   Z               Mass
    ------------   -----------------  -----------------  -----------------  -----------------
         O            0.082240440732    -1.259233075172     0.001614632972    15.994914619570
         N            1.135150440732     0.846963924828    -0.001260067028    14.003074004430
         C           -1.142639559268    -0.581183075172     0.000778632972    12.000000000000
         C           -1.757706559268    -0.296609075172    -1.215349367028    12.000000000000
         C           -1.756999559268    -0.292160075172     1.216220632972    12.000000000000
         C            1.212289440732    -0.479186075172     0.000583632972    12.000000000000
         C           -3.021657559268     0.295163924828    -1.209942367028    12.000000000000
         C           -3.020945559268     0.299598924828     1.209379632972    12.000000000000
         C           -3.653680559268     0.595921924828    -0.000644367028    12.000000000000
         C            2.433616440732    -1.167586075172     0.001569632972    12.000000000000
         C            3.595830440732    -0.409686075172     0.000545632972    12.000000000000
         C            3.499648440732     0.987255924828    -0.001395367028    12.000000000000
         C            2.233155440732     1.559722924828    -0.002220367028    12.000000000000
         H           -1.248245559268    -0.543811075172    -2.142616367028     1.007825032230
         H           -1.247005559268    -0.535960075172     2.144094632972     1.007825032230
         H           -3.512912559268     0.521803924828    -2.153054367028     1.007825032230
         H           -3.511648559268     0.529697924828     2.151941632972     1.007825032230
         H            2.442758440732    -2.252809075172     0.003078632972     1.007825032230
         H           -4.638751559268     1.055400924828    -0.001197367028     1.007825032230
         H            4.566509440732    -0.899337075172     0.001249632972     1.007825032230
         H            4.386197440732     1.613880924828    -0.002243367028     1.007825032230
         H            2.106283440732     2.640658924828    -0.003726367028     1.007825032230

  Basis Set: AUG-CC-PVTZ
    Blend: AUG-CC-PVTZ
  Basis Set: (AUG-CC-PVTZ AUX)
    Blend: AUG-CC-PVTZ-JKFIT
	 Reference Energy          =    -551.2828730892113072 [Eh]
	 Singles Energy            =      -0.0000000000000000 [Eh]
	 Same-Spin Energy          =      -0.5994206359974579 [Eh]
	 Opposite-Spin Energy      =      -1.8236106126603380 [Eh]
	 Correlation Energy        =      -2.4230312486577956 [Eh]
	 Total Energy              =    -553.7059043378691285 [Eh]

	 ================> DF-SCS-MP2 Energies <==================
	-----------------------------------------------------------
	 SCS Same-Spin Scale       =       0.3333333333333333 [-]
	 SCS Opposite-Spin Scale   =       1.2000000000000000 [-]
	 SCS Same-Spin Energy      =      -0.1998068786658193 [Eh]
	 SCS Opposite-Spin Energy  =      -2.1883327351924056 [Eh]
	 SCS Correlation Energy    =      -2.3881396138582249 [Eh]
	 SCS Total Energy          =    -553.6710127030695503 [Eh]
	-----------------------------------------------------------

  Dipole Moment: [D]
     X:     1.2500      Y:     0.2175      Z:    -0.0001     Total:     1.2688

*** Psi4 exiting successfully. Buy a developer a beer!
