                               Psi4 1.3.2 release

  ==> Input File <==

--------------------------------------------------------------------------
#psi4
#
memory 32 gb

molecule  {
0 1
  O        0.1173857    -1.3096119     0.0016833
  N        1.0961490     0.8320480    -0.0012430
  C       -1.1354060    -0.5925990     0.0007920
  C       -1.7504730    -0.3080250    -1.2153360
  C       -1.7497660    -0.3035760     1.2162340
  C        1.2195230    -0.4906020     0.0005970
  C       -3.0144240     0.2837480    -1.2099290
  C       -3.0137120     0.2881830     1.2093930
  C       -3.6464470     0.5845060    -0.0006310
  C        2.4408500    -1.1790020     0.0015830
  C        3.6030640    -0.4211020     0.0005590
  C        3.5068820     0.9758400    -0.0013820
  C        2.2403890     1.5483070    -0.0022070
  H       -1.2410120    -0.5552270    -2.1426030
  H       -1.2397720    -0.5473760     2.1441080
  H       -3.5056790     0.5103880    -2.1530410
  H       -3.5044150     0.5182820     2.1519550
  H        2.4499920    -2.2642250     0.0030920
  H       -4.6315180     1.0439850    -0.0011840
  H        4.5737430    -0.9107530     0.0012630
  H        4.3934310     1.6024650    -0.0022300
  H        2.1135170     2.6292430    -0.0037130
units angstrom
no_reorient  #important for SAPT in psi4, default
symmetry c1  #important for SAPT in psi4, default
}

set PROPERTIES_ORIGIN ["COM"]
properties('MP2/aug-cc-pvtz', properties = ['dipole'])
--------------------------------------------------------------------------

    Molecular point group: c1
  Charge       = 0
  Multiplicity = 1
  Basis Set: AUG-CC-PVTZ
    Blend: AUG-CC-PVTZ
  Basis Set: (AUG-CC-PVTZ AUX)
    Blend: AUG-CC-PVTZ-JKFIT

    Orbital Energies [Eh]
    ---------------------

    Doubly Occupied:

       1A    -20.602336     2A    -15.565132     3A    -11.343228
       4A    -11.300009     5A    -11.283376     6A    -11.264897
       7A    -11.240624     8A    -11.240510     9A    -11.239154
      10A    -11.236836    11A    -11.236831    12A    -11.236639
      13A    -11.235129    14A     -1.422768    15A     -1.253457
      16A     -1.150196    17A     -1.091850    18A     -1.036894
      19A     -1.019022    20A     -0.997980    21A     -0.876380
      22A     -0.855995    23A     -0.836245    24A     -0.806195
      25A     -0.735146    26A     -0.705096    27A     -0.679767
      28A     -0.666267    29A     -0.655722    30A     -0.628301
      31A     -0.613009    32A     -0.593256    33A     -0.592612
      34A     -0.581313    35A     -0.567179    36A     -0.535588
      37A     -0.516357    38A     -0.513484    39A     -0.498874
      40A     -0.486269    41A     -0.430640    42A     -0.388838
      43A     -0.339933    44A     -0.331351    45A     -0.329274

  @DF-RHF Final Energy:  -551.27879663392810

   => Energetics <=

    Nuclear Repulsion Energy =            707.9784354713576704
    One-Electron Energy =               -2152.9945497636276741
    Two-Electron Energy =                 893.7373176583419081
    Total Energy =                       -551.2787966339280956
  Basis Set: (AUG-CC-PVTZ AUX)
    Blend: AUG-CC-PVTZ-RI
    Molecular point group: c1

    Geometry (in Angstrom), charge = 0, multiplicity = 1:

       Center              X                  Y                   Z               Mass
    ------------   -----------------  -----------------  -----------------  -----------------
         O            0.111327032483    -1.294266441937     0.001664459547    15.994914619570
         N            1.090090332483     0.847393458063    -0.001261840453    14.003074004430
         C           -1.141464667517    -0.577253541937     0.000773159547    12.000000000000
         C           -1.756531667517    -0.292679541937    -1.215354840453    12.000000000000
         C           -1.755824667517    -0.288230541937     1.216215159547    12.000000000000
         C            1.213464332483    -0.475256541937     0.000578159547    12.000000000000
         C           -3.020482667517     0.299093458063    -1.209947840453    12.000000000000
         C           -3.019770667517     0.303528458063     1.209374159547    12.000000000000
         C           -3.652505667517     0.599851458063    -0.000649840453    12.000000000000
         C            2.434791332483    -1.163656541937     0.001564159547    12.000000000000
         C            3.597005332483    -0.405756541937     0.000540159547    12.000000000000
         C            3.500823332483     0.991185458063    -0.001400840453    12.000000000000
         C            2.234330332483     1.563652458063    -0.002225840453    12.000000000000
         H           -1.247070667517    -0.539881541937    -2.142621840453     1.007825032230
         H           -1.245830667517    -0.532030541937     2.144089159547     1.007825032230
         H           -3.511737667517     0.525733458063    -2.153059840453     1.007825032230
         H           -3.510473667517     0.533627458063     2.151936159547     1.007825032230
         H            2.443933332483    -2.248879541937     0.003073159547     1.007825032230
         H           -4.637576667517     1.059330458063    -0.001202840453     1.007825032230
         H            4.567684332483    -0.895407541937     0.001244159547     1.007825032230
         H            4.387372332483     1.617810458063    -0.002248840453     1.007825032230
         H            2.107458332483     2.644588458063    -0.003731840453     1.007825032230

  Basis Set: AUG-CC-PVTZ
    Blend: AUG-CC-PVTZ
  Basis Set: (AUG-CC-PVTZ AUX)
    Blend: AUG-CC-PVTZ-JKFIT
	 Reference Energy          =    -551.2787966339280956 [Eh]
	 Singles Energy            =      -0.0000000000000000 [Eh]
	 Same-Spin Energy          =      -0.5999215564595255 [Eh]
	 Opposite-Spin Energy      =      -1.8262043283719795 [Eh]
	 Correlation Energy        =      -2.4261258848315048 [Eh]
	 Total Energy              =    -553.7049225187596448 [Eh]

	 ================> DF-SCS-MP2 Energies <==================
	-----------------------------------------------------------
	 SCS Same-Spin Scale       =       0.3333333333333333 [-]
	 SCS Opposite-Spin Scale   =       1.2000000000000000 [-]
	 SCS Same-Spin Energy      =      -0.1999738521531751 [Eh]
	 SCS Opposite-Spin Energy  =      -2.1914451940463753 [Eh]
	 SCS Correlation Energy    =      -2.3914190461995504 [Eh]
	 SCS Total Energy          =    -553.6702156801276260 [Eh]
	-----------------------------------------------------------

  Dipole Moment: [D]
     X:     1.1790      Y:     0.2770      Z:    -0.0002     Total:     1.2111

*** Psi4 exiting successfully. Buy a developer a beer!
