                               Psi4 1.4a3.dev225

  ==> Input File <==

--------------------------------------------------------------------------
#psi4
#
memory 32 gb

molecule  {
0 1
  O        0.0894740    -1.2706490     0.0016280
  N        1.0961490     0.8320480    -0.0012430
  C       -1.1354060    -0.5925990     0.0007920
  C       -1.7504730    -0.3080250    -1.2153360
  C       -1.7497660    -0.3035760     1.2162340
  C        1.2241667    -0.5403858     0.0006663
  C       -3.0144240     0.2837480    -1.2099290
  C       -3.0137120     0.2881830     1.2093930
  C       -3.6464470     0.5845060    -0.0006310
  C        2.4408500    -1.1790020     0.0015830
  C        3.6030640    -0.4211020     0.0005590
  C        3.5068820     0.9758400    -0.0013820
  C        2.2403890     1.5483070    -0.0022070
  H       -1.2410120    -0.5552270    -2.1426030
  H       -1.2397720    -0.5473760     2.1441080
  H       -3.5056790     0.5103880    -2.1530410
  H       -3.5044150     0.5182820     2.1519550
  H        2.4499920    -2.2642250     0.0030920
  H       -4.6315180     1.0439850    -0.0011840
  H        4.5737430    -0.9107530     0.0012630
  H        4.3934310     1.6024650    -0.0022300
  H        2.1135170     2.6292430    -0.0037130
units angstrom
no_reorient  #important for SAPT in psi4, default
symmetry c1  #important for SAPT in psi4, default
}

set PROPERTIES_ORIGIN ["COM"]
properties('MP2/aug-cc-pvtz', properties = ['dipole'])
--------------------------------------------------------------------------

    Molecular point group: c1
  Charge       = 0
  Multiplicity = 1
  Basis Set: AUG-CC-PVTZ
    Blend: AUG-CC-PVTZ
  Basis Set: (AUG-CC-PVTZ AUX)
    Blend: AUG-CC-PVTZ-JKFIT

    Orbital Energies [Eh]
    ---------------------

    Doubly Occupied:

       1A    -20.603847     2A    -15.566258     3A    -11.345949
       4A    -11.299275     5A    -11.282952     6A    -11.267389
       7A    -11.239704     8A    -11.239597     9A    -11.237187
      10A    -11.236124    11A    -11.235068    12A    -11.235061
      13A    -11.233765    14A     -1.442108    15A     -1.241832
      16A     -1.149605    17A     -1.090511    18A     -1.042871
      19A     -1.018277    20A     -0.997786    21A     -0.880738
      22A     -0.856820    23A     -0.837174    24A     -0.807672
      25A     -0.743236    26A     -0.703995    27A     -0.680304
      28A     -0.670494    29A     -0.661407    30A     -0.628835
      31A     -0.615666    32A     -0.592878    33A     -0.592230
      34A     -0.580446    35A     -0.570834    36A     -0.532093
      37A     -0.516093    38A     -0.515356    39A     -0.497115
      40A     -0.484890    41A     -0.429056    42A     -0.385428
      43A     -0.339489    44A     -0.329767    45A     -0.328617

  @DF-RHF Final Energy:  -551.27874319756688

   => Energetics <=

    Nuclear Repulsion Energy =            708.8013063564688991
    One-Electron Energy =               -2154.5885072946307446
    Two-Electron Energy =                 894.5084577405948494
    Total Energy =                       -551.2787431975668824
  Basis Set: (AUG-CC-PVTZ AUX)
    Blend: AUG-CC-PVTZ-RI
    Molecular point group: c1

    Geometry (in Angstrom), charge = 0, multiplicity = 1:

       Center              X                  Y                   Z               Mass
    ------------   -----------------  -----------------  -----------------  -----------------
         O            0.085699335996    -1.255454374334     0.001609468889    15.994914619570
         N            1.092374335996     0.847242625666    -0.001261531111    14.003074004430
         C           -1.139180664004    -0.577404374334     0.000773468889    12.000000000000
         C           -1.754247664004    -0.292830374334    -1.215354531111    12.000000000000
         C           -1.753540664004    -0.288381374334     1.216215468889    12.000000000000
         C            1.220392035996    -0.525191174334     0.000647768889    12.000000000000
         C           -3.018198664004     0.298942625666    -1.209947531111    12.000000000000
         C           -3.017486664004     0.303377625666     1.209374468889    12.000000000000
         C           -3.650221664004     0.599700625666    -0.000649531111    12.000000000000
         C            2.437075335996    -1.163807374334     0.001564468889    12.000000000000
         C            3.599289335996    -0.405907374334     0.000540468889    12.000000000000
         C            3.503107335996     0.991034625666    -0.001400531111    12.000000000000
         C            2.236614335996     1.563501625666    -0.002225531111    12.000000000000
         H           -1.244786664004    -0.540032374334    -2.142621531111     1.007825032230
         H           -1.243546664004    -0.532181374334     2.144089468889     1.007825032230
         H           -3.509453664004     0.525582625666    -2.153059531111     1.007825032230
         H           -3.508189664004     0.533476625666     2.151936468889     1.007825032230
         H            2.446217335996    -2.249030374334     0.003073468889     1.007825032230
         H           -4.635292664004     1.059179625666    -0.001202531111     1.007825032230
         H            4.569968335996    -0.895558374334     0.001244468889     1.007825032230
         H            4.389656335996     1.617659625666    -0.002248531111     1.007825032230
         H            2.109742335996     2.644437625666    -0.003731531111     1.007825032230

  Basis Set: AUG-CC-PVTZ
    Blend: AUG-CC-PVTZ
  Basis Set: (AUG-CC-PVTZ AUX)
    Blend: AUG-CC-PVTZ-JKFIT
	 Reference Energy          =    -551.2787431975668824 [Eh]
	 Singles Energy            =      -0.0000000000000000 [Eh]
	 Same-Spin Energy          =      -0.5999454001135975 [Eh]
	 Opposite-Spin Energy      =      -1.8253112104826523 [Eh]
	 Correlation Energy        =      -2.4252566105962501 [Eh]
	 Total Energy              =    -553.7039998081631893 [Eh]

	 ================> DF-SCS-MP2 Energies <==================
	-----------------------------------------------------------
	 SCS Same-Spin Scale       =       0.3333333333333333 [-]
	 SCS Opposite-Spin Scale   =       1.2000000000000000 [-]
	 SCS Same-Spin Energy      =      -0.1999818000378658 [Eh]
	 SCS Opposite-Spin Energy  =      -2.1903734525791827 [Eh]
	 SCS Correlation Energy    =      -2.3903552526170486 [Eh]
	 SCS Total Energy          =    -553.6690984501839239 [Eh]
	-----------------------------------------------------------

  Dipole Moment: [D]
     X:     1.2381      Y:     0.1430      Z:     0.0000     Total:     1.2463

*** Psi4 exiting successfully. Buy a developer a beer!
