                               Psi4 1.3.2 release

  ==> Input File <==

--------------------------------------------------------------------------
#psi4
#
memory 32 gb

molecule  {
0 1
  O        0.0141273    -1.1482537     0.0014549
  N        1.0961490     0.8320480    -0.0012430
  C       -1.1354060    -0.5925990     0.0007920
  C       -1.7504730    -0.3080250    -1.2153360
  C       -1.7497660    -0.3035760     1.2162340
  C        1.2195230    -0.4906020     0.0005970
  C       -3.0144240     0.2837480    -1.2099290
  C       -3.0137120     0.2881830     1.2093930
  C       -3.6464470     0.5845060    -0.0006310
  C        2.4408500    -1.1790020     0.0015830
  C        3.6030640    -0.4211020     0.0005590
  C        3.5068820     0.9758400    -0.0013820
  C        2.2403890     1.5483070    -0.0022070
  H       -1.2410120    -0.5552270    -2.1426030
  H       -1.2397720    -0.5473760     2.1441080
  H       -3.5056790     0.5103880    -2.1530410
  H       -3.5044150     0.5182820     2.1519550
  H        2.4499920    -2.2642250     0.0030920
  H       -4.6315180     1.0439850    -0.0011840
  H        4.5737430    -0.9107530     0.0012630
  H        4.3934310     1.6024650    -0.0022300
  H        2.1135170     2.6292430    -0.0037130
units angstrom
no_reorient  #important for SAPT in psi4, default
symmetry c1  #important for SAPT in psi4, default
}

set PROPERTIES_ORIGIN ["COM"]
properties('MP2/aug-cc-pvtz', properties = ['dipole'])
--------------------------------------------------------------------------

    Molecular point group: c1
  Charge       = 0
  Multiplicity = 1
  Basis Set: AUG-CC-PVTZ
    Blend: AUG-CC-PVTZ
  Basis Set: (AUG-CC-PVTZ AUX)
    Blend: AUG-CC-PVTZ-JKFIT

    Orbital Energies [Eh]
    ---------------------

    Doubly Occupied:

       1A    -20.595175     2A    -15.568254     3A    -11.355279
       4A    -11.287434     5A    -11.287428     6A    -11.273073
       7A    -11.251010     8A    -11.242689     9A    -11.233194
      10A    -11.233123    11A    -11.224523    12A    -11.223178
      13A    -11.223155    14A     -1.472581    15A     -1.263387
      16A     -1.140557    17A     -1.098654    18A     -1.052484
      19A     -1.011657    20A     -0.991623    21A     -0.889052
      22A     -0.874417    23A     -0.836682    24A     -0.806397
      25A     -0.751212    26A     -0.711342    27A     -0.681136
      28A     -0.672502    29A     -0.670360    30A     -0.631714
      31A     -0.618518    32A     -0.600670    33A     -0.585071
      34A     -0.578566    35A     -0.576126    36A     -0.540383
      37A     -0.520231    38A     -0.511299    39A     -0.483521
      40A     -0.472656    41A     -0.437483    42A     -0.393521
      43A     -0.338810    44A     -0.330822    45A     -0.314287

  @DF-RHF Final Energy:  -551.27214340146156

   => Energetics <=

    Nuclear Repulsion Energy =            712.6000737698615239
    One-Electron Energy =               -2162.0339622909391437
    Two-Electron Energy =                 898.1617451196161710
    Total Energy =                       -551.2721434014615625
  Basis Set: (AUG-CC-PVTZ AUX)
    Blend: AUG-CC-PVTZ-RI
    Molecular point group: c1

    Geometry (in Angstrom), charge = 0, multiplicity = 1:

       Center              X                  Y                   Z               Mass
    ------------   -----------------  -----------------  -----------------  -----------------
         O            0.017723303698    -1.147995250539     0.001457414970    15.994914619570
         N            1.099745003698     0.832306449461    -0.001240485030    14.003074004430
         C           -1.131809996302    -0.592340550539     0.000794514970    12.000000000000
         C           -1.746876996302    -0.307766550539    -1.215333485030    12.000000000000
         C           -1.746169996302    -0.303317550539     1.216236514970    12.000000000000
         C            1.223119003698    -0.490343550539     0.000599514970    12.000000000000
         C           -3.010827996302     0.284006449461    -1.209926485030    12.000000000000
         C           -3.010115996302     0.288441449461     1.209395514970    12.000000000000
         C           -3.642850996302     0.584764449461    -0.000628485030    12.000000000000
         C            2.444446003698    -1.178743550539     0.001585514970    12.000000000000
         C            3.606660003698    -0.420843550539     0.000561514970    12.000000000000
         C            3.510478003698     0.976098449461    -0.001379485030    12.000000000000
         C            2.243985003698     1.548565449461    -0.002204485030    12.000000000000
         H           -1.237415996302    -0.554968550539    -2.142600485030     1.007825032230
         H           -1.236175996302    -0.547117550539     2.144110514970     1.007825032230
         H           -3.502082996302     0.510646449461    -2.153038485030     1.007825032230
         H           -3.500818996302     0.518540449461     2.151957514970     1.007825032230
         H            2.453588003698    -2.263966550539     0.003094514970     1.007825032230
         H           -4.627921996302     1.044243449461    -0.001181485030     1.007825032230
         H            4.577339003698    -0.910494550539     0.001265514970     1.007825032230
         H            4.397027003698     1.602723449461    -0.002227485030     1.007825032230
         H            2.117113003698     2.629501449461    -0.003710485030     1.007825032230

  Basis Set: AUG-CC-PVTZ
    Blend: AUG-CC-PVTZ
  Basis Set: (AUG-CC-PVTZ AUX)
    Blend: AUG-CC-PVTZ-JKFIT
	 Reference Energy          =    -551.2721434014615625 [Eh]
	 Singles Energy            =      -0.0000000000000000 [Eh]
	 Same-Spin Energy          =      -0.5995977624806259 [Eh]
	 Opposite-Spin Energy      =      -1.8220995206526771 [Eh]
	 Correlation Energy        =      -2.4216972831333030 [Eh]
	 Total Energy              =    -553.6938406845948748 [Eh]

	 ================> DF-SCS-MP2 Energies <==================
	-----------------------------------------------------------
	 SCS Same-Spin Scale       =       0.3333333333333333 [-]
	 SCS Opposite-Spin Scale   =       1.2000000000000000 [-]
	 SCS Same-Spin Energy      =      -0.1998659208268753 [Eh]
	 SCS Opposite-Spin Energy  =      -2.1865194247832123 [Eh]
	 SCS Correlation Energy    =      -2.3863853456100874 [Eh]
	 SCS Total Energy          =    -553.6585287470716139 [Eh]
	-----------------------------------------------------------

  Dipole Moment: [D]
     X:     2.2478      Y:    -0.0108      Z:     0.0002     Total:     2.2479

*** Psi4 exiting successfully. Buy a developer a beer!
