                               Psi4 1.3.2 release

  ==> Input File <==

--------------------------------------------------------------------------
#psi4
#
memory 32 gb

molecule  {
0 1
  O        0.0894740    -1.2706490     0.0016280
  N        1.0961490     0.8320480    -0.0012430
  C       -1.1354060    -0.5925990     0.0007920
  C       -1.7504730    -0.3080250    -1.2153360
  C       -1.7497660    -0.3035760     1.2162340
  C        1.0805924    -0.4962525     0.0006011
  C       -3.0144240     0.2837480    -1.2099290
  C       -3.0137120     0.2881830     1.2093930
  C       -3.6464470     0.5845060    -0.0006310
  C        2.4408500    -1.1790020     0.0015830
  C        3.6030640    -0.4211020     0.0005590
  C        3.5068820     0.9758400    -0.0013820
  C        2.2403890     1.5483070    -0.0022070
  H       -1.2410120    -0.5552270    -2.1426030
  H       -1.2397720    -0.5473760     2.1441080
  H       -3.5056790     0.5103880    -2.1530410
  H       -3.5044150     0.5182820     2.1519550
  H        2.4499920    -2.2642250     0.0030920
  H       -4.6315180     1.0439850    -0.0011840
  H        4.5737430    -0.9107530     0.0012630
  H        4.3934310     1.6024650    -0.0022300
  H        2.1135170     2.6292430    -0.0037130
units angstrom
no_reorient  #important for SAPT in psi4, default
symmetry c1  #important for SAPT in psi4, default
}

set PROPERTIES_ORIGIN ["COM"]
properties('MP2/aug-cc-pvtz', properties = ['dipole'])
--------------------------------------------------------------------------

    Molecular point group: c1
  Charge       = 0
  Multiplicity = 1
  Basis Set: AUG-CC-PVTZ
    Blend: AUG-CC-PVTZ
  Basis Set: (AUG-CC-PVTZ AUX)
    Blend: AUG-CC-PVTZ-JKFIT

    Orbital Energies [Eh]
    ---------------------

    Doubly Occupied:

       1A    -20.628606     2A    -15.551900     3A    -11.355235
       4A    -11.308335     5A    -11.275663     6A    -11.254756
       7A    -11.246731     8A    -11.246624     9A    -11.244139
      10A    -11.244136    11A    -11.241267    12A    -11.240921
      13A    -11.226631    14A     -1.501159    15A     -1.240066
      16A     -1.159504    17A     -1.077713    18A     -1.041184
      19A     -1.026271    20A     -0.993674    21A     -0.885599
      22A     -0.859383    23A     -0.846946    24A     -0.802724
      25A     -0.754630    26A     -0.715414    27A     -0.686759
      28A     -0.682760    29A     -0.672376    30A     -0.629063
      31A     -0.612513    32A     -0.602406    33A     -0.593010
      34A     -0.588653    35A     -0.564289    36A     -0.531260
      37A     -0.522630    38A     -0.515921    39A     -0.507347
      40A     -0.492174    41A     -0.403794    42A     -0.383337
      43A     -0.345320    44A     -0.338574    45A     -0.309615

  @DF-RHF Final Energy:  -551.25963847781327

   => Energetics <=

    Nuclear Repulsion Energy =            710.0495849723802166
    One-Electron Energy =               -2156.7164182467963656
    Two-Electron Energy =                 895.4071947966028802
    Total Energy =                       -551.2596384778132688
  Basis Set: (AUG-CC-PVTZ AUX)
    Blend: AUG-CC-PVTZ-RI
    Molecular point group: c1

    Geometry (in Angstrom), charge = 0, multiplicity = 1:

       Center              X                  Y                   Z               Mass
    ------------   -----------------  -----------------  -----------------  -----------------
         O            0.095770696106    -1.258550209432     0.001614042498    15.994914619570
         N            1.102445696106     0.844146790568    -0.001256957502    14.003074004430
         C           -1.129109303894    -0.580500209432     0.000778042498    12.000000000000
         C           -1.744176303894    -0.295926209432    -1.215349957502    12.000000000000
         C           -1.743469303894    -0.291477209432     1.216220042498    12.000000000000
         C            1.086889096106    -0.484153709432     0.000587142498    12.000000000000
         C           -3.008127303894     0.295846790568    -1.209942957502    12.000000000000
         C           -3.007415303894     0.300281790568     1.209379042498    12.000000000000
         C           -3.640150303894     0.596604790568    -0.000644957502    12.000000000000
         C            2.447146696106    -1.166903209432     0.001569042498    12.000000000000
         C            3.609360696106    -0.409003209432     0.000545042498    12.000000000000
         C            3.513178696106     0.987938790568    -0.001395957502    12.000000000000
         C            2.246685696106     1.560405790568    -0.002220957502    12.000000000000
         H           -1.234715303894    -0.543128209432    -2.142616957502     1.007825032230
         H           -1.233475303894    -0.535277209432     2.144094042498     1.007825032230
         H           -3.499382303894     0.522486790568    -2.153054957502     1.007825032230
         H           -3.498118303894     0.530380790568     2.151941042498     1.007825032230
         H            2.456288696106    -2.252126209432     0.003078042498     1.007825032230
         H           -4.625221303894     1.056083790568    -0.001197957502     1.007825032230
         H            4.580039696106    -0.898654209432     0.001249042498     1.007825032230
         H            4.399727696106     1.614563790568    -0.002243957502     1.007825032230
         H            2.119813696106     2.641341790568    -0.003726957502     1.007825032230

  Basis Set: AUG-CC-PVTZ
    Blend: AUG-CC-PVTZ
  Basis Set: (AUG-CC-PVTZ AUX)
    Blend: AUG-CC-PVTZ-JKFIT
	 Reference Energy          =    -551.2596384778132688 [Eh]
	 Singles Energy            =      -0.0000000000000000 [Eh]
	 Same-Spin Energy          =      -0.5993382253056302 [Eh]
	 Opposite-Spin Energy      =      -1.8248893499192436 [Eh]
	 Correlation Energy        =      -2.4242275752248736 [Eh]
	 Total Energy              =    -553.6838660530381730 [Eh]

	 ================> DF-SCS-MP2 Energies <==================
	-----------------------------------------------------------
	 SCS Same-Spin Scale       =       0.3333333333333333 [-]
	 SCS Opposite-Spin Scale   =       1.2000000000000000 [-]
	 SCS Same-Spin Energy      =      -0.1997794084352101 [Eh]
	 SCS Opposite-Spin Energy  =      -2.1898672199030922 [Eh]
	 SCS Correlation Energy    =      -2.3896466283383022 [Eh]
	 SCS Total Energy          =    -553.6492851061515239 [Eh]
	-----------------------------------------------------------

  Dipole Moment: [D]
     X:     0.0341      Y:    -0.1521      Z:     0.0005     Total:     0.1559

*** Psi4 exiting successfully. Buy a developer a beer!
