                               Psi4 1.3.2 release

  ==> Input File <==

--------------------------------------------------------------------------
#psi4
#
memory 32 gb

molecule  {
0 1
  O        0.0894740    -1.2706490     0.0016280
  N        1.0961490     0.8320480    -0.0012430
  C       -1.0974887    -0.6107323    -0.0235991
  C       -1.7504730    -0.3080250    -1.2153360
  C       -1.7497660    -0.3035760     1.2162340
  C        1.2195230    -0.4906020     0.0005970
  C       -3.0144240     0.2837480    -1.2099290
  C       -3.0137120     0.2881830     1.2093930
  C       -3.6464470     0.5845060    -0.0006310
  C        2.4408500    -1.1790020     0.0015830
  C        3.6030640    -0.4211020     0.0005590
  C        3.5068820     0.9758400    -0.0013820
  C        2.2403890     1.5483070    -0.0022070
  H       -1.2410120    -0.5552270    -2.1426030
  H       -1.2397720    -0.5473760     2.1441080
  H       -3.5056790     0.5103880    -2.1530410
  H       -3.5044150     0.5182820     2.1519550
  H        2.4499920    -2.2642250     0.0030920
  H       -4.6315180     1.0439850    -0.0011840
  H        4.5737430    -0.9107530     0.0012630
  H        4.3934310     1.6024650    -0.0022300
  H        2.1135170     2.6292430    -0.0037130
units angstrom
no_reorient  #important for SAPT in psi4, default
symmetry c1  #important for SAPT in psi4, default
}

set PROPERTIES_ORIGIN ["COM"]
properties('MP2/aug-cc-pvtz', properties = ['dipole'])
--------------------------------------------------------------------------

    Molecular point group: c1
  Charge       = 0
  Multiplicity = 1
  Basis Set: AUG-CC-PVTZ
    Blend: AUG-CC-PVTZ
  Basis Set: (AUG-CC-PVTZ AUX)
    Blend: AUG-CC-PVTZ-JKFIT

    Orbital Energies [Eh]
    ---------------------

    Doubly Occupied:

       1A    -20.605852     2A    -15.568325     3A    -11.348786
       4A    -11.298084     5A    -11.286183     6A    -11.268748
       7A    -11.244397     8A    -11.240199     9A    -11.237185
      10A    -11.236747    11A    -11.235044    12A    -11.231215
      13A    -11.231001    14A     -1.449701    15A     -1.259086
      16A     -1.141623    17A     -1.095577    18A     -1.043660
      19A     -1.013102    20A     -0.993223    21A     -0.882971
      22A     -0.865054    23A     -0.832409    24A     -0.805402
      25A     -0.743870    26A     -0.708687    27A     -0.679570
      28A     -0.672141    29A     -0.662603    30A     -0.629416
      31A     -0.617051    32A     -0.598358    33A     -0.584896
      34A     -0.580488    35A     -0.573928    36A     -0.539128
      37A     -0.519760    38A     -0.515295    39A     -0.490715
      40A     -0.475760    41A     -0.434464    42A     -0.391794
      43A     -0.338202    44A     -0.332077    45A     -0.321201

  @DF-RHF Final Energy:  -551.27989669076862

   => Energetics <=

    Nuclear Repulsion Energy =            709.2216286071301283
    One-Electron Energy =               -2155.3570962225312542
    Two-Electron Energy =                 894.8555709246323886
    Total Energy =                       -551.2798966907686236
  Basis Set: (AUG-CC-PVTZ AUX)
    Blend: AUG-CC-PVTZ-RI
    Molecular point group: c1

    Geometry (in Angstrom), charge = 0, multiplicity = 1:

       Center              X                  Y                   Z               Mass
    ------------   -----------------  -----------------  -----------------  -----------------
         O            0.083365280334    -1.257674573793     0.003325301715    15.994914619570
         N            1.090040280334     0.845022426207     0.000454301715    14.003074004430
         C           -1.103597419666    -0.597757873793    -0.021901798285    12.000000000000
         C           -1.756581719666    -0.295050573793    -1.213638698285    12.000000000000
         C           -1.755874719666    -0.290601573793     1.217931301715    12.000000000000
         C            1.213414280334    -0.477627573793     0.002294301715    12.000000000000
         C           -3.020532719666     0.296722426207    -1.208231698285    12.000000000000
         C           -3.019820719666     0.301157426207     1.211090301715    12.000000000000
         C           -3.652555719666     0.597480426207     0.001066301715    12.000000000000
         C            2.434741280334    -1.166027573793     0.003280301715    12.000000000000
         C            3.596955280334    -0.408127573793     0.002256301715    12.000000000000
         C            3.500773280334     0.988814426207     0.000315301715    12.000000000000
         C            2.234280280334     1.561281426207    -0.000509698285    12.000000000000
         H           -1.247120719666    -0.542252573793    -2.140905698285     1.007825032230
         H           -1.245880719666    -0.534401573793     2.145805301715     1.007825032230
         H           -3.511787719666     0.523362426207    -2.151343698285     1.007825032230
         H           -3.510523719666     0.531256426207     2.153652301715     1.007825032230
         H            2.443883280334    -2.251250573793     0.004789301715     1.007825032230
         H           -4.637626719666     1.056959426207     0.000513301715     1.007825032230
         H            4.567634280334    -0.897778573793     0.002960301715     1.007825032230
         H            4.387322280334     1.615439426207    -0.000532698285     1.007825032230
         H            2.107408280334     2.642217426207    -0.002015698285     1.007825032230

  Basis Set: AUG-CC-PVTZ
    Blend: AUG-CC-PVTZ
  Basis Set: (AUG-CC-PVTZ AUX)
    Blend: AUG-CC-PVTZ-JKFIT
	 Reference Energy          =    -551.2798966907686236 [Eh]
	 Singles Energy            =      -0.0000000000000000 [Eh]
	 Same-Spin Energy          =      -0.5998024670098467 [Eh]
	 Opposite-Spin Energy      =      -1.8248622592733690 [Eh]
	 Correlation Energy        =      -2.4246647262832157 [Eh]
	 Total Energy              =    -553.7045614170518775 [Eh]

	 ================> DF-SCS-MP2 Energies <==================
	-----------------------------------------------------------
	 SCS Same-Spin Scale       =       0.3333333333333333 [-]
	 SCS Opposite-Spin Scale   =       1.2000000000000000 [-]
	 SCS Same-Spin Energy      =      -0.1999341556699489 [Eh]
	 SCS Opposite-Spin Energy  =      -2.1898347111280425 [Eh]
	 SCS Correlation Energy    =      -2.3897688667979913 [Eh]
	 SCS Total Energy          =    -553.6696655575666455 [Eh]
	-----------------------------------------------------------

  Dipole Moment: [D]
     X:     1.7217      Y:     0.1789      Z:    -0.0159     Total:     1.7311

*** Psi4 exiting successfully. Buy a developer a beer!
