                               Psi4 1.3.2 release

  ==> Input File <==

--------------------------------------------------------------------------
#psi4
#
memory 32 gb

molecule  {
0 1
  O        0.0894740    -1.2706490     0.0016280
  N        1.0961490     0.8320480    -0.0012430
  C       -1.1233858    -0.5713252     0.0007644
  C       -1.7504730    -0.3080250    -1.2153360
  C       -1.7497660    -0.3035760     1.2162340
  C        1.2195230    -0.4906020     0.0005970
  C       -3.0144240     0.2837480    -1.2099290
  C       -3.0137120     0.2881830     1.2093930
  C       -3.6464470     0.5845060    -0.0006310
  C        2.4408500    -1.1790020     0.0015830
  C        3.6030640    -0.4211020     0.0005590
  C        3.5068820     0.9758400    -0.0013820
  C        2.2403890     1.5483070    -0.0022070
  H       -1.2410120    -0.5552270    -2.1426030
  H       -1.2397720    -0.5473760     2.1441080
  H       -3.5056790     0.5103880    -2.1530410
  H       -3.5044150     0.5182820     2.1519550
  H        2.4499920    -2.2642250     0.0030920
  H       -4.6315180     1.0439850    -0.0011840
  H        4.5737430    -0.9107530     0.0012630
  H        4.3934310     1.6024650    -0.0022300
  H        2.1135170     2.6292430    -0.0037130
units angstrom
no_reorient  #important for SAPT in psi4, default
symmetry c1  #important for SAPT in psi4, default
}

set PROPERTIES_ORIGIN ["COM"]
properties('MP2/aug-cc-pvtz', properties = ['dipole'])
--------------------------------------------------------------------------

    Molecular point group: c1
  Charge       = 0
  Multiplicity = 1
  Basis Set: AUG-CC-PVTZ
    Blend: AUG-CC-PVTZ
  Basis Set: (AUG-CC-PVTZ AUX)
    Blend: AUG-CC-PVTZ-JKFIT

    Orbital Energies [Eh]
    ---------------------

    Doubly Occupied:

       1A    -20.601563     2A    -15.565943     3A    -11.345528
       4A    -11.296464     5A    -11.284500     6A    -11.266975
       7A    -11.241968     8A    -11.238671     9A    -11.238565
      10A    -11.238149    11A    -11.233660    12A    -11.233653
      13A    -11.232651    14A     -1.434355    15A     -1.255746
      16A     -1.147494    17A     -1.093581    18A     -1.040116
      19A     -1.016933    20A     -0.996302    21A     -0.878732
      22A     -0.860430    23A     -0.835624    24A     -0.805679
      25A     -0.739343    26A     -0.706648    27A     -0.679409
      28A     -0.668770    29A     -0.658961    30A     -0.628381
      31A     -0.614882    32A     -0.595141    33A     -0.590944
      34A     -0.580058    35A     -0.570386    36A     -0.536647
      37A     -0.517426    38A     -0.513703    39A     -0.495476
      40A     -0.483129    41A     -0.432656    42A     -0.390117
      43A     -0.338746    44A     -0.330573    45A     -0.327385

  @DF-RHF Final Energy:  -551.28206153163762

   => Energetics <=

    Nuclear Repulsion Energy =            709.2209713200101078
    One-Electron Energy =               -2155.4419386293552634
    Two-Electron Energy =                 894.9389057777076459
    Total Energy =                       -551.2820615316376234
  Basis Set: (AUG-CC-PVTZ AUX)
    Blend: AUG-CC-PVTZ-RI
    Molecular point group: c1

    Geometry (in Angstrom), charge = 0, multiplicity = 1:

       Center              X                  Y                   Z               Mass
    ------------   -----------------  -----------------  -----------------  -----------------
         O            0.085181893892    -1.260438878372     0.001616266170    15.994914619570
         N            1.091856893892     0.842258121628    -0.001254733830    14.003074004430
         C           -1.127677906108    -0.561115078372     0.000752666170    12.000000000000
         C           -1.754765106108    -0.297814878372    -1.215347733830    12.000000000000
         C           -1.754058106108    -0.293365878372     1.216222266170    12.000000000000
         C            1.215230893892    -0.480391878372     0.000585266170    12.000000000000
         C           -3.018716106108     0.293958121628    -1.209940733830    12.000000000000
         C           -3.018004106108     0.298393121628     1.209381266170    12.000000000000
         C           -3.650739106108     0.594716121628    -0.000642733830    12.000000000000
         C            2.436557893892    -1.168791878372     0.001571266170    12.000000000000
         C            3.598771893892    -0.410891878372     0.000547266170    12.000000000000
         C            3.502589893892     0.986050121628    -0.001393733830    12.000000000000
         C            2.236096893892     1.558517121628    -0.002218733830    12.000000000000
         H           -1.245304106108    -0.545016878372    -2.142614733830     1.007825032230
         H           -1.244064106108    -0.537165878372     2.144096266170     1.007825032230
         H           -3.509971106108     0.520598121628    -2.153052733830     1.007825032230
         H           -3.508707106108     0.528492121628     2.151943266170     1.007825032230
         H            2.445699893892    -2.254014878372     0.003080266170     1.007825032230
         H           -4.635810106108     1.054195121628    -0.001195733830     1.007825032230
         H            4.569450893892    -0.900542878372     0.001251266170     1.007825032230
         H            4.389138893892     1.612675121628    -0.002241733830     1.007825032230
         H            2.109224893892     2.639453121628    -0.003724733830     1.007825032230

  Basis Set: AUG-CC-PVTZ
    Blend: AUG-CC-PVTZ
  Basis Set: (AUG-CC-PVTZ AUX)
    Blend: AUG-CC-PVTZ-JKFIT
	 Reference Energy          =    -551.2820615316376234 [Eh]
	 Singles Energy            =      -0.0000000000000000 [Eh]
	 Same-Spin Energy          =      -0.5997545979809102 [Eh]
	 Opposite-Spin Energy      =      -1.8251149959723967 [Eh]
	 Correlation Energy        =      -2.4248695939533071 [Eh]
	 Total Energy              =    -553.7069311255909270 [Eh]

	 ================> DF-SCS-MP2 Energies <==================
	-----------------------------------------------------------
	 SCS Same-Spin Scale       =       0.3333333333333333 [-]
	 SCS Opposite-Spin Scale   =       1.2000000000000000 [-]
	 SCS Same-Spin Energy      =      -0.1999181993269701 [Eh]
	 SCS Opposite-Spin Energy  =      -2.1901379951668760 [Eh]
	 SCS Correlation Energy    =      -2.3900561944938463 [Eh]
	 SCS Total Energy          =    -553.6721177261314324 [Eh]
	-----------------------------------------------------------

  Dipole Moment: [D]
     X:     1.4382      Y:     0.2181      Z:    -0.0001     Total:     1.4546

*** Psi4 exiting successfully. Buy a developer a beer!
