                               Psi4 1.3.2 release

  ==> Input File <==

--------------------------------------------------------------------------
#psi4
#
memory 32 gb

molecule  {
0 1
  O        0.0894740    -1.2706490     0.0016280
  N        1.0730843     0.8296934    -0.0012403
  C       -1.1354060    -0.5925990     0.0007920
  C       -1.7504730    -0.3080250    -1.2153360
  C       -1.7497660    -0.3035760     1.2162340
  C        1.2195230    -0.4906020     0.0005970
  C       -3.0144240     0.2837480    -1.2099290
  C       -3.0137120     0.2881830     1.2093930
  C       -3.6464470     0.5845060    -0.0006310
  C        2.4408500    -1.1790020     0.0015830
  C        3.6030640    -0.4211020     0.0005590
  C        3.5068820     0.9758400    -0.0013820
  C        2.2403890     1.5483070    -0.0022070
  H       -1.2410120    -0.5552270    -2.1426030
  H       -1.2397720    -0.5473760     2.1441080
  H       -3.5056790     0.5103880    -2.1530410
  H       -3.5044150     0.5182820     2.1519550
  H        2.4499920    -2.2642250     0.0030920
  H       -4.6315180     1.0439850    -0.0011840
  H        4.5737430    -0.9107530     0.0012630
  H        4.3934310     1.6024650    -0.0022300
  H        2.1135170     2.6292430    -0.0037130
units angstrom
no_reorient  #important for SAPT in psi4, default
symmetry c1  #important for SAPT in psi4, default
}

set PROPERTIES_ORIGIN ["COM"]
properties('MP2/aug-cc-pvtz', properties = ['dipole'])
--------------------------------------------------------------------------

    Molecular point group: c1
  Charge       = 0
  Multiplicity = 1
  Basis Set: AUG-CC-PVTZ
    Blend: AUG-CC-PVTZ
  Basis Set: (AUG-CC-PVTZ AUX)
    Blend: AUG-CC-PVTZ-JKFIT

    Orbital Energies [Eh]
    ---------------------

    Doubly Occupied:

       1A    -20.599569     2A    -15.568060     3A    -11.345641
       4A    -11.296007     5A    -11.286742     6A    -11.268000
       7A    -11.242642     8A    -11.239152     9A    -11.238409
      10A    -11.238303    11A    -11.233282    12A    -11.233276
      13A    -11.232385    14A     -1.432968    15A     -1.250670
      16A     -1.147342    17A     -1.094228    18A     -1.039644
      19A     -1.016796    20A     -0.996039    21A     -0.879633
      22A     -0.858693    23A     -0.835484    24A     -0.804505
      25A     -0.738967    26A     -0.705128    27A     -0.678821
      28A     -0.669383    29A     -0.658342    30A     -0.628212
      31A     -0.613742    32A     -0.594484    33A     -0.590806
      34A     -0.579140    35A     -0.569807    36A     -0.535165
      37A     -0.515999    38A     -0.513405    39A     -0.494984
      40A     -0.482383    41A     -0.436184    42A     -0.389212
      43A     -0.338414    44A     -0.331417    45A     -0.327208

  @DF-RHF Final Energy:  -551.28107353480254

   => Energetics <=

    Nuclear Repulsion Energy =            708.9301306975340822
    One-Electron Energy =               -2154.8850658456372003
    Two-Electron Energy =                 894.6738616133006872
    Total Energy =                       -551.2810735348025446
  Basis Set: (AUG-CC-PVTZ AUX)
    Blend: AUG-CC-PVTZ-RI
    Molecular point group: c1

    Geometry (in Angstrom), charge = 0, multiplicity = 1:

       Center              X                  Y                   Z               Mass
    ------------   -----------------  -----------------  -----------------  -----------------
         O            0.087913076641    -1.258753837683     0.001614109090    15.994914619570
         N            1.071523376641     0.841588562317    -0.001254190910    14.003074004430
         C           -1.136966923359    -0.580703837683     0.000778109090    12.000000000000
         C           -1.752033923359    -0.296129837683    -1.215349890910    12.000000000000
         C           -1.751326923359    -0.291680837683     1.216220109090    12.000000000000
         C            1.217962076641    -0.478706837683     0.000583109090    12.000000000000
         C           -3.015984923359     0.295643162317    -1.209942890910    12.000000000000
         C           -3.015272923359     0.300078162317     1.209379109090    12.000000000000
         C           -3.648007923359     0.596401162317    -0.000644890910    12.000000000000
         C            2.439289076641    -1.167106837683     0.001569109090    12.000000000000
         C            3.601503076641    -0.409206837683     0.000545109090    12.000000000000
         C            3.505321076641     0.987735162317    -0.001395890910    12.000000000000
         C            2.238828076641     1.560202162317    -0.002220890910    12.000000000000
         H           -1.242572923359    -0.543331837683    -2.142616890910     1.007825032230
         H           -1.241332923359    -0.535480837683     2.144094109090     1.007825032230
         H           -3.507239923359     0.522283162317    -2.153054890910     1.007825032230
         H           -3.505975923359     0.530177162317     2.151941109090     1.007825032230
         H            2.448431076641    -2.252329837683     0.003078109090     1.007825032230
         H           -4.633078923359     1.055880162317    -0.001197890910     1.007825032230
         H            4.572182076641    -0.898857837683     0.001249109090     1.007825032230
         H            4.391870076641     1.614360162317    -0.002243890910     1.007825032230
         H            2.111956076641     2.641138162317    -0.003726890910     1.007825032230

  Basis Set: AUG-CC-PVTZ
    Blend: AUG-CC-PVTZ
  Basis Set: (AUG-CC-PVTZ AUX)
    Blend: AUG-CC-PVTZ-JKFIT
	 Reference Energy          =    -551.2810735348025446 [Eh]
	 Singles Energy            =      -0.0000000000000000 [Eh]
	 Same-Spin Energy          =      -0.5997443738039092 [Eh]
	 Opposite-Spin Energy      =      -1.8254640813777696 [Eh]
	 Correlation Energy        =      -2.4252084551816786 [Eh]
	 Total Energy              =    -553.7062819899841770 [Eh]

	 ================> DF-SCS-MP2 Energies <==================
	-----------------------------------------------------------
	 SCS Same-Spin Scale       =       0.3333333333333333 [-]
	 SCS Opposite-Spin Scale   =       1.2000000000000000 [-]
	 SCS Same-Spin Energy      =      -0.1999147912679697 [Eh]
	 SCS Opposite-Spin Energy  =      -2.1905568976533236 [Eh]
	 SCS Correlation Energy    =      -2.3904716889212931 [Eh]
	 SCS Total Energy          =    -553.6715452237237969 [Eh]
	-----------------------------------------------------------

  Dipole Moment: [D]
     X:     1.4881      Y:     0.2161      Z:    -0.0001     Total:     1.5037

*** Psi4 exiting successfully. Buy a developer a beer!
