                               Psi4 1.3.2 release

  ==> Input File <==

--------------------------------------------------------------------------
#psi4
#
memory 32 gb

molecule  {
0 1
  O        0.0894740    -1.2706490     0.0016280
  N        1.0961490     0.8320480    -0.0012430
  C       -1.0851238    -0.5088075     0.0006832
  C       -1.7504730    -0.3080250    -1.2153360
  C       -1.7497660    -0.3035760     1.2162340
  C        1.2195230    -0.4906020     0.0005970
  C       -3.0144240     0.2837480    -1.2099290
  C       -3.0137120     0.2881830     1.2093930
  C       -3.6464470     0.5845060    -0.0006310
  C        2.4408500    -1.1790020     0.0015830
  C        3.6030640    -0.4211020     0.0005590
  C        3.5068820     0.9758400    -0.0013820
  C        2.2403890     1.5483070    -0.0022070
  H       -1.2410120    -0.5552270    -2.1426030
  H       -1.2397720    -0.5473760     2.1441080
  H       -3.5056790     0.5103880    -2.1530410
  H       -3.5044150     0.5182820     2.1519550
  H        2.4499920    -2.2642250     0.0030920
  H       -4.6315180     1.0439850    -0.0011840
  H        4.5737430    -0.9107530     0.0012630
  H        4.3934310     1.6024650    -0.0022300
  H        2.1135170     2.6292430    -0.0037130
units angstrom
no_reorient  #important for SAPT in psi4, default
symmetry c1  #important for SAPT in psi4, default
}

set PROPERTIES_ORIGIN ["COM"]
properties('MP2/aug-cc-pvtz', properties = ['dipole'])
--------------------------------------------------------------------------

    Molecular point group: c1
  Charge       = 0
  Multiplicity = 1
  Basis Set: AUG-CC-PVTZ
    Blend: AUG-CC-PVTZ
  Basis Set: (AUG-CC-PVTZ AUX)
    Blend: AUG-CC-PVTZ-JKFIT

    Orbital Energies [Eh]
    ---------------------

    Doubly Occupied:

       1A    -20.604100     2A    -15.566692     3A    -11.345308
       4A    -11.297148     5A    -11.285176     6A    -11.267420
       7A    -11.242211     8A    -11.238678     9A    -11.237989
      10A    -11.237878    11A    -11.233867    12A    -11.233856
      13A    -11.232318    14A     -1.437512    15A     -1.256396
      16A     -1.145689    17A     -1.094222    18A     -1.039572
      19A     -1.015595    20A     -0.995582    21A     -0.879325
      22A     -0.859891    23A     -0.833913    24A     -0.805584
      25A     -0.737496    26A     -0.708362    27A     -0.679422
      28A     -0.668671    29A     -0.659056    30A     -0.628893
      31A     -0.615545    32A     -0.595624    33A     -0.589256
      34A     -0.580122    35A     -0.571435    36A     -0.537072
      37A     -0.517566    38A     -0.513720    39A     -0.494523
      40A     -0.481993    41A     -0.433850    42A     -0.390861
      43A     -0.338832    44A     -0.329972    45A     -0.325470

  @DF-RHF Final Energy:  -551.27713630772996

   => Energetics <=

    Nuclear Repulsion Energy =            709.5639987177985404
    One-Electron Energy =               -2156.1149463217298035
    Two-Electron Energy =                 895.2738112962013020
    Total Energy =                       -551.2771363077299611
  Basis Set: (AUG-CC-PVTZ AUX)
    Blend: AUG-CC-PVTZ-RI
    Molecular point group: c1

    Geometry (in Angstrom), charge = 0, multiplicity = 1:

       Center              X                  Y                   Z               Mass
    ------------   -----------------  -----------------  -----------------  -----------------
         O            0.082497915070    -1.264824330852     0.001621962137    15.994914619570
         N            1.089172915070     0.837872669148    -0.001249037863    14.003074004430
         C           -1.092099884930    -0.502982830852     0.000677162137    12.000000000000
         C           -1.757449084930    -0.302200330852    -1.215342037863    12.000000000000
         C           -1.756742084930    -0.297751330852     1.216227962137    12.000000000000
         C            1.212546915070    -0.484777330852     0.000590962137    12.000000000000
         C           -3.021400084930     0.289572669148    -1.209935037863    12.000000000000
         C           -3.020688084930     0.294007669148     1.209386962137    12.000000000000
         C           -3.653423084930     0.590330669148    -0.000637037863    12.000000000000
         C            2.433873915070    -1.173177330852     0.001576962137    12.000000000000
         C            3.596087915070    -0.415277330852     0.000552962137    12.000000000000
         C            3.499905915070     0.981664669148    -0.001388037863    12.000000000000
         C            2.233412915070     1.554131669148    -0.002213037863    12.000000000000
         H           -1.247988084930    -0.549402330852    -2.142609037863     1.007825032230
         H           -1.246748084930    -0.541551330852     2.144101962137     1.007825032230
         H           -3.512655084930     0.516212669148    -2.153047037863     1.007825032230
         H           -3.511391084930     0.524106669148     2.151948962137     1.007825032230
         H            2.443015915070    -2.258400330852     0.003085962137     1.007825032230
         H           -4.638494084930     1.049809669148    -0.001190037863     1.007825032230
         H            4.566766915070    -0.904928330852     0.001256962137     1.007825032230
         H            4.386454915070     1.608289669148    -0.002236037863     1.007825032230
         H            2.106540915070     2.635067669148    -0.003719037863     1.007825032230

  Basis Set: AUG-CC-PVTZ
    Blend: AUG-CC-PVTZ
  Basis Set: (AUG-CC-PVTZ AUX)
    Blend: AUG-CC-PVTZ-JKFIT
	 Reference Energy          =    -551.2771363077299611 [Eh]
	 Singles Energy            =      -0.0000000000000000 [Eh]
	 Same-Spin Energy          =      -0.6003651782591993 [Eh]
	 Opposite-Spin Energy      =      -1.8265984578790546 [Eh]
	 Correlation Energy        =      -2.4269636361382538 [Eh]
	 Total Energy              =    -553.7040999438681865 [Eh]

	 ================> DF-SCS-MP2 Energies <==================
	-----------------------------------------------------------
	 SCS Same-Spin Scale       =       0.3333333333333333 [-]
	 SCS Opposite-Spin Scale   =       1.2000000000000000 [-]
	 SCS Same-Spin Energy      =      -0.2001217260863998 [Eh]
	 SCS Opposite-Spin Energy  =      -2.1919181494548656 [Eh]
	 SCS Correlation Energy    =      -2.3920398755412653 [Eh]
	 SCS Total Energy          =    -553.6691761832712473 [Eh]
	-----------------------------------------------------------

  Dipole Moment: [D]
     X:     1.5216      Y:     0.2281      Z:    -0.0001     Total:     1.5386

*** Psi4 exiting successfully. Buy a developer a beer!
