                               Psi4 1.3.2 release

  ==> Input File <==

--------------------------------------------------------------------------
#psi4
#
memory 32 gb

molecule  {
0 1
  O        0.1772017    -1.3844980     0.0017899
  N        1.0961490     0.8320480    -0.0012430
  C       -1.1354060    -0.5925990     0.0007920
  C       -1.7504730    -0.3080250    -1.2153360
  C       -1.7497660    -0.3035760     1.2162340
  C        1.2195230    -0.4906020     0.0005970
  C       -3.0144240     0.2837480    -1.2099290
  C       -3.0137120     0.2881830     1.2093930
  C       -3.6464470     0.5845060    -0.0006310
  C        2.4408500    -1.1790020     0.0015830
  C        3.6030640    -0.4211020     0.0005590
  C        3.5068820     0.9758400    -0.0013820
  C        2.2403890     1.5483070    -0.0022070
  H       -1.2410120    -0.5552270    -2.1426030
  H       -1.2397720    -0.5473760     2.1441080
  H       -3.5056790     0.5103880    -2.1530410
  H       -3.5044150     0.5182820     2.1519550
  H        2.4499920    -2.2642250     0.0030920
  H       -4.6315180     1.0439850    -0.0011840
  H        4.5737430    -0.9107530     0.0012630
  H        4.3934310     1.6024650    -0.0022300
  H        2.1135170     2.6292430    -0.0037130
units angstrom
no_reorient  #important for SAPT in psi4, default
symmetry c1  #important for SAPT in psi4, default
}

set PROPERTIES_ORIGIN ["COM"]
properties('MP2/aug-cc-pvtz', properties = ['dipole'])
--------------------------------------------------------------------------

    Molecular point group: c1
  Charge       = 0
  Multiplicity = 1
  Basis Set: AUG-CC-PVTZ
    Blend: AUG-CC-PVTZ
  Basis Set: (AUG-CC-PVTZ AUX)
    Blend: AUG-CC-PVTZ-JKFIT

    Orbital Energies [Eh]
    ---------------------

    Doubly Occupied:

       1A    -20.604854     2A    -15.564135     3A    -11.339318
       4A    -11.307466     5A    -11.281587     6A    -11.261084
       7A    -11.244179     8A    -11.244075     9A    -11.242390
      10A    -11.242365    11A    -11.239249    12A    -11.234137
      13A    -11.233996    14A     -1.405177    15A     -1.249856
      16A     -1.154628    17A     -1.088922    18A     -1.031226
      19A     -1.022479    20A     -1.000769    21A     -0.872822
      22A     -0.847868    23A     -0.837460    24A     -0.807909
      25A     -0.725829    26A     -0.704047    27A     -0.679782
      28A     -0.661502    29A     -0.650775    30A     -0.629753
      31A     -0.608356    32A     -0.596874    33A     -0.588280
      34A     -0.583708    35A     -0.561831    36A     -0.533969
      37A     -0.514495    38A     -0.510829    39A     -0.504471
      40A     -0.491282    41A     -0.427165    42A     -0.386866
      43A     -0.342821    44A     -0.337228    45A     -0.326018

  @DF-RHF Final Energy:  -551.26251348976939

   => Energetics <=

    Nuclear Repulsion Energy =            705.9095166670822437
    One-Electron Energy =               -2148.8963972972965166
    Two-Electron Energy =                 891.7243671404448833
    Total Energy =                       -551.2625134897693897
  Basis Set: (AUG-CC-PVTZ AUX)
    Blend: AUG-CC-PVTZ-RI
    Molecular point group: c1

    Geometry (in Angstrom), charge = 0, multiplicity = 1:

       Center              X                  Y                   Z               Mass
    ------------   -----------------  -----------------  -----------------  -----------------
         O            0.165550230217    -1.362150683743     0.001761092435    15.994914619570
         N            1.084497530217     0.854395316257    -0.001271807565    14.003074004430
         C           -1.147057469783    -0.570251683743     0.000763192435    12.000000000000
         C           -1.762124469783    -0.285677683743    -1.215364807565    12.000000000000
         C           -1.761417469783    -0.281228683743     1.216205192435    12.000000000000
         C            1.207871530217    -0.468254683743     0.000568192435    12.000000000000
         C           -3.026075469783     0.306095316257    -1.209957807565    12.000000000000
         C           -3.025363469783     0.310530316257     1.209364192435    12.000000000000
         C           -3.658098469783     0.606853316257    -0.000659807565    12.000000000000
         C            2.429198530217    -1.156654683743     0.001554192435    12.000000000000
         C            3.591412530217    -0.398754683743     0.000530192435    12.000000000000
         C            3.495230530217     0.998187316257    -0.001410807565    12.000000000000
         C            2.228737530217     1.570654316257    -0.002235807565    12.000000000000
         H           -1.252663469783    -0.532879683743    -2.142631807565     1.007825032230
         H           -1.251423469783    -0.525028683743     2.144079192435     1.007825032230
         H           -3.517330469783     0.532735316257    -2.153069807565     1.007825032230
         H           -3.516066469783     0.540629316257     2.151926192435     1.007825032230
         H            2.438340530217    -2.241877683743     0.003063192435     1.007825032230
         H           -4.643169469783     1.066332316257    -0.001212807565     1.007825032230
         H            4.562091530217    -0.888405683743     0.001234192435     1.007825032230
         H            4.381779530217     1.624812316257    -0.002258807565     1.007825032230
         H            2.101865530217     2.651590316257    -0.003741807565     1.007825032230

  Basis Set: AUG-CC-PVTZ
    Blend: AUG-CC-PVTZ
  Basis Set: (AUG-CC-PVTZ AUX)
    Blend: AUG-CC-PVTZ-JKFIT
	 Reference Energy          =    -551.2625134897693897 [Eh]
	 Singles Energy            =      -0.0000000000000000 [Eh]
	 Same-Spin Energy          =      -0.6009790911019703 [Eh]
	 Opposite-Spin Energy      =      -1.8298444737984294 [Eh]
	 Correlation Energy        =      -2.4308235649003995 [Eh]
	 Total Energy              =    -553.6933370546697688 [Eh]

	 ================> DF-SCS-MP2 Energies <==================
	-----------------------------------------------------------
	 SCS Same-Spin Scale       =       0.3333333333333333 [-]
	 SCS Opposite-Spin Scale   =       1.2000000000000000 [-]
	 SCS Same-Spin Energy      =      -0.2003263637006568 [Eh]
	 SCS Opposite-Spin Energy  =      -2.1958133685581154 [Eh]
	 SCS Correlation Energy    =      -2.3961397322587721 [Eh]
	 SCS Total Energy          =    -553.6586532220281924 [Eh]
	-----------------------------------------------------------

  Dipole Moment: [D]
     X:     0.7636      Y:     0.3797      Z:    -0.0003     Total:     0.8528

*** Psi4 exiting successfully. Buy a developer a beer!
