                               Psi4 1.3.2 release

  ==> Input File <==

--------------------------------------------------------------------------
#psi4
#
memory 32 gb

molecule  {
0 1
  O        0.0855368    -1.2617453     0.1478481
  N        1.0961490     0.8320480    -0.0012430
  C       -1.1354060    -0.5925990     0.0007920
  C       -1.7504730    -0.3080250    -1.2153360
  C       -1.7497660    -0.3035760     1.2162340
  C        1.2195230    -0.4906020     0.0005970
  C       -3.0144240     0.2837480    -1.2099290
  C       -3.0137120     0.2881830     1.2093930
  C       -3.6464470     0.5845060    -0.0006310
  C        2.4408500    -1.1790020     0.0015830
  C        3.6030640    -0.4211020     0.0005590
  C        3.5068820     0.9758400    -0.0013820
  C        2.2403890     1.5483070    -0.0022070
  H       -1.2410120    -0.5552270    -2.1426030
  H       -1.2397720    -0.5473760     2.1441080
  H       -3.5056790     0.5103880    -2.1530410
  H       -3.5044150     0.5182820     2.1519550
  H        2.4499920    -2.2642250     0.0030920
  H       -4.6315180     1.0439850    -0.0011840
  H        4.5737430    -0.9107530     0.0012630
  H        4.3934310     1.6024650    -0.0022300
  H        2.1135170     2.6292430    -0.0037130
units angstrom
no_reorient  #important for SAPT in psi4, default
symmetry c1  #important for SAPT in psi4, default
}

set PROPERTIES_ORIGIN ["COM"]
properties('MP2/aug-cc-pvtz', properties = ['dipole'])
--------------------------------------------------------------------------

    Molecular point group: c1
  Charge       = 0
  Multiplicity = 1
  Basis Set: AUG-CC-PVTZ
    Blend: AUG-CC-PVTZ
  Basis Set: (AUG-CC-PVTZ AUX)
    Blend: AUG-CC-PVTZ-JKFIT

    Orbital Energies [Eh]
    ---------------------

    Doubly Occupied:

       1A    -20.600146     2A    -15.566400     3A    -11.345701
       4A    -11.295923     5A    -11.284695     6A    -11.267340
       7A    -11.242796     8A    -11.239660     9A    -11.238867
      10A    -11.236963    11A    -11.236291    12A    -11.232255
      13A    -11.230019    14A     -1.431261    15A     -1.255988
      16A     -1.147218    17A     -1.093909    18A     -1.040353
      19A     -1.016725    20A     -0.996077    21A     -0.878265
      22A     -0.861065    23A     -0.834997    24A     -0.805652
      25A     -0.738708    26A     -0.706046    27A     -0.679041
      28A     -0.668887    29A     -0.658151    30A     -0.628452
      31A     -0.614583    32A     -0.595467    33A     -0.590597
      34A     -0.579908    35A     -0.568691    36A     -0.536757
      37A     -0.517582    38A     -0.513230    39A     -0.494903
      40A     -0.482132    41A     -0.432611    42A     -0.390162
      43A     -0.338917    44A     -0.332700    45A     -0.325447

  @DF-RHF Final Energy:  -551.27902747273674

   => Energetics <=

    Nuclear Repulsion Energy =            709.0398592870810717
    One-Electron Energy =               -2155.0946918067343177
    Two-Electron Energy =                 894.7758050469165028
    Total Energy =                       -551.2790274727367432
  Basis Set: (AUG-CC-PVTZ AUX)
    Blend: AUG-CC-PVTZ-RI
    Molecular point group: c1

    Geometry (in Angstrom), charge = 0, multiplicity = 1:

       Center              X                  Y                   Z               Mass
    ------------   -----------------  -----------------  -----------------  -----------------
         O            0.082456007969    -1.250875374051     0.134162835436    15.994914619570
         N            1.093068207969     0.842917925949    -0.014928264564    14.003074004430
         C           -1.138486792031    -0.581729074051    -0.012893264564    12.000000000000
         C           -1.753553792031    -0.297155074051    -1.229021264564    12.000000000000
         C           -1.752846792031    -0.292706074051     1.202548735436    12.000000000000
         C            1.216442207969    -0.479732074051    -0.013088264564    12.000000000000
         C           -3.017504792031     0.294617925949    -1.223614264564    12.000000000000
         C           -3.016792792031     0.299052925949     1.195707735436    12.000000000000
         C           -3.649527792031     0.595375925949    -0.014316264564    12.000000000000
         C            2.437769207969    -1.168132074051    -0.012102264564    12.000000000000
         C            3.599983207969    -0.410232074051    -0.013126264564    12.000000000000
         C            3.503801207969     0.986709925949    -0.015067264564    12.000000000000
         C            2.237308207969     1.559176925949    -0.015892264564    12.000000000000
         H           -1.244092792031    -0.544357074051    -2.156288264564     1.007825032230
         H           -1.242852792031    -0.536506074051     2.130422735436     1.007825032230
         H           -3.508759792031     0.521257925949    -2.166726264564     1.007825032230
         H           -3.507495792031     0.529151925949     2.138269735436     1.007825032230
         H            2.446911207969    -2.253355074051    -0.010593264564     1.007825032230
         H           -4.634598792031     1.054854925949    -0.014869264564     1.007825032230
         H            4.570662207969    -0.899883074051    -0.012422264564     1.007825032230
         H            4.390350207969     1.613334925949    -0.015915264564     1.007825032230
         H            2.110436207969     2.640112925949    -0.017398264564     1.007825032230

  Basis Set: AUG-CC-PVTZ
    Blend: AUG-CC-PVTZ
  Basis Set: (AUG-CC-PVTZ AUX)
    Blend: AUG-CC-PVTZ-JKFIT
	 Reference Energy          =    -551.2790274727367432 [Eh]
	 Singles Energy            =      -0.0000000000000000 [Eh]
	 Same-Spin Energy          =      -0.5998640677338035 [Eh]
	 Opposite-Spin Energy      =      -1.8252346586921901 [Eh]
	 Correlation Energy        =      -2.4250987264259938 [Eh]
	 Total Energy              =    -553.7041261991627152 [Eh]

	 ================> DF-SCS-MP2 Energies <==================
	-----------------------------------------------------------
	 SCS Same-Spin Scale       =       0.3333333333333333 [-]
	 SCS Opposite-Spin Scale   =       1.2000000000000000 [-]
	 SCS Same-Spin Energy      =      -0.1999546892446012 [Eh]
	 SCS Opposite-Spin Energy  =      -2.1902815904306281 [Eh]
	 SCS Correlation Energy    =      -2.3902362796752294 [Eh]
	 SCS Total Energy          =    -553.6692637524120073 [Eh]
	-----------------------------------------------------------

  Dipole Moment: [D]
     X:     1.5060      Y:     0.2232      Z:    -0.1579     Total:     1.5306

*** Psi4 exiting successfully. Buy a developer a beer!
