                               Psi4 1.3.2 release

  ==> Input File <==

--------------------------------------------------------------------------
#psi4
#
memory 32 gb

molecule  {
0 1
  O        0.0894740    -1.2706490     0.0016280
  N        1.0041860     0.8202200    -0.0012288
  C       -1.1354060    -0.5925990     0.0007920
  C       -1.7504730    -0.3080250    -1.2153360
  C       -1.7497660    -0.3035760     1.2162340
  C        1.2195230    -0.4906020     0.0005970
  C       -3.0144240     0.2837480    -1.2099290
  C       -3.0137120     0.2881830     1.2093930
  C       -3.6464470     0.5845060    -0.0006310
  C        2.4408500    -1.1790020     0.0015830
  C        3.6030640    -0.4211020     0.0005590
  C        3.5068820     0.9758400    -0.0013820
  C        2.2403890     1.5483070    -0.0022070
  H       -1.2410120    -0.5552270    -2.1426030
  H       -1.2397720    -0.5473760     2.1441080
  H       -3.5056790     0.5103880    -2.1530410
  H       -3.5044150     0.5182820     2.1519550
  H        2.4499920    -2.2642250     0.0030920
  H       -4.6315180     1.0439850    -0.0011840
  H        4.5737430    -0.9107530     0.0012630
  H        4.3934310     1.6024650    -0.0022300
  H        2.1135170     2.6292430    -0.0037130
units angstrom
no_reorient  #important for SAPT in psi4, default
symmetry c1  #important for SAPT in psi4, default
}

set PROPERTIES_ORIGIN ["COM"]
properties('MP2/aug-cc-pvtz', properties = ['dipole'])
--------------------------------------------------------------------------

    Molecular point group: c1
  Charge       = 0
  Multiplicity = 1
  Basis Set: AUG-CC-PVTZ
    Blend: AUG-CC-PVTZ
  Basis Set: (AUG-CC-PVTZ AUX)
    Blend: AUG-CC-PVTZ-JKFIT

    Orbital Energies [Eh]
    ---------------------

    Doubly Occupied:

       1A    -20.596217     2A    -15.574671     3A    -11.345868
       4A    -11.294662     5A    -11.293486     6A    -11.271385
       7A    -11.244937     8A    -11.242561     9A    -11.237136
      10A    -11.237032    11A    -11.231758    12A    -11.231753
      13A    -11.231010    14A     -1.432109    15A     -1.237170
      16A     -1.145699    17A     -1.096936    18A     -1.037839
      19A     -1.015427    20A     -0.995091    21A     -0.882925
      22A     -0.853355    23A     -0.834132    24A     -0.800605
      25A     -0.736557    26A     -0.702450    27A     -0.676994
      28A     -0.670804    29A     -0.656902    30A     -0.628335
      31A     -0.611327    32A     -0.593280    33A     -0.589354
      34A     -0.576811    35A     -0.569418    36A     -0.530044
      37A     -0.512365    38A     -0.511991    39A     -0.493532
      40A     -0.479897    41A     -0.446249    42A     -0.387452
      43A     -0.338263    44A     -0.332821    45A     -0.325195

  @DF-RHF Final Energy:  -551.27100606805084

   => Energetics <=

    Nuclear Repulsion Energy =            708.5709768318598663
    One-Electron Energy =               -2154.2163614935257101
    Two-Electron Energy =                 894.3743785936151198
    Total Energy =                       -551.2710060680508377
  Basis Set: (AUG-CC-PVTZ AUX)
    Blend: AUG-CC-PVTZ-RI
    Molecular point group: c1

    Geometry (in Angstrom), charge = 0, multiplicity = 1:

       Center              X                  Y                   Z               Mass
    ------------   -----------------  -----------------  -----------------  -----------------
         O            0.093552855321    -1.257978377630     0.001613167739    15.994914619570
         N            1.008264855321     0.832890622370    -0.001243632261    14.003074004430
         C           -1.131327144679    -0.579928377630     0.000777167739    12.000000000000
         C           -1.746394144679    -0.295354377630    -1.215350832261    12.000000000000
         C           -1.745687144679    -0.290905377630     1.216219167739    12.000000000000
         C            1.223601855321    -0.477931377630     0.000582167739    12.000000000000
         C           -3.010345144679     0.296418622370    -1.209943832261    12.000000000000
         C           -3.009633144679     0.300853622370     1.209378167739    12.000000000000
         C           -3.642368144679     0.597176622370    -0.000645832261    12.000000000000
         C            2.444928855321    -1.166331377630     0.001568167739    12.000000000000
         C            3.607142855321    -0.408431377630     0.000544167739    12.000000000000
         C            3.510960855321     0.988510622370    -0.001396832261    12.000000000000
         C            2.244467855321     1.560977622370    -0.002221832261    12.000000000000
         H           -1.236933144679    -0.542556377630    -2.142617832261     1.007825032230
         H           -1.235693144679    -0.534705377630     2.144093167739     1.007825032230
         H           -3.501600144679     0.523058622370    -2.153055832261     1.007825032230
         H           -3.500336144679     0.530952622370     2.151940167739     1.007825032230
         H            2.454070855321    -2.251554377630     0.003077167739     1.007825032230
         H           -4.627439144679     1.056655622370    -0.001198832261     1.007825032230
         H            4.577821855321    -0.898082377630     0.001248167739     1.007825032230
         H            4.397509855321     1.615135622370    -0.002244832261     1.007825032230
         H            2.117595855321     2.641913622370    -0.003727832261     1.007825032230

  Basis Set: AUG-CC-PVTZ
    Blend: AUG-CC-PVTZ
  Basis Set: (AUG-CC-PVTZ AUX)
    Blend: AUG-CC-PVTZ-JKFIT
	 Reference Energy          =    -551.2710060680508377 [Eh]
	 Singles Energy            =      -0.0000000000000000 [Eh]
	 Same-Spin Energy          =      -0.6002687301742760 [Eh]
	 Opposite-Spin Energy      =      -1.8279538615087367 [Eh]
	 Correlation Energy        =      -2.4282225916830127 [Eh]
	 Total Energy              =    -553.6992286597338762 [Eh]

	 ================> DF-SCS-MP2 Energies <==================
	-----------------------------------------------------------
	 SCS Same-Spin Scale       =       0.3333333333333333 [-]
	 SCS Opposite-Spin Scale   =       1.2000000000000000 [-]
	 SCS Same-Spin Energy      =      -0.2000895767247586 [Eh]
	 SCS Opposite-Spin Energy  =      -2.1935446338104838 [Eh]
	 SCS Correlation Energy    =      -2.3936342105352426 [Eh]
	 SCS Total Energy          =    -553.6646402785860346 [Eh]
	-----------------------------------------------------------

  Dipole Moment: [D]
     X:     1.7014      Y:     0.2168      Z:    -0.0001     Total:     1.7151

*** Psi4 exiting successfully. Buy a developer a beer!
