                               Psi4 1.3.2 release

  ==> Input File <==

--------------------------------------------------------------------------
#psi4
#
memory 32 gb

molecule  {
0 1
  O        0.0894740    -1.2706490     0.0016280
  N        1.0961490     0.8320480    -0.0012430
  C       -1.0578204    -0.4682787     0.0006305
  C       -1.7504730    -0.3080250    -1.2153360
  C       -1.7497660    -0.3035760     1.2162340
  C        1.2195230    -0.4906020     0.0005970
  C       -3.0144240     0.2837480    -1.2099290
  C       -3.0137120     0.2881830     1.2093930
  C       -3.6464470     0.5845060    -0.0006310
  C        2.4408500    -1.1790020     0.0015830
  C        3.6030640    -0.4211020     0.0005590
  C        3.5068820     0.9758400    -0.0013820
  C        2.2403890     1.5483070    -0.0022070
  H       -1.2410120    -0.5552270    -2.1426030
  H       -1.2397720    -0.5473760     2.1441080
  H       -3.5056790     0.5103880    -2.1530410
  H       -3.5044150     0.5182820     2.1519550
  H        2.4499920    -2.2642250     0.0030920
  H       -4.6315180     1.0439850    -0.0011840
  H        4.5737430    -0.9107530     0.0012630
  H        4.3934310     1.6024650    -0.0022300
  H        2.1135170     2.6292430    -0.0037130
units angstrom
no_reorient  #important for SAPT in psi4, default
symmetry c1  #important for SAPT in psi4, default
}

set PROPERTIES_ORIGIN ["COM"]
properties('MP2/aug-cc-pvtz', properties = ['dipole'])
--------------------------------------------------------------------------

    Molecular point group: c1
  Charge       = 0
  Multiplicity = 1
  Basis Set: AUG-CC-PVTZ
    Blend: AUG-CC-PVTZ
  Basis Set: (AUG-CC-PVTZ AUX)
    Blend: AUG-CC-PVTZ-JKFIT

    Orbital Energies [Eh]
    ---------------------

    Doubly Occupied:

       1A    -20.605611     2A    -15.567275     3A    -11.345245
       4A    -11.298181     5A    -11.285682     6A    -11.267743
       7A    -11.242383     8A    -11.239066     9A    -11.237423
      10A    -11.237303    11A    -11.234463    12A    -11.234448
      13A    -11.232299    14A     -1.439599    15A     -1.256890
      16A     -1.144018    17A     -1.094700    18A     -1.039163
      19A     -1.014436    20A     -0.994743    21A     -0.879819
      22A     -0.859530    23A     -0.832190    24A     -0.805476
      25A     -0.736043    26A     -0.709488    27A     -0.679479
      28A     -0.668607    29A     -0.658941    30A     -0.629286
      31A     -0.616025    32A     -0.595723    33A     -0.587686
      34A     -0.580073    35A     -0.572070    36A     -0.537397
      37A     -0.517684    38A     -0.514035    39A     -0.493080
      40A     -0.480578    41A     -0.434774    42A     -0.391407
      43A     -0.338814    44A     -0.329311    45A     -0.323781

  @DF-RHF Final Energy:  -551.27119286603192

   => Energetics <=

    Nuclear Repulsion Energy =            709.7257329877043048
    One-Electron Energy =               -2156.4299132443215967
    Two-Electron Energy =                 895.4329873905853674
    Total Energy =                       -551.2711928660319245
  Basis Set: (AUG-CC-PVTZ AUX)
    Blend: AUG-CC-PVTZ-RI
    Molecular point group: c1

    Geometry (in Angstrom), charge = 0, multiplicity = 1:

       Center              X                  Y                   Z               Mass
    ------------   -----------------  -----------------  -----------------  -----------------
         O            0.080582653261    -1.267667319741     0.001625658903    15.994914619570
         N            1.087257653261     0.835029680259    -0.001245341097    14.003074004430
         C           -1.066711746739    -0.465297019741     0.000628158903    12.000000000000
         C           -1.759364346739    -0.305043319741    -1.215338341097    12.000000000000
         C           -1.758657346739    -0.300594319741     1.216231658903    12.000000000000
         C            1.210631653261    -0.487620319741     0.000594658903    12.000000000000
         C           -3.023315346739     0.286729680259    -1.209931341097    12.000000000000
         C           -3.022603346739     0.291164680259     1.209390658903    12.000000000000
         C           -3.655338346739     0.587487680259    -0.000633341097    12.000000000000
         C            2.431958653261    -1.176020319741     0.001580658903    12.000000000000
         C            3.594172653261    -0.418120319741     0.000556658903    12.000000000000
         C            3.497990653261     0.978821680259    -0.001384341097    12.000000000000
         C            2.231497653261     1.551288680259    -0.002209341097    12.000000000000
         H           -1.249903346739    -0.552245319741    -2.142605341097     1.007825032230
         H           -1.248663346739    -0.544394319741     2.144105658903     1.007825032230
         H           -3.514570346739     0.513369680259    -2.153043341097     1.007825032230
         H           -3.513306346739     0.521263680259     2.151952658903     1.007825032230
         H            2.441100653261    -2.261243319741     0.003089658903     1.007825032230
         H           -4.640409346739     1.046966680259    -0.001186341097     1.007825032230
         H            4.564851653261    -0.907771319741     0.001260658903     1.007825032230
         H            4.384539653261     1.605446680259    -0.002232341097     1.007825032230
         H            2.104625653261     2.632224680259    -0.003715341097     1.007825032230

  Basis Set: AUG-CC-PVTZ
    Blend: AUG-CC-PVTZ
  Basis Set: (AUG-CC-PVTZ AUX)
    Blend: AUG-CC-PVTZ-JKFIT
	 Reference Energy          =    -551.2711928660319245 [Eh]
	 Singles Energy            =      -0.0000000000000000 [Eh]
	 Same-Spin Energy          =      -0.6009400086254693 [Eh]
	 Opposite-Spin Energy      =      -1.8279601941281611 [Eh]
	 Correlation Energy        =      -2.4289002027536304 [Eh]
	 Total Energy              =    -553.7000930687855771 [Eh]

	 ================> DF-SCS-MP2 Energies <==================
	-----------------------------------------------------------
	 SCS Same-Spin Scale       =       0.3333333333333333 [-]
	 SCS Opposite-Spin Scale   =       1.2000000000000000 [-]
	 SCS Same-Spin Energy      =      -0.2003133362084897 [Eh]
	 SCS Opposite-Spin Energy  =      -2.1935522329537931 [Eh]
	 SCS Correlation Energy    =      -2.3938655691622830 [Eh]
	 SCS Total Energy          =    -553.6650584351941689 [Eh]
	-----------------------------------------------------------

  Dipole Moment: [D]
     X:     1.5824      Y:     0.2390      Z:    -0.0001     Total:     1.6003

*** Psi4 exiting successfully. Buy a developer a beer!
