                               Psi4 1.4a3.dev225

  ==> Input File <==

--------------------------------------------------------------------------
#psi4
#
memory 32 gb

molecule  {
0 1
  O        0.0894740    -1.2706490     0.0016280
  N        1.0961490     0.8320480    -0.0012430
  C       -1.0916612    -0.6168146     0.0008219
  C       -1.7504730    -0.3080250    -1.2153360
  C       -1.7497660    -0.3035760     1.2162340
  C        1.2195230    -0.4906020     0.0005970
  C       -3.0144240     0.2837480    -1.2099290
  C       -3.0137120     0.2881830     1.2093930
  C       -3.6464470     0.5845060    -0.0006310
  C        2.4408500    -1.1790020     0.0015830
  C        3.6030640    -0.4211020     0.0005590
  C        3.5068820     0.9758400    -0.0013820
  C        2.2403890     1.5483070    -0.0022070
  H       -1.2410120    -0.5552270    -2.1426030
  H       -1.2397720    -0.5473760     2.1441080
  H       -3.5056790     0.5103880    -2.1530410
  H       -3.5044150     0.5182820     2.1519550
  H        2.4499920    -2.2642250     0.0030920
  H       -4.6315180     1.0439850    -0.0011840
  H        4.5737430    -0.9107530     0.0012630
  H        4.3934310     1.6024650    -0.0022300
  H        2.1135170     2.6292430    -0.0037130
units angstrom
no_reorient  #important for SAPT in psi4, default
symmetry c1  #important for SAPT in psi4, default
}

set PROPERTIES_ORIGIN ["COM"]
properties('MP2/aug-cc-pvtz', properties = ['dipole'])
--------------------------------------------------------------------------

    Molecular point group: c1
  Charge       = 0
  Multiplicity = 1
  Basis Set: AUG-CC-PVTZ
    Blend: AUG-CC-PVTZ
  Basis Set: (AUG-CC-PVTZ AUX)
    Blend: AUG-CC-PVTZ-JKFIT

    Orbital Energies [Eh]
    ---------------------

    Doubly Occupied:

       1A    -20.606729     2A    -15.568816     3A    -11.349432
       4A    -11.298561     5A    -11.286533     6A    -11.269110
       7A    -11.244887     8A    -11.240617     9A    -11.236646
      10A    -11.236545    11A    -11.233136    12A    -11.233133
      13A    -11.230632    14A     -1.453031    15A     -1.259771
      16A     -1.140375    17A     -1.095988    18A     -1.044352
      19A     -1.011937    20A     -0.992898    21A     -0.883897
      22A     -0.865942    23A     -0.831569    24A     -0.805623
      25A     -0.744720    26A     -0.709202    27A     -0.679424
      28A     -0.672721    29A     -0.663637    30A     -0.629744
      31A     -0.617548    32A     -0.598561    33A     -0.583967
      34A     -0.580502    35A     -0.574809    36A     -0.539630
      37A     -0.520287    38A     -0.515380    39A     -0.489742
      40A     -0.474556    41A     -0.434870    42A     -0.392141
      43A     -0.337857    44A     -0.331713    45A     -0.320589

  @DF-RHF Final Energy:  -551.27968024202755

   => Energetics <=

    Nuclear Repulsion Energy =            709.2339734315927444
    One-Electron Energy =               -2155.3637890258328298
    Two-Electron Energy =                 894.8501353522124191
    Total Energy =                       -551.2796802420275526
  Basis Set: (AUG-CC-PVTZ AUX)
    Blend: AUG-CC-PVTZ-RI
    Molecular point group: c1

    Geometry (in Angstrom), charge = 0, multiplicity = 1:

       Center              X                  Y                   Z               Mass
    ------------   -----------------  -----------------  -----------------  -----------------
         O            0.082956496513    -1.257247916420     0.001612232696    15.994914619570
         N            1.089631496513     0.845449083580    -0.001258767304    14.003074004430
         C           -1.098178703487    -0.603413516420     0.000806132696    12.000000000000
         C           -1.756990503487    -0.294623916420    -1.215351767304    12.000000000000
         C           -1.756283503487    -0.290174916420     1.216218232696    12.000000000000
         C            1.213005496513    -0.477200916420     0.000581232696    12.000000000000
         C           -3.020941503487     0.297149083580    -1.209944767304    12.000000000000
         C           -3.020229503487     0.301584083580     1.209377232696    12.000000000000
         C           -3.652964503487     0.597907083580    -0.000646767304    12.000000000000
         C            2.434332496513    -1.165600916420     0.001567232696    12.000000000000
         C            3.596546496513    -0.407700916420     0.000543232696    12.000000000000
         C            3.500364496513     0.989241083580    -0.001397767304    12.000000000000
         C            2.233871496513     1.561708083580    -0.002222767304    12.000000000000
         H           -1.247529503487    -0.541825916420    -2.142618767304     1.007825032230
         H           -1.246289503487    -0.533974916420     2.144092232696     1.007825032230
         H           -3.512196503487     0.523789083580    -2.153056767304     1.007825032230
         H           -3.510932503487     0.531683083580     2.151939232696     1.007825032230
         H            2.443474496513    -2.250823916420     0.003076232696     1.007825032230
         H           -4.638035503487     1.057386083580    -0.001199767304     1.007825032230
         H            4.567225496513    -0.897351916420     0.001247232696     1.007825032230
         H            4.386913496513     1.615866083580    -0.002245767304     1.007825032230
         H            2.106999496513     2.642644083580    -0.003728767304     1.007825032230

  Basis Set: AUG-CC-PVTZ
    Blend: AUG-CC-PVTZ
  Basis Set: (AUG-CC-PVTZ AUX)
    Blend: AUG-CC-PVTZ-JKFIT
	 Reference Energy          =    -551.2796802420275526 [Eh]
	 Singles Energy            =      -0.0000000000000000 [Eh]
	 Same-Spin Energy          =      -0.5998796680293897 [Eh]
	 Opposite-Spin Energy      =      -1.8248472420298931 [Eh]
	 Correlation Energy        =      -2.4247269100592828 [Eh]
	 Total Energy              =    -553.7044071520867874 [Eh]

	 ================> DF-SCS-MP2 Energies <==================
	-----------------------------------------------------------
	 SCS Same-Spin Scale       =       0.3333333333333333 [-]
	 SCS Opposite-Spin Scale   =       1.2000000000000000 [-]
	 SCS Same-Spin Energy      =      -0.1999598893431299 [Eh]
	 SCS Opposite-Spin Energy  =      -2.1898166904358716 [Eh]
	 SCS Correlation Energy    =      -2.3897765797790016 [Eh]
	 SCS Total Energy          =    -553.6694568218065342 [Eh]
	-----------------------------------------------------------

  Dipole Moment: [D]
     X:     1.7802      Y:     0.1711      Z:    -0.0000     Total:     1.7884

*** Psi4 exiting successfully. Buy a developer a beer!
