                               Psi4 1.3.2 release

  ==> Input File <==

--------------------------------------------------------------------------
#psi4
#
memory 32 gb

molecule  {
0 1
  O        0.0894740    -1.2706490     0.0016280
  N        1.0961490     0.8320480    -0.0012430
  C       -1.1354060    -0.5925990     0.0007920
  C       -1.7504730    -0.3080250    -1.2153360
  C       -1.7497660    -0.3035760     1.2162340
  C        1.2102355    -0.3910343     0.0004585
  C       -3.0144240     0.2837480    -1.2099290
  C       -3.0137120     0.2881830     1.2093930
  C       -3.6464470     0.5845060    -0.0006310
  C        2.4408500    -1.1790020     0.0015830
  C        3.6030640    -0.4211020     0.0005590
  C        3.5068820     0.9758400    -0.0013820
  C        2.2403890     1.5483070    -0.0022070
  H       -1.2410120    -0.5552270    -2.1426030
  H       -1.2397720    -0.5473760     2.1441080
  H       -3.5056790     0.5103880    -2.1530410
  H       -3.5044150     0.5182820     2.1519550
  H        2.4499920    -2.2642250     0.0030920
  H       -4.6315180     1.0439850    -0.0011840
  H        4.5737430    -0.9107530     0.0012630
  H        4.3934310     1.6024650    -0.0022300
  H        2.1135170     2.6292430    -0.0037130
units angstrom
no_reorient  #important for SAPT in psi4, default
symmetry c1  #important for SAPT in psi4, default
}

set PROPERTIES_ORIGIN ["COM"]
properties('MP2/aug-cc-pvtz', properties = ['dipole'])
--------------------------------------------------------------------------

    Molecular point group: c1
  Charge       = 0
  Multiplicity = 1
  Basis Set: AUG-CC-PVTZ
    Blend: AUG-CC-PVTZ
  Basis Set: (AUG-CC-PVTZ AUX)
    Blend: AUG-CC-PVTZ-JKFIT

    Orbital Energies [Eh]
    ---------------------

    Doubly Occupied:

       1A    -20.592557     2A    -15.563735     3A    -11.342640
       4A    -11.290943     5A    -11.287213     6A    -11.265292
       7A    -11.250870     8A    -11.242829     9A    -11.237059
      10A    -11.236957    11A    -11.231037    12A    -11.231019
      13A    -11.230777    14A     -1.416264    15A     -1.289386
      16A     -1.144364    17A     -1.100788    18A     -1.034314
      19A     -1.015106    20A     -0.993949    21A     -0.882045
      22A     -0.860371    23A     -0.833348    24A     -0.801166
      25A     -0.734100    26A     -0.711378    27A     -0.678570
      28A     -0.665957    29A     -0.654229    30A     -0.627344
      31A     -0.610520    32A     -0.596912    33A     -0.591067
      34A     -0.582752    35A     -0.568386    36A     -0.543479
      37A     -0.518690    38A     -0.510586    39A     -0.491804
      40A     -0.479036    41A     -0.435405    42A     -0.402781
      43A     -0.336937    44A     -0.331406    45A     -0.325643

  @DF-RHF Final Energy:  -551.27071757122235

   => Energetics <=

    Nuclear Repulsion Energy =            709.7423501098269298
    One-Electron Energy =               -2156.4841185261871033
    Two-Electron Energy =                 895.4710508451378246
    Total Energy =                       -551.2707175712223489
  Basis Set: (AUG-CC-PVTZ AUX)
    Blend: AUG-CC-PVTZ-RI
    Molecular point group: c1

    Geometry (in Angstrom), charge = 0, multiplicity = 1:

       Center              X                  Y                   Z               Mass
    ------------   -----------------  -----------------  -----------------  -----------------
         O            0.086676573092    -1.265930989853     0.001624045514    15.994914619570
         N            1.093351573092     0.836766010147    -0.001246954486    14.003074004430
         C           -1.138203426908    -0.587880989853     0.000788045514    12.000000000000
         C           -1.753270426908    -0.303306989853    -1.215339954486    12.000000000000
         C           -1.752563426908    -0.298857989853     1.216230045514    12.000000000000
         C            1.207438073092    -0.386316289853     0.000454545514    12.000000000000
         C           -3.017221426908     0.288466010147    -1.209932954486    12.000000000000
         C           -3.016509426908     0.292901010147     1.209389045514    12.000000000000
         C           -3.649244426908     0.589224010147    -0.000634954486    12.000000000000
         C            2.438052573092    -1.174283989853     0.001579045514    12.000000000000
         C            3.600266573092    -0.416383989853     0.000555045514    12.000000000000
         C            3.504084573092     0.980558010147    -0.001385954486    12.000000000000
         C            2.237591573092     1.553025010147    -0.002210954486    12.000000000000
         H           -1.243809426908    -0.550508989853    -2.142606954486     1.007825032230
         H           -1.242569426908    -0.542657989853     2.144104045514     1.007825032230
         H           -3.508476426908     0.515106010147    -2.153044954486     1.007825032230
         H           -3.507212426908     0.523000010147     2.151951045514     1.007825032230
         H            2.447194573092    -2.259506989853     0.003088045514     1.007825032230
         H           -4.634315426908     1.048703010147    -0.001187954486     1.007825032230
         H            4.570945573092    -0.906034989853     0.001259045514     1.007825032230
         H            4.390633573092     1.607183010147    -0.002233954486     1.007825032230
         H            2.110719573092     2.633961010147    -0.003716954486     1.007825032230

  Basis Set: AUG-CC-PVTZ
    Blend: AUG-CC-PVTZ
  Basis Set: (AUG-CC-PVTZ AUX)
    Blend: AUG-CC-PVTZ-JKFIT
	 Reference Energy          =    -551.2707175712223489 [Eh]
	 Singles Energy            =      -0.0000000000000000 [Eh]
	 Same-Spin Energy          =      -0.5986941940656056 [Eh]
	 Opposite-Spin Energy      =      -1.8245419568312502 [Eh]
	 Correlation Energy        =      -2.4232361508968561 [Eh]
	 Total Energy              =    -553.6939537221192040 [Eh]

	 ================> DF-SCS-MP2 Energies <==================
	-----------------------------------------------------------
	 SCS Same-Spin Scale       =       0.3333333333333333 [-]
	 SCS Opposite-Spin Scale   =       1.2000000000000000 [-]
	 SCS Same-Spin Energy      =      -0.1995647313552019 [Eh]
	 SCS Opposite-Spin Energy  =      -2.1894503481975001 [Eh]
	 SCS Correlation Energy    =      -2.3890150795527019 [Eh]
	 SCS Total Energy          =    -553.6597326507750267 [Eh]
	-----------------------------------------------------------

  Dipole Moment: [D]
     X:     1.7550      Y:     0.4170      Z:    -0.0004     Total:     1.8039

*** Psi4 exiting successfully. Buy a developer a beer!
