                               Psi4 1.3.2 release

  ==> Input File <==

--------------------------------------------------------------------------
#psi4
#
memory 32 gb

molecule  {
0 1
  O        0.1466401    -1.3475770     0.0017373
  N        1.0961490     0.8320480    -0.0012430
  C       -1.1354060    -0.5925990     0.0007920
  C       -1.7504730    -0.3080250    -1.2153360
  C       -1.7497660    -0.3035760     1.2162340
  C        1.2195230    -0.4906020     0.0005970
  C       -3.0144240     0.2837480    -1.2099290
  C       -3.0137120     0.2881830     1.2093930
  C       -3.6464470     0.5845060    -0.0006310
  C        2.4408500    -1.1790020     0.0015830
  C        3.6030640    -0.4211020     0.0005590
  C        3.5068820     0.9758400    -0.0013820
  C        2.2403890     1.5483070    -0.0022070
  H       -1.2410120    -0.5552270    -2.1426030
  H       -1.2397720    -0.5473760     2.1441080
  H       -3.5056790     0.5103880    -2.1530410
  H       -3.5044150     0.5182820     2.1519550
  H        2.4499920    -2.2642250     0.0030920
  H       -4.6315180     1.0439850    -0.0011840
  H        4.5737430    -0.9107530     0.0012630
  H        4.3934310     1.6024650    -0.0022300
  H        2.1135170     2.6292430    -0.0037130
units angstrom
no_reorient  #important for SAPT in psi4, default
symmetry c1  #important for SAPT in psi4, default
}

set PROPERTIES_ORIGIN ["COM"]
properties('MP2/aug-cc-pvtz', properties = ['dipole'])
--------------------------------------------------------------------------

    Molecular point group: c1
  Charge       = 0
  Multiplicity = 1
  Basis Set: AUG-CC-PVTZ
    Blend: AUG-CC-PVTZ
  Basis Set: (AUG-CC-PVTZ AUX)
    Blend: AUG-CC-PVTZ-JKFIT

    Orbital Energies [Eh]
    ---------------------

    Doubly Occupied:

       1A    -20.603760     2A    -15.564612     3A    -11.341141
       4A    -11.303692     5A    -11.282480     6A    -11.262987
       7A    -11.242389     8A    -11.242272     9A    -11.239693
      10A    -11.239689    11A    -11.237246    12A    -11.236531
      13A    -11.235362    14A     -1.413426    15A     -1.251569
      16A     -1.152435    17A     -1.090371    18A     -1.033870
      19A     -1.020755    20A     -0.999454    21A     -0.874502
      22A     -0.851731    23A     -0.836756    24A     -0.806951
      25A     -0.730397    26A     -0.704432    27A     -0.679903
      28A     -0.663794    29A     -0.653024    30A     -0.628865
      31A     -0.610869    32A     -0.595105    33A     -0.590395
      34A     -0.582558    35A     -0.564421    36A     -0.534755
      37A     -0.515373    38A     -0.512450    39A     -0.501950
      40A     -0.488953    41A     -0.428941    42A     -0.387837
      43A     -0.341346    44A     -0.334444    45A     -0.327692

  @DF-RHF Final Energy:  -551.27193642528493

   => Energetics <=

    Nuclear Repulsion Energy =            706.9213741658239769
    One-Electron Energy =               -2150.9042652752345930
    Two-Electron Energy =                 892.7109546841255678
    Total Energy =                       -551.2719364252849346
  Basis Set: (AUG-CC-PVTZ AUX)
    Blend: AUG-CC-PVTZ-RI
    Molecular point group: c1

    Geometry (in Angstrom), charge = 0, multiplicity = 1:

       Center              X                  Y                   Z               Mass
    ------------   -----------------  -----------------  -----------------  -----------------
         O            0.137846143018    -1.328681801111     0.001713410541    15.994914619570
         N            1.087355043018     0.850943198889    -0.001266889459    14.003074004430
         C           -1.144199956982    -0.573703801111     0.000768110541    12.000000000000
         C           -1.759266956982    -0.289129801111    -1.215359889459    12.000000000000
         C           -1.758559956982    -0.284680801111     1.216210110541    12.000000000000
         C            1.210729043018    -0.471706801111     0.000573110541    12.000000000000
         C           -3.023217956982     0.302643198889    -1.209952889459    12.000000000000
         C           -3.022505956982     0.307078198889     1.209369110541    12.000000000000
         C           -3.655240956982     0.603401198889    -0.000654889459    12.000000000000
         C            2.432056043018    -1.160106801111     0.001559110541    12.000000000000
         C            3.594270043018    -0.402206801111     0.000535110541    12.000000000000
         C            3.498088043018     0.994735198889    -0.001405889459    12.000000000000
         C            2.231595043018     1.567202198889    -0.002230889459    12.000000000000
         H           -1.249805956982    -0.536331801111    -2.142626889459     1.007825032230
         H           -1.248565956982    -0.528480801111     2.144084110541     1.007825032230
         H           -3.514472956982     0.529283198889    -2.153064889459     1.007825032230
         H           -3.513208956982     0.537177198889     2.151931110541     1.007825032230
         H            2.441198043018    -2.245329801111     0.003068110541     1.007825032230
         H           -4.640311956982     1.062880198889    -0.001207889459     1.007825032230
         H            4.564949043018    -0.891857801111     0.001239110541     1.007825032230
         H            4.384637043018     1.621360198889    -0.002253889459     1.007825032230
         H            2.104723043018     2.648138198889    -0.003736889459     1.007825032230

  Basis Set: AUG-CC-PVTZ
    Blend: AUG-CC-PVTZ
  Basis Set: (AUG-CC-PVTZ AUX)
    Blend: AUG-CC-PVTZ-JKFIT
	 Reference Energy          =    -551.2719364252849346 [Eh]
	 Singles Energy            =      -0.0000000000000000 [Eh]
	 Same-Spin Energy          =      -0.6003785059716408 [Eh]
	 Opposite-Spin Energy      =      -1.8278981881849750 [Eh]
	 Correlation Energy        =      -2.4282766941566156 [Eh]
	 Total Energy              =    -553.7002131194415142 [Eh]

	 ================> DF-SCS-MP2 Energies <==================
	-----------------------------------------------------------
	 SCS Same-Spin Scale       =       0.3333333333333333 [-]
	 SCS Opposite-Spin Scale   =       1.2000000000000000 [-]
	 SCS Same-Spin Energy      =      -0.2001261686572136 [Eh]
	 SCS Opposite-Spin Energy  =      -2.1934778258219700 [Eh]
	 SCS Correlation Energy    =      -2.3936039944791836 [Eh]
	 SCS Total Energy          =    -553.6655404197641701 [Eh]
	-----------------------------------------------------------

  Dipole Moment: [D]
     X:     0.9638      Y:     0.3311      Z:    -0.0002     Total:     1.0191

*** Psi4 exiting successfully. Buy a developer a beer!
