                               Psi4 1.4a3.dev225

  ==> Input File <==

--------------------------------------------------------------------------
#psi4
#
memory 32 gb

molecule  {
0 1
  O        0.0894740    -1.2706490     0.0016280
  N        1.0961490     0.8320480    -0.0012430
  C       -1.1354060    -0.5925990     0.0007920
  C       -1.7283835    -0.3182452    -1.1716599
  C       -1.7497660    -0.3035760     1.2162340
  C        1.2195230    -0.4906020     0.0005970
  C       -3.0144240     0.2837480    -1.2099290
  C       -3.0137120     0.2881830     1.2093930
  C       -3.6464470     0.5845060    -0.0006310
  C        2.4408500    -1.1790020     0.0015830
  C        3.6030640    -0.4211020     0.0005590
  C        3.5068820     0.9758400    -0.0013820
  C        2.2403890     1.5483070    -0.0022070
  H       -1.2410120    -0.5552270    -2.1426030
  H       -1.2397720    -0.5473760     2.1441080
  H       -3.5056790     0.5103880    -2.1530410
  H       -3.5044150     0.5182820     2.1519550
  H        2.4499920    -2.2642250     0.0030920
  H       -4.6315180     1.0439850    -0.0011840
  H        4.5737430    -0.9107530     0.0012630
  H        4.3934310     1.6024650    -0.0022300
  H        2.1135170     2.6292430    -0.0037130
units angstrom
no_reorient  #important for SAPT in psi4, default
symmetry c1  #important for SAPT in psi4, default
}

set PROPERTIES_ORIGIN ["COM"]
properties('MP2/aug-cc-pvtz', properties = ['dipole'])
--------------------------------------------------------------------------

    Molecular point group: c1
  Charge       = 0
  Multiplicity = 1
  Basis Set: AUG-CC-PVTZ
    Blend: AUG-CC-PVTZ
  Basis Set: (AUG-CC-PVTZ AUX)
    Blend: AUG-CC-PVTZ-JKFIT

    Orbital Energies [Eh]
    ---------------------

    Doubly Occupied:

       1A    -20.599454     2A    -15.565447     3A    -11.345223
       4A    -11.290345     5A    -11.284069     6A    -11.266572
       7A    -11.241547     8A    -11.241360     9A    -11.238459
      10A    -11.237708    11A    -11.234576    12A    -11.233353
      13A    -11.232302    14A     -1.432964    15A     -1.255382
      16A     -1.150737    17A     -1.093103    18A     -1.041643
      19A     -1.014463    20A     -1.000102    21A     -0.877839
      22A     -0.859949    23A     -0.839475    24A     -0.804515
      25A     -0.740710    26A     -0.705976    27A     -0.677311
      28A     -0.668141    29A     -0.659519    30A     -0.628188
      31A     -0.615358    32A     -0.596372    33A     -0.590288
      34A     -0.576195    35A     -0.570139    36A     -0.536375
      37A     -0.517869    38A     -0.508217    39A     -0.496924
      40A     -0.486367    41A     -0.432023    42A     -0.389644
      43A     -0.338061    44A     -0.332750    45A     -0.328948

  @DF-RHF Final Energy:  -551.27994897148244

   => Energetics <=

    Nuclear Repulsion Energy =            709.9103832131775107
    One-Electron Energy =               -2156.8287400157914817
    Two-Electron Energy =                 895.6384078311315307
    Total Energy =                       -551.2799489714824404
  Basis Set: (AUG-CC-PVTZ AUX)
    Blend: AUG-CC-PVTZ-RI
    Molecular point group: c1

    Geometry (in Angstrom), charge = 0, multiplicity = 1:

       Center              X                  Y                   Z               Mass
    ------------   -----------------  -----------------  -----------------  -----------------
         O            0.084475558940    -1.258229656977    -0.001449433617    15.994914619570
         N            1.091150558940     0.844467343023    -0.004320433617    14.003074004430
         C           -1.140404441060    -0.580179656977    -0.002285433617    12.000000000000
         C           -1.733381941060    -0.305825856977    -1.174737333617    12.000000000000
         C           -1.754764441060    -0.291156656977     1.213156566383    12.000000000000
         C            1.214524558940    -0.478182656977    -0.002480433617    12.000000000000
         C           -3.019422441060     0.296167343023    -1.213006433617    12.000000000000
         C           -3.018710441060     0.300602343023     1.206315566383    12.000000000000
         C           -3.651445441060     0.596925343023    -0.003708433617    12.000000000000
         C            2.435851558940    -1.166582656977    -0.001494433617    12.000000000000
         C            3.598065558940    -0.408682656977    -0.002518433617    12.000000000000
         C            3.501883558940     0.988259343023    -0.004459433617    12.000000000000
         C            2.235390558940     1.560726343023    -0.005284433617    12.000000000000
         H           -1.246010441060    -0.542807656977    -2.145680433617     1.007825032230
         H           -1.244770441060    -0.534956656977     2.141030566383     1.007825032230
         H           -3.510677441060     0.522807343023    -2.156118433617     1.007825032230
         H           -3.509413441060     0.530701343023     2.148877566383     1.007825032230
         H            2.444993558940    -2.251805656977     0.000014566383     1.007825032230
         H           -4.636516441060     1.056404343023    -0.004261433617     1.007825032230
         H            4.568744558940    -0.898333656977    -0.001814433617     1.007825032230
         H            4.388432558940     1.614884343023    -0.005307433617     1.007825032230
         H            2.108518558940     2.641662343023    -0.006790433617     1.007825032230

  Basis Set: AUG-CC-PVTZ
    Blend: AUG-CC-PVTZ
  Basis Set: (AUG-CC-PVTZ AUX)
    Blend: AUG-CC-PVTZ-JKFIT
	 Reference Energy          =    -551.2799489714824404 [Eh]
	 Singles Energy            =      -0.0000000000000000 [Eh]
	 Same-Spin Energy          =      -0.5995360876886733 [Eh]
	 Opposite-Spin Energy      =      -1.8247091529245669 [Eh]
	 Correlation Energy        =      -2.4242452406132404 [Eh]
	 Total Energy              =    -553.7041942120956719 [Eh]

	 ================> DF-SCS-MP2 Energies <==================
	-----------------------------------------------------------
	 SCS Same-Spin Scale       =       0.3333333333333333 [-]
	 SCS Opposite-Spin Scale   =       1.2000000000000000 [-]
	 SCS Same-Spin Energy      =      -0.1998453625628911 [Eh]
	 SCS Opposite-Spin Energy  =      -2.1896509835094804 [Eh]
	 SCS Correlation Energy    =      -2.3894963460723715 [Eh]
	 SCS Total Energy          =    -553.6694453175548460 [Eh]
	-----------------------------------------------------------

  Dipole Moment: [D]
     X:     1.3577      Y:     0.2304      Z:    -0.0083     Total:     1.3771

*** Psi4 exiting successfully. Buy a developer a beer!
