                               Psi4 1.3.2 release

  ==> Input File <==

--------------------------------------------------------------------------
#psi4
#
memory 32 gb

molecule  {
0 1
  O        0.0894740    -1.2706490     0.0016280
  N        1.0961490     0.8320480    -0.0012430
  C       -1.1354060    -0.5925990     0.0007920
  C       -1.7504730    -0.3080250    -1.2153360
  C       -1.7497660    -0.3035760     1.2162340
  C        1.2195230    -0.4906020     0.0005970
  C       -3.0144240     0.2837480    -1.2099290
  C       -3.0137120     0.2881830     1.2093930
  C       -3.6464470     0.5845060    -0.0006310
  C        2.4408500    -1.1790020     0.0015830
  C        3.6030640    -0.4211020     0.0005590
  C        3.5068820     0.9758400    -0.0013820
  C        2.2403890     1.5483070    -0.0022070
  H       -1.2410120    -0.5552270    -2.1426030
  H       -1.2397720    -0.5473760     2.1441080
  H       -3.5056790     0.5103880    -2.1530410
  H       -3.5044150     0.5182820     2.1519550
  H        2.4499920    -2.2642250     0.0030920
  H       -4.6315180     1.0439850    -0.0011840
  H        4.5737430    -0.9107530     0.0012630
  H        4.3934310     1.6024650    -0.0022300
  H        2.1135170     2.6292430    -0.0037130
units angstrom
no_reorient  #important for SAPT in psi4, default
symmetry c1  #important for SAPT in psi4, default
}

set PROPERTIES_ORIGIN ["COM"]
properties('MP2/aug-cc-pvtz', properties = ['dipole'])
--------------------------------------------------------------------------

    Molecular point group: c1
  Charge       = 0
  Multiplicity = 1
  Basis Set: AUG-CC-PVTZ
    Blend: AUG-CC-PVTZ
  Basis Set: (AUG-CC-PVTZ AUX)
    Blend: AUG-CC-PVTZ-JKFIT

    Orbital Energies [Eh]
    ---------------------

    Doubly Occupied:

       1A    -20.600651     2A    -15.565721     3A    -11.345629
       4A    -11.296471     5A    -11.284295     6A    -11.266834
       7A    -11.241888     8A    -11.238845     9A    -11.238739
      10A    -11.237984    11A    -11.233797    12A    -11.233791
      13A    -11.232852    14A     -1.433294    15A     -1.255548
      16A     -1.147899    17A     -1.093383    18A     -1.040274
      19A     -1.017264    20A     -0.996407    21A     -0.878568
      22A     -0.860606    23A     -0.835949    24A     -0.805695
      25A     -0.739849    26A     -0.706083    27A     -0.679429
      28A     -0.668804    29A     -0.658845    30A     -0.628230
      31A     -0.614675    32A     -0.594901    33A     -0.591323
      34A     -0.580008    35A     -0.570008    36A     -0.536517
      37A     -0.517386    38A     -0.513841    39A     -0.495446
      40A     -0.483265    41A     -0.432302    42A     -0.389886
      43A     -0.338664    44A     -0.330683    45A     -0.327869

  @DF-RHF Final Energy:  -551.28268221861572

   => Energetics <=

    Nuclear Repulsion Energy =            709.0783154721885921
    One-Electron Energy =               -2155.1611959083384136
    Two-Electron Energy =                 894.8001982175342164
    Total Energy =                       -551.2826822186157187
  Basis Set: (AUG-CC-PVTZ AUX)
    Blend: AUG-CC-PVTZ-RI
    Molecular point group: c1

    Geometry (in Angstrom), charge = 0, multiplicity = 1:

       Center              X                  Y                   Z               Mass
    ------------   -----------------  -----------------  -----------------  -----------------
         O            0.086025079356    -1.258946577169     0.001614330102    15.994914619570
         N            1.092700079356     0.843750422831    -0.001256669898    14.003074004430
         C           -1.138854920644    -0.580896577169     0.000778330102    12.000000000000
         C           -1.753921920644    -0.296322577169    -1.215349669898    12.000000000000
         C           -1.753214920644    -0.291873577169     1.216220330102    12.000000000000
         C            1.216074079356    -0.478899577169     0.000583330102    12.000000000000
         C           -3.017872920644     0.295450422831    -1.209942669898    12.000000000000
         C           -3.017160920644     0.299885422831     1.209379330102    12.000000000000
         C           -3.649895920644     0.596208422831    -0.000644669898    12.000000000000
         C            2.437401079356    -1.167299577169     0.001569330102    12.000000000000
         C            3.599615079356    -0.409399577169     0.000545330102    12.000000000000
         C            3.503433079356     0.987542422831    -0.001395669898    12.000000000000
         C            2.236940079356     1.560009422831    -0.002220669898    12.000000000000
         H           -1.244460920644    -0.543524577169    -2.142616669898     1.007825032230
         H           -1.243220920644    -0.535673577169     2.144094330102     1.007825032230
         H           -3.509127920644     0.522090422831    -2.153054669898     1.007825032230
         H           -3.507863920644     0.529984422831     2.151941330102     1.007825032230
         H            2.446543079356    -2.252522577169     0.003078330102     1.007825032230
         H           -4.634966920644     1.055687422831    -0.001197669898     1.007825032230
         H            4.570294079356    -0.899050577169     0.001249330102     1.007825032230
         H            4.389982079356     1.614167422831    -0.002243669898     1.007825032230
         H            2.110068079356     2.640945422831    -0.003726669898     1.007825032230

  Basis Set: AUG-CC-PVTZ
    Blend: AUG-CC-PVTZ
  Basis Set: (AUG-CC-PVTZ AUX)
    Blend: AUG-CC-PVTZ-JKFIT
	 Reference Energy          =    -551.2826822186157187 [Eh]
	 Singles Energy            =      -0.0000000000000000 [Eh]
	 Same-Spin Energy          =      -0.5996150380348471 [Eh]
	 Opposite-Spin Energy      =      -1.8247740158301669 [Eh]
	 Correlation Energy        =      -2.4243890538650139 [Eh]
	 Total Energy              =    -553.7070712724807890 [Eh]

	 ================> DF-SCS-MP2 Energies <==================
	-----------------------------------------------------------
	 SCS Same-Spin Scale       =       0.3333333333333333 [-]
	 SCS Opposite-Spin Scale   =       1.2000000000000000 [-]
	 SCS Same-Spin Energy      =      -0.1998716793449490 [Eh]
	 SCS Opposite-Spin Energy  =      -2.1897288189962003 [Eh]
	 SCS Correlation Energy    =      -2.3896004983411494 [Eh]
	 SCS Total Energy          =    -553.6722827169568291 [Eh]
	-----------------------------------------------------------

  Dipole Moment: [D]
     X:     1.4116      Y:     0.2165      Z:    -0.0001     Total:     1.4281

*** Psi4 exiting successfully. Buy a developer a beer!
