                               Psi4 1.3.2 release

  ==> Input File <==

--------------------------------------------------------------------------
#psi4
#
memory 32 gb

molecule  {
0 1
  O        0.0894740    -1.2706490     0.0016280
  N        1.0961490     0.8320480    -0.0012430
  C       -1.2228956    -0.5441679     0.0007323
  C       -1.7504730    -0.3080250    -1.2153360
  C       -1.7497660    -0.3035760     1.2162340
  C        1.2195230    -0.4906020     0.0005970
  C       -3.0144240     0.2837480    -1.2099290
  C       -3.0137120     0.2881830     1.2093930
  C       -3.6464470     0.5845060    -0.0006310
  C        2.4408500    -1.1790020     0.0015830
  C        3.6030640    -0.4211020     0.0005590
  C        3.5068820     0.9758400    -0.0013820
  C        2.2403890     1.5483070    -0.0022070
  H       -1.2410120    -0.5552270    -2.1426030
  H       -1.2397720    -0.5473760     2.1441080
  H       -3.5056790     0.5103880    -2.1530410
  H       -3.5044150     0.5182820     2.1519550
  H        2.4499920    -2.2642250     0.0030920
  H       -4.6315180     1.0439850    -0.0011840
  H        4.5737430    -0.9107530     0.0012630
  H        4.3934310     1.6024650    -0.0022300
  H        2.1135170     2.6292430    -0.0037130
units angstrom
no_reorient  #important for SAPT in psi4, default
symmetry c1  #important for SAPT in psi4, default
}

set PROPERTIES_ORIGIN ["COM"]
properties('MP2/aug-cc-pvtz', properties = ['dipole'])
--------------------------------------------------------------------------

    Molecular point group: c1
  Charge       = 0
  Multiplicity = 1
  Basis Set: AUG-CC-PVTZ
    Blend: AUG-CC-PVTZ
  Basis Set: (AUG-CC-PVTZ AUX)
    Blend: AUG-CC-PVTZ-JKFIT

    Orbital Energies [Eh]
    ---------------------

    Doubly Occupied:

       1A    -20.587264     2A    -15.559763     3A    -11.338149
       4A    -11.294937     5A    -11.279924     6A    -11.262318
       7A    -11.243653     8A    -11.243559     9A    -11.236831
      10A    -11.236030    11A    -11.235232    12A    -11.235198
      13A    -11.232886    14A     -1.400512    15A     -1.247455
      16A     -1.164281    17A     -1.088286    18A     -1.034770
      19A     -1.029446    20A     -1.000997    21A     -0.870084
      22A     -0.850264    23A     -0.845346    24A     -0.807027
      25A     -0.731274    26A     -0.702582    27A     -0.676676
      28A     -0.660733    29A     -0.655223    30A     -0.628438
      31A     -0.608989    32A     -0.606111    33A     -0.586948
      34A     -0.577152    35A     -0.561116    36A     -0.531115
      37A     -0.517146    38A     -0.510863    39A     -0.500829
      40A     -0.490787    41A     -0.427084    42A     -0.385473
      43A     -0.344016    44A     -0.340819    45A     -0.325103

  @DF-RHF Final Energy:  -551.27128687415893

   => Energetics <=

    Nuclear Repulsion Energy =            708.9203065118250606
    One-Electron Energy =               -2154.9978074232317340
    Two-Electron Energy =                 894.8062140372478552
    Total Energy =                       -551.2712868741589318
  Basis Set: (AUG-CC-PVTZ AUX)
    Blend: AUG-CC-PVTZ-RI
    Molecular point group: c1

    Geometry (in Angstrom), charge = 0, multiplicity = 1:

       Center              X                  Y                   Z               Mass
    ------------   -----------------  -----------------  -----------------  -----------------
         O            0.092162245043    -1.262343891651     0.001618517901    15.994914619570
         N            1.098837245043     0.840353108349    -0.001252482099    14.003074004430
         C           -1.220207354957    -0.535862791651     0.000722817901    12.000000000000
         C           -1.747784754957    -0.299719891651    -1.215345482099    12.000000000000
         C           -1.747077754957    -0.295270891651     1.216224517901    12.000000000000
         C            1.222211245043    -0.482296891651     0.000587517901    12.000000000000
         C           -3.011735754957     0.292053108349    -1.209938482099    12.000000000000
         C           -3.011023754957     0.296488108349     1.209383517901    12.000000000000
         C           -3.643758754957     0.592811108349    -0.000640482099    12.000000000000
         C            2.443538245043    -1.170696891651     0.001573517901    12.000000000000
         C            3.605752245043    -0.412796891651     0.000549517901    12.000000000000
         C            3.509570245043     0.984145108349    -0.001391482099    12.000000000000
         C            2.243077245043     1.556612108349    -0.002216482099    12.000000000000
         H           -1.238323754957    -0.546921891651    -2.142612482099     1.007825032230
         H           -1.237083754957    -0.539070891651     2.144098517901     1.007825032230
         H           -3.502990754957     0.518693108349    -2.153050482099     1.007825032230
         H           -3.501726754957     0.526587108349     2.151945517901     1.007825032230
         H            2.452680245043    -2.255919891651     0.003082517901     1.007825032230
         H           -4.628829754957     1.052290108349    -0.001193482099     1.007825032230
         H            4.576431245043    -0.902447891651     0.001253517901     1.007825032230
         H            4.396119245043     1.610770108349    -0.002239482099     1.007825032230
         H            2.116205245043     2.637548108349    -0.003722482099     1.007825032230

  Basis Set: AUG-CC-PVTZ
    Blend: AUG-CC-PVTZ
  Basis Set: (AUG-CC-PVTZ AUX)
    Blend: AUG-CC-PVTZ-JKFIT
	 Reference Energy          =    -551.2712868741589318 [Eh]
	 Singles Energy            =      -0.0000000000000000 [Eh]
	 Same-Spin Energy          =      -0.5998782977683501 [Eh]
	 Opposite-Spin Energy      =      -1.8258322294538276 [Eh]
	 Correlation Energy        =      -2.4257105272221775 [Eh]
	 Total Energy              =    -553.6969974013810543 [Eh]

	 ================> DF-SCS-MP2 Energies <==================
	-----------------------------------------------------------
	 SCS Same-Spin Scale       =       0.3333333333333333 [-]
	 SCS Opposite-Spin Scale   =       1.2000000000000000 [-]
	 SCS Same-Spin Energy      =      -0.1999594325894500 [Eh]
	 SCS Opposite-Spin Energy  =      -2.1909986753445931 [Eh]
	 SCS Correlation Energy    =      -2.3909581079340434 [Eh]
	 SCS Total Energy          =    -553.6622449820929432 [Eh]
	-----------------------------------------------------------

  Dipole Moment: [D]
     X:     0.7118      Y:     0.2971      Z:    -0.0002     Total:     0.7714

*** Psi4 exiting successfully. Buy a developer a beer!
