                               Psi4 1.3.2 release

  ==> Input File <==

--------------------------------------------------------------------------
#psi4
#
memory 32 gb

molecule  {
0 1
  O        0.0894740    -1.2706490     0.0016280
  N        1.0961490     0.8320480    -0.0012430
  C       -1.0973677    -0.6104758    -0.0236002
  C       -1.7504730    -0.3080250    -1.2153360
  C       -1.7497660    -0.3035760     1.2162340
  C        1.2195230    -0.4906020     0.0005970
  C       -3.0144240     0.2837480    -1.2099290
  C       -3.0137120     0.2881830     1.2093930
  C       -3.6464470     0.5845060    -0.0006310
  C        2.4408500    -1.1790020     0.0015830
  C        3.6030640    -0.4211020     0.0005590
  C        3.5068820     0.9758400    -0.0013820
  C        2.2403890     1.5483070    -0.0022070
  H       -1.2410120    -0.5552270    -2.1426030
  H       -1.2397720    -0.5473760     2.1441080
  H       -3.5056790     0.5103880    -2.1530410
  H       -3.5044150     0.5182820     2.1519550
  H        2.4499920    -2.2642250     0.0030920
  H       -4.6315180     1.0439850    -0.0011840
  H        4.5737430    -0.9107530     0.0012630
  H        4.3934310     1.6024650    -0.0022300
  H        2.1135170     2.6292430    -0.0037130
units angstrom
no_reorient  #important for SAPT in psi4, default
symmetry c1  #important for SAPT in psi4, default
}

set PROPERTIES_ORIGIN ["COM"]
properties('MP2/aug-cc-pvtz', properties = ['dipole'])
--------------------------------------------------------------------------

    Molecular point group: c1
  Charge       = 0
  Multiplicity = 1
  Basis Set: AUG-CC-PVTZ
    Blend: AUG-CC-PVTZ
  Basis Set: (AUG-CC-PVTZ AUX)
    Blend: AUG-CC-PVTZ-JKFIT

    Orbital Energies [Eh]
    ---------------------

    Doubly Occupied:

       1A    -20.605860     2A    -15.568326     3A    -11.348783
       4A    -11.298083     5A    -11.286185     6A    -11.268749
       7A    -11.244397     8A    -11.240200     9A    -11.237184
      10A    -11.236746    11A    -11.235043    12A    -11.231213
      13A    -11.230999    14A     -1.449706    15A     -1.259087
      16A     -1.141622    17A     -1.095578    18A     -1.043656
      19A     -1.013100    20A     -0.993223    21A     -0.882970
      22A     -0.865050    23A     -0.832407    24A     -0.805402
      25A     -0.743863    26A     -0.708694    27A     -0.679570
      28A     -0.672139    29A     -0.662603    30A     -0.629418
      31A     -0.617053    32A     -0.598359    33A     -0.584895
      34A     -0.580488    35A     -0.573931    36A     -0.539129
      37A     -0.519759    38A     -0.515293    39A     -0.490717
      40A     -0.475762    41A     -0.434466    42A     -0.391796
      43A     -0.338205    44A     -0.332074    45A     -0.321198

  @DF-RHF Final Energy:  -551.27989173483866

   => Energetics <=

    Nuclear Repulsion Energy =            709.2233531177864734
    One-Electron Energy =               -2155.3605290222135409
    Two-Electron Energy =                 894.8572841695884108
    Total Energy =                       -551.2798917348386567
  Basis Set: (AUG-CC-PVTZ AUX)
    Blend: AUG-CC-PVTZ-RI
    Molecular point group: c1

    Geometry (in Angstrom), charge = 0, multiplicity = 1:

       Center              X                  Y                   Z               Mass
    ------------   -----------------  -----------------  -----------------  -----------------
         O            0.083356792502    -1.257692566594     0.003325378877    15.994914619570
         N            1.090031792502     0.845004433406     0.000454378877    14.003074004430
         C           -1.103484907498    -0.597519366594    -0.021902821123    12.000000000000
         C           -1.756590207498    -0.295068566594    -1.213638621123    12.000000000000
         C           -1.755883207498    -0.290619566594     1.217931378877    12.000000000000
         C            1.213405792502    -0.477645566594     0.002294378877    12.000000000000
         C           -3.020541207498     0.296704433406    -1.208231621123    12.000000000000
         C           -3.019829207498     0.301139433406     1.211090378877    12.000000000000
         C           -3.652564207498     0.597462433406     0.001066378877    12.000000000000
         C            2.434732792502    -1.166045566594     0.003280378877    12.000000000000
         C            3.596946792502    -0.408145566594     0.002256378877    12.000000000000
         C            3.500764792502     0.988796433406     0.000315378877    12.000000000000
         C            2.234271792502     1.561263433406    -0.000509621123    12.000000000000
         H           -1.247129207498    -0.542270566594    -2.140905621123     1.007825032230
         H           -1.245889207498    -0.534419566594     2.145805378877     1.007825032230
         H           -3.511796207498     0.523344433406    -2.151343621123     1.007825032230
         H           -3.510532207498     0.531238433406     2.153652378877     1.007825032230
         H            2.443874792502    -2.251268566594     0.004789378877     1.007825032230
         H           -4.637635207498     1.056941433406     0.000513378877     1.007825032230
         H            4.567625792502    -0.897796566594     0.002960378877     1.007825032230
         H            4.387313792502     1.615421433406    -0.000532621123     1.007825032230
         H            2.107399792502     2.642199433406    -0.002015621123     1.007825032230

  Basis Set: AUG-CC-PVTZ
    Blend: AUG-CC-PVTZ
  Basis Set: (AUG-CC-PVTZ AUX)
    Blend: AUG-CC-PVTZ-JKFIT
	 Reference Energy          =    -551.2798917348386567 [Eh]
	 Singles Energy            =      -0.0000000000000000 [Eh]
	 Same-Spin Energy          =      -0.5998038599706980 [Eh]
	 Opposite-Spin Energy      =      -1.8248658435016343 [Eh]
	 Correlation Energy        =      -2.4246697034723321 [Eh]
	 Total Energy              =    -553.7045614383109751 [Eh]

	 ================> DF-SCS-MP2 Energies <==================
	-----------------------------------------------------------
	 SCS Same-Spin Scale       =       0.3333333333333333 [-]
	 SCS Opposite-Spin Scale   =       1.2000000000000000 [-]
	 SCS Same-Spin Energy      =      -0.1999346199902327 [Eh]
	 SCS Opposite-Spin Energy  =      -2.1898390122019609 [Eh]
	 SCS Correlation Energy    =      -2.3897736321921936 [Eh]
	 SCS Total Energy          =    -553.6696653670308024 [Eh]
	-----------------------------------------------------------

  Dipole Moment: [D]
     X:     1.7218      Y:     0.1790      Z:    -0.0159     Total:     1.7312

*** Psi4 exiting successfully. Buy a developer a beer!
