                               Psi4 1.3.2 release

  ==> Input File <==

--------------------------------------------------------------------------
#psi4
#
memory 32 gb

molecule  {
0 1
  O        0.0894740    -1.2706490     0.0016280
  N        1.0961490     0.8320480    -0.0012430
  C       -1.2534649    -0.5362092     0.0649655
  C       -1.7504730    -0.3080250    -1.2153360
  C       -1.7497660    -0.3035760     1.2162340
  C        1.2195230    -0.4906020     0.0005970
  C       -3.0144240     0.2837480    -1.2099290
  C       -3.0137120     0.2881830     1.2093930
  C       -3.6464470     0.5845060    -0.0006310
  C        2.4408500    -1.1790020     0.0015830
  C        3.6030640    -0.4211020     0.0005590
  C        3.5068820     0.9758400    -0.0013820
  C        2.2403890     1.5483070    -0.0022070
  H       -1.2410120    -0.5552270    -2.1426030
  H       -1.2397720    -0.5473760     2.1441080
  H       -3.5056790     0.5103880    -2.1530410
  H       -3.5044150     0.5182820     2.1519550
  H        2.4499920    -2.2642250     0.0030920
  H       -4.6315180     1.0439850    -0.0011840
  H        4.5737430    -0.9107530     0.0012630
  H        4.3934310     1.6024650    -0.0022300
  H        2.1135170     2.6292430    -0.0037130
units angstrom
no_reorient  #important for SAPT in psi4, default
symmetry c1  #important for SAPT in psi4, default
}

set PROPERTIES_ORIGIN ["COM"]
properties('MP2/aug-cc-pvtz', properties = ['dipole'])
--------------------------------------------------------------------------

    Molecular point group: c1
  Charge       = 0
  Multiplicity = 1
  Basis Set: AUG-CC-PVTZ
    Blend: AUG-CC-PVTZ
  Basis Set: (AUG-CC-PVTZ AUX)
    Blend: AUG-CC-PVTZ-JKFIT

    Orbital Energies [Eh]
    ---------------------

    Doubly Occupied:

       1A    -20.582159     2A    -15.557828     3A    -11.335742
       4A    -11.294450     5A    -11.278470     6A    -11.260805
       7A    -11.246195     8A    -11.244434     9A    -11.242383
      10A    -11.238295    11A    -11.234117    12A    -11.231230
      13A    -11.228362    14A     -1.391176    15A     -1.244904
      16A     -1.171002    17A     -1.086598    18A     -1.041653
      19A     -1.027731    20A     -1.000485    21A     -0.867671
      22A     -0.849734    23A     -0.846564    24A     -0.806360
      25A     -0.729657    26A     -0.701789    27A     -0.676030
      28A     -0.658840    29A     -0.654418    30A     -0.628674
      31A     -0.611658    32A     -0.605455    33A     -0.584455
      34A     -0.575797    35A     -0.558868    36A     -0.530091
      37A     -0.520051    38A     -0.513510    39A     -0.497281
      40A     -0.487281    41A     -0.425147    42A     -0.384059
      43A     -0.355343    44A     -0.336671    45A     -0.323002

  @DF-RHF Final Energy:  -551.25658228138434

   => Energetics <=

    Nuclear Repulsion Energy =            708.8896696667653714
    One-Electron Energy =               -2154.9596524699231850
    Two-Electron Energy =                 894.8134005217735876
    Total Energy =                       -551.2565822813843397
  Basis Set: (AUG-CC-PVTZ AUX)
    Blend: AUG-CC-PVTZ-RI
    Molecular point group: c1

    Geometry (in Angstrom), charge = 0, multiplicity = 1:

       Center              X                  Y                   Z               Mass
    ------------   -----------------  -----------------  -----------------  -----------------
         O            0.094306601161    -1.262902173555    -0.002887272399    15.994914619570
         N            1.100981601161     0.839794826445    -0.005758272399    14.003074004430
         C           -1.248632298839    -0.528462373555     0.060450227601    12.000000000000
         C           -1.745640398839    -0.300278173555    -1.219851272399    12.000000000000
         C           -1.744933398839    -0.295829173555     1.211718727601    12.000000000000
         C            1.224355601161    -0.482855173555    -0.003918272399    12.000000000000
         C           -3.009591398839     0.291494826445    -1.214444272399    12.000000000000
         C           -3.008879398839     0.295929826445     1.204877727601    12.000000000000
         C           -3.641614398839     0.592252826445    -0.005146272399    12.000000000000
         C            2.445682601161    -1.171255173555    -0.002932272399    12.000000000000
         C            3.607896601161    -0.413355173555    -0.003956272399    12.000000000000
         C            3.511714601161     0.983586826445    -0.005897272399    12.000000000000
         C            2.245221601161     1.556053826445    -0.006722272399    12.000000000000
         H           -1.236179398839    -0.547480173555    -2.147118272399     1.007825032230
         H           -1.234939398839    -0.539629173555     2.139592727601     1.007825032230
         H           -3.500846398839     0.518134826445    -2.157556272399     1.007825032230
         H           -3.499582398839     0.526028826445     2.147439727601     1.007825032230
         H            2.454824601161    -2.256478173555    -0.001423272399     1.007825032230
         H           -4.626685398839     1.051731826445    -0.005699272399     1.007825032230
         H            4.578575601161    -0.903006173555    -0.003252272399     1.007825032230
         H            4.398263601161     1.610211826445    -0.006745272399     1.007825032230
         H            2.118349601161     2.636989826445    -0.008228272399     1.007825032230

  Basis Set: AUG-CC-PVTZ
    Blend: AUG-CC-PVTZ
  Basis Set: (AUG-CC-PVTZ AUX)
    Blend: AUG-CC-PVTZ-JKFIT
	 Reference Energy          =    -551.2565822813843397 [Eh]
	 Singles Energy            =      -0.0000000000000000 [Eh]
	 Same-Spin Energy          =      -0.5998891567830439 [Eh]
	 Opposite-Spin Energy      =      -1.8265007163818439 [Eh]
	 Correlation Energy        =      -2.4263898731648879 [Eh]
	 Total Energy              =    -553.6829721545492475 [Eh]

	 ================> DF-SCS-MP2 Energies <==================
	-----------------------------------------------------------
	 SCS Same-Spin Scale       =       0.3333333333333333 [-]
	 SCS Opposite-Spin Scale   =       1.2000000000000000 [-]
	 SCS Same-Spin Energy      =      -0.1999630522610146 [Eh]
	 SCS Opposite-Spin Energy  =      -2.1918008596582124 [Eh]
	 SCS Correlation Energy    =      -2.3917639119192269 [Eh]
	 SCS Total Energy          =    -553.6483461933036097 [Eh]
	-----------------------------------------------------------

  Dipole Moment: [D]
     X:     0.4853      Y:     0.3208      Z:     0.0597     Total:     0.5848

*** Psi4 exiting successfully. Buy a developer a beer!
