                               Psi4 1.3.2 release

  ==> Input File <==

--------------------------------------------------------------------------
#psi4
#
memory 32 gb

molecule  {
0 1
  O        0.0894740    -1.2706490     0.0016280
  N        1.0961490     0.8320480    -0.0012430
  C       -1.0603669    -0.6284969    -0.0494422
  C       -1.7504730    -0.3080250    -1.2153360
  C       -1.7497660    -0.3035760     1.2162340
  C        1.2195230    -0.4906020     0.0005970
  C       -3.0144240     0.2837480    -1.2099290
  C       -3.0137120     0.2881830     1.2093930
  C       -3.6464470     0.5845060    -0.0006310
  C        2.4408500    -1.1790020     0.0015830
  C        3.6030640    -0.4211020     0.0005590
  C        3.5068820     0.9758400    -0.0013820
  C        2.2403890     1.5483070    -0.0022070
  H       -1.2410120    -0.5552270    -2.1426030
  H       -1.2397720    -0.5473760     2.1441080
  H       -3.5056790     0.5103880    -2.1530410
  H       -3.5044150     0.5182820     2.1519550
  H        2.4499920    -2.2642250     0.0030920
  H       -4.6315180     1.0439850    -0.0011840
  H        4.5737430    -0.9107530     0.0012630
  H        4.3934310     1.6024650    -0.0022300
  H        2.1135170     2.6292430    -0.0037130
units angstrom
no_reorient  #important for SAPT in psi4, default
symmetry c1  #important for SAPT in psi4, default
}

set PROPERTIES_ORIGIN ["COM"]
properties('MP2/aug-cc-pvtz', properties = ['dipole'])
--------------------------------------------------------------------------

    Molecular point group: c1
  Charge       = 0
  Multiplicity = 1
  Basis Set: AUG-CC-PVTZ
    Blend: AUG-CC-PVTZ
  Basis Set: (AUG-CC-PVTZ AUX)
    Blend: AUG-CC-PVTZ-JKFIT

    Orbital Energies [Eh]
    ---------------------

    Doubly Occupied:

       1A    -20.610877     2A    -15.570993     3A    -11.351969
       4A    -11.300096     5A    -11.288101     6A    -11.270678
       7A    -11.246954     8A    -11.242461     9A    -11.236386
      10A    -11.235624    11A    -11.234084    12A    -11.229110
      13A    -11.228703    14A     -1.467471    15A     -1.262655
      16A     -1.135922    17A     -1.097800    18A     -1.047536
      19A     -1.010052    20A     -0.989240    21A     -0.887905
      22A     -0.869348    23A     -0.829601    24A     -0.805152
      25A     -0.747537    26A     -0.712020    27A     -0.679789
      28A     -0.675177    29A     -0.667064    30A     -0.631509
      31A     -0.620149    32A     -0.600893    33A     -0.580801
      34A     -0.580169    35A     -0.575771    36A     -0.541776
      37A     -0.522573    38A     -0.515958    39A     -0.486181
      40A     -0.466147    41A     -0.436530    42A     -0.393730
      43A     -0.339318    44A     -0.332526    45A     -0.314018

  @DF-RHF Final Energy:  -551.27135333082606

   => Energetics <=

    Nuclear Repulsion Energy =            709.4021848591902426
    One-Electron Energy =               -2155.6103696641712304
    Two-Electron Energy =                 894.9368314741550421
    Total Energy =                       -551.2713533308260594
  Basis Set: (AUG-CC-PVTZ AUX)
    Blend: AUG-CC-PVTZ-RI
    Molecular point group: c1

    Geometry (in Angstrom), charge = 0, multiplicity = 1:

       Center              X                  Y                   Z               Mass
    ------------   -----------------  -----------------  -----------------  -----------------
         O            0.080761283548    -1.256428433754     0.005138127314    15.994914619570
         N            1.087436283548     0.846268566246     0.002267127314    14.003074004430
         C           -1.069079616452    -0.614276333754    -0.045932072686    12.000000000000
         C           -1.759185716452    -0.293804433754    -1.211825872686    12.000000000000
         C           -1.758478716452    -0.289355433754     1.219744127314    12.000000000000
         C            1.210810283548    -0.476381433754     0.004107127314    12.000000000000
         C           -3.023136716452     0.297968566246    -1.206418872686    12.000000000000
         C           -3.022424716452     0.302403566246     1.212903127314    12.000000000000
         C           -3.655159716452     0.598726566246     0.002879127314    12.000000000000
         C            2.432137283548    -1.164781433754     0.005093127314    12.000000000000
         C            3.594351283548    -0.406881433754     0.004069127314    12.000000000000
         C            3.498169283548     0.990060566246     0.002128127314    12.000000000000
         C            2.231676283548     1.562527566246     0.001303127314    12.000000000000
         H           -1.249724716452    -0.541006433754    -2.139092872686     1.007825032230
         H           -1.248484716452    -0.533155433754     2.147618127314     1.007825032230
         H           -3.514391716452     0.524608566246    -2.149530872686     1.007825032230
         H           -3.513127716452     0.532502566246     2.155465127314     1.007825032230
         H            2.441279283548    -2.250004433754     0.006602127314     1.007825032230
         H           -4.640230716452     1.058205566246     0.002326127314     1.007825032230
         H            4.565030283548    -0.896532433754     0.004773127314     1.007825032230
         H            4.384718283548     1.616685566246     0.001280127314     1.007825032230
         H            2.104804283548     2.643463566246    -0.000202872686     1.007825032230

  Basis Set: AUG-CC-PVTZ
    Blend: AUG-CC-PVTZ
  Basis Set: (AUG-CC-PVTZ AUX)
    Blend: AUG-CC-PVTZ-JKFIT
	 Reference Energy          =    -551.2713533308260594 [Eh]
	 Singles Energy            =      -0.0000000000000000 [Eh]
	 Same-Spin Energy          =      -0.6001198150290998 [Eh]
	 Opposite-Spin Energy      =      -1.8252948526177646 [Eh]
	 Correlation Energy        =      -2.4254146676468644 [Eh]
	 Total Energy              =    -553.6967679984729784 [Eh]

	 ================> DF-SCS-MP2 Energies <==================
	-----------------------------------------------------------
	 SCS Same-Spin Scale       =       0.3333333333333333 [-]
	 SCS Opposite-Spin Scale   =       1.2000000000000000 [-]
	 SCS Same-Spin Energy      =      -0.2000399383430333 [Eh]
	 SCS Opposite-Spin Energy  =      -2.1903538231413173 [Eh]
	 SCS Correlation Energy    =      -2.3903937614843507 [Eh]
	 SCS Total Energy          =    -553.6617470923104065 [Eh]
	-----------------------------------------------------------

  Dipole Moment: [D]
     X:     2.0397      Y:     0.1387      Z:    -0.0318     Total:     2.0446

*** Psi4 exiting successfully. Buy a developer a beer!
