                               Psi4 1.3.2 release

  ==> Input File <==

--------------------------------------------------------------------------
#psi4
#
memory 32 gb

molecule  {
0 1
  O        0.0894740    -1.2706490     0.0016280
  N        1.0961490     0.8320480    -0.0012430
  C       -1.1354060    -0.5925990     0.0007920
  C       -1.7946521    -0.2875846    -1.3026881
  C       -1.7497660    -0.3035760     1.2162340
  C        1.2195230    -0.4906020     0.0005970
  C       -3.0144240     0.2837480    -1.2099290
  C       -3.0137120     0.2881830     1.2093930
  C       -3.6464470     0.5845060    -0.0006310
  C        2.4408500    -1.1790020     0.0015830
  C        3.6030640    -0.4211020     0.0005590
  C        3.5068820     0.9758400    -0.0013820
  C        2.2403890     1.5483070    -0.0022070
  H       -1.2410120    -0.5552270    -2.1426030
  H       -1.2397720    -0.5473760     2.1441080
  H       -3.5056790     0.5103880    -2.1530410
  H       -3.5044150     0.5182820     2.1519550
  H        2.4499920    -2.2642250     0.0030920
  H       -4.6315180     1.0439850    -0.0011840
  H        4.5737430    -0.9107530     0.0012630
  H        4.3934310     1.6024650    -0.0022300
  H        2.1135170     2.6292430    -0.0037130
units angstrom
no_reorient  #important for SAPT in psi4, default
symmetry c1  #important for SAPT in psi4, default
}

set PROPERTIES_ORIGIN ["COM"]
properties('MP2/aug-cc-pvtz', properties = ['dipole'])
--------------------------------------------------------------------------

    Molecular point group: c1
  Charge       = 0
  Multiplicity = 1
  Basis Set: AUG-CC-PVTZ
    Blend: AUG-CC-PVTZ
  Basis Set: (AUG-CC-PVTZ AUX)
    Blend: AUG-CC-PVTZ-JKFIT

    Orbital Energies [Eh]
    ---------------------

    Doubly Occupied:

       1A    -20.602639     2A    -15.566183     3A    -11.346318
       4A    -11.306079     5A    -11.284674     6A    -11.267270
       7A    -11.242457     8A    -11.239811     9A    -11.238442
      10A    -11.236444    11A    -11.233821    12A    -11.232178
      13A    -11.231932    14A     -1.433823    15A     -1.255851
      16A     -1.143929    17A     -1.093854    18A     -1.039212
      19A     -1.023687    20A     -0.989123    21A     -0.880049
      22A     -0.861797    23A     -0.831947    24A     -0.805338
      25A     -0.737782    26A     -0.706324    27A     -0.685980
      28A     -0.669899    29A     -0.658009    30A     -0.628645
      31A     -0.613638    32A     -0.596537    33A     -0.593369
      34A     -0.582087    35A     -0.568811    36A     -0.536804
      37A     -0.525518    38A     -0.513675    39A     -0.493345
      40A     -0.471464    41A     -0.432607    42A     -0.390310
      43A     -0.346026    44A     -0.331859    45A     -0.317298

  @DF-RHF Final Energy:  -551.27032528710083

   => Energetics <=

    Nuclear Repulsion Energy =            707.5185862718400358
    One-Electron Energy =               -2152.0041271876343671
    Two-Electron Energy =                 893.2152156286936133
    Total Energy =                       -551.2703252871008317
  Basis Set: (AUG-CC-PVTZ AUX)
    Blend: AUG-CC-PVTZ-RI
    Molecular point group: c1

    Geometry (in Angstrom), charge = 0, multiplicity = 1:

       Center              X                  Y                   Z               Mass
    ------------   -----------------  -----------------  -----------------  -----------------
         O            0.089124127204    -1.260380417551     0.007741850525    15.994914619570
         N            1.095799127204     0.842316582449     0.004870850525    14.003074004430
         C           -1.135755872796    -0.582330417551     0.006905850525    12.000000000000
         C           -1.795001972796    -0.277316017551    -1.296574249475    12.000000000000
         C           -1.750115872796    -0.293307417551     1.222347850525    12.000000000000
         C            1.219173127204    -0.480333417551     0.006710850525    12.000000000000
         C           -3.014773872796     0.294016582449    -1.203815149475    12.000000000000
         C           -3.014061872796     0.298451582449     1.215506850525    12.000000000000
         C           -3.646796872796     0.594774582449     0.005482850525    12.000000000000
         C            2.440500127204    -1.168733417551     0.007696850525    12.000000000000
         C            3.602714127204    -0.410833417551     0.006672850525    12.000000000000
         C            3.506532127204     0.986108582449     0.004731850525    12.000000000000
         C            2.240039127204     1.558575582449     0.003906850525    12.000000000000
         H           -1.241361872796    -0.544958417551    -2.136489149475     1.007825032230
         H           -1.240121872796    -0.537107417551     2.150221850525     1.007825032230
         H           -3.506028872796     0.520656582449    -2.146927149475     1.007825032230
         H           -3.504764872796     0.528550582449     2.158068850525     1.007825032230
         H            2.449642127204    -2.253956417551     0.009205850525     1.007825032230
         H           -4.631867872796     1.054253582449     0.004929850525     1.007825032230
         H            4.573393127204    -0.900484417551     0.007376850525     1.007825032230
         H            4.393081127204     1.612733582449     0.003883850525     1.007825032230
         H            2.113167127204     2.639511582449     0.002400850525     1.007825032230

  Basis Set: AUG-CC-PVTZ
    Blend: AUG-CC-PVTZ
  Basis Set: (AUG-CC-PVTZ AUX)
    Blend: AUG-CC-PVTZ-JKFIT
	 Reference Energy          =    -551.2703252871008317 [Eh]
	 Singles Energy            =      -0.0000000000000000 [Eh]
	 Same-Spin Energy          =      -0.5995245882264163 [Eh]
	 Opposite-Spin Energy      =      -1.8256893667944503 [Eh]
	 Correlation Energy        =      -2.4252139550208667 [Eh]
	 Total Energy              =    -553.6955392421217539 [Eh]

	 ================> DF-SCS-MP2 Energies <==================
	-----------------------------------------------------------
	 SCS Same-Spin Scale       =       0.3333333333333333 [-]
	 SCS Opposite-Spin Scale   =       1.2000000000000000 [-]
	 SCS Same-Spin Energy      =      -0.1998415294088054 [Eh]
	 SCS Opposite-Spin Energy  =      -2.1908272401533404 [Eh]
	 SCS Correlation Energy    =      -2.3906687695621458 [Eh]
	 SCS Total Energy          =    -553.6609940566629575 [Eh]
	-----------------------------------------------------------

  Dipole Moment: [D]
     X:     1.4930      Y:     0.1932      Z:     0.0132     Total:     1.5055

*** Psi4 exiting successfully. Buy a developer a beer!
