                               Psi4 1.3.2 release

  ==> Input File <==

--------------------------------------------------------------------------
#psi4
#
memory 32 gb

molecule  {
0 1
  O        0.0894740    -1.2706490     0.0016280
  N        1.0961490     0.8320480    -0.0012430
  C       -1.2538271    -0.5369777     0.0649689
  C       -1.7504730    -0.3080250    -1.2153360
  C       -1.7497660    -0.3035760     1.2162340
  C        1.2195230    -0.4906020     0.0005970
  C       -3.0144240     0.2837480    -1.2099290
  C       -3.0137120     0.2881830     1.2093930
  C       -3.6464470     0.5845060    -0.0006310
  C        2.4408500    -1.1790020     0.0015830
  C        3.6030640    -0.4211020     0.0005590
  C        3.5068820     0.9758400    -0.0013820
  C        2.2403890     1.5483070    -0.0022070
  H       -1.2410120    -0.5552270    -2.1426030
  H       -1.2397720    -0.5473760     2.1441080
  H       -3.5056790     0.5103880    -2.1530410
  H       -3.5044150     0.5182820     2.1519550
  H        2.4499920    -2.2642250     0.0030920
  H       -4.6315180     1.0439850    -0.0011840
  H        4.5737430    -0.9107530     0.0012630
  H        4.3934310     1.6024650    -0.0022300
  H        2.1135170     2.6292430    -0.0037130
units angstrom
no_reorient  #important for SAPT in psi4, default
symmetry c1  #important for SAPT in psi4, default
}

set PROPERTIES_ORIGIN ["COM"]
properties('MP2/aug-cc-pvtz', properties = ['dipole'])
--------------------------------------------------------------------------

    Molecular point group: c1
  Charge       = 0
  Multiplicity = 1
  Basis Set: AUG-CC-PVTZ
    Blend: AUG-CC-PVTZ
  Basis Set: (AUG-CC-PVTZ AUX)
    Blend: AUG-CC-PVTZ-JKFIT

    Orbital Energies [Eh]
    ---------------------

    Doubly Occupied:

       1A    -20.582133     2A    -15.557822     3A    -11.335747
       4A    -11.294456     5A    -11.278464     6A    -11.260802
       7A    -11.246199     8A    -11.244438     9A    -11.242389
      10A    -11.238302    11A    -11.234117    12A    -11.231226
      13A    -11.228369    14A     -1.391160    15A     -1.244901
      16A     -1.171007    17A     -1.086594    18A     -1.041659
      19A     -1.027737    20A     -1.000483    21A     -0.867665
      22A     -0.849740    23A     -0.846572    24A     -0.806360
      25A     -0.729673    26A     -0.701779    27A     -0.676029
      28A     -0.658845    29A     -0.654421    30A     -0.628672
      31A     -0.611660    32A     -0.605452    33A     -0.584450
      34A     -0.575794    35A     -0.558864    36A     -0.530093
      37A     -0.520059    38A     -0.513521    39A     -0.497261
      40A     -0.487270    41A     -0.425137    42A     -0.384053
      43A     -0.355349    44A     -0.336676    45A     -0.323001

  @DF-RHF Final Energy:  -551.25658901418979

   => Energetics <=

    Nuclear Repulsion Energy =            708.8849493186871769
    One-Electron Energy =               -2154.9502733175572757
    Two-Electron Energy =                 894.8087349846803136
    Total Energy =                       -551.2565890141897853
  Basis Set: (AUG-CC-PVTZ AUX)
    Blend: AUG-CC-PVTZ-RI
    Molecular point group: c1

    Geometry (in Angstrom), charge = 0, multiplicity = 1:

       Center              X                  Y                   Z               Mass
    ------------   -----------------  -----------------  -----------------  -----------------
         O            0.094332008540    -1.262848265299    -0.002887510900    15.994914619570
         N            1.101007008540     0.839848734701    -0.005758510900    14.003074004430
         C           -1.248969091460    -0.529176965299     0.060453389100    12.000000000000
         C           -1.745614991460    -0.300224265299    -1.219851510900    12.000000000000
         C           -1.744907991460    -0.295775265299     1.211718489100    12.000000000000
         C            1.224381008540    -0.482801265299    -0.003918510900    12.000000000000
         C           -3.009565991460     0.291548734701    -1.214444510900    12.000000000000
         C           -3.008853991460     0.295983734701     1.204877489100    12.000000000000
         C           -3.641588991460     0.592306734701    -0.005146510900    12.000000000000
         C            2.445708008540    -1.171201265299    -0.002932510900    12.000000000000
         C            3.607922008540    -0.413301265299    -0.003956510900    12.000000000000
         C            3.511740008540     0.983640734701    -0.005897510900    12.000000000000
         C            2.245247008540     1.556107734701    -0.006722510900    12.000000000000
         H           -1.236153991460    -0.547426265299    -2.147118510900     1.007825032230
         H           -1.234913991460    -0.539575265299     2.139592489100     1.007825032230
         H           -3.500820991460     0.518188734701    -2.157556510900     1.007825032230
         H           -3.499556991460     0.526082734701     2.147439489100     1.007825032230
         H            2.454850008540    -2.256424265299    -0.001423510900     1.007825032230
         H           -4.626659991460     1.051785734701    -0.005699510900     1.007825032230
         H            4.578601008540    -0.902952265299    -0.003252510900     1.007825032230
         H            4.398289008540     1.610265734701    -0.006745510900     1.007825032230
         H            2.118375008540     2.637043734701    -0.008228510900     1.007825032230

  Basis Set: AUG-CC-PVTZ
    Blend: AUG-CC-PVTZ
  Basis Set: (AUG-CC-PVTZ AUX)
    Blend: AUG-CC-PVTZ-JKFIT
	 Reference Energy          =    -551.2565890141897853 [Eh]
	 Singles Energy            =      -0.0000000000000000 [Eh]
	 Same-Spin Energy          =      -0.5998851579474156 [Eh]
	 Opposite-Spin Energy      =      -1.8264908525102972 [Eh]
	 Correlation Energy        =      -2.4263760104577128 [Eh]
	 Total Energy              =    -553.6829650246475012 [Eh]

	 ================> DF-SCS-MP2 Energies <==================
	-----------------------------------------------------------
	 SCS Same-Spin Scale       =       0.3333333333333333 [-]
	 SCS Opposite-Spin Scale   =       1.2000000000000000 [-]
	 SCS Same-Spin Energy      =      -0.1999617193158052 [Eh]
	 SCS Opposite-Spin Energy  =      -2.1917890230123565 [Eh]
	 SCS Correlation Energy    =      -2.3917507423281616 [Eh]
	 SCS Total Energy          =    -553.6483397565179985 [Eh]
	-----------------------------------------------------------

  Dipole Moment: [D]
     X:     0.4846      Y:     0.3207      Z:     0.0597     Total:     0.5841

*** Psi4 exiting successfully. Buy a developer a beer!
