                               Psi4 1.3.2 release

  ==> Input File <==

--------------------------------------------------------------------------
#psi4
#
memory 32 gb

molecule  {
0 1
  O        0.0894740    -1.2706490     0.0016280
  N        1.0961490     0.8320480    -0.0012430
  C       -1.1583235    -0.6357597     0.0008480
  C       -1.7504730    -0.3080250    -1.2153360
  C       -1.7497660    -0.3035760     1.2162340
  C        1.2195230    -0.4906020     0.0005970
  C       -3.0144240     0.2837480    -1.2099290
  C       -3.0137120     0.2881830     1.2093930
  C       -3.6464470     0.5845060    -0.0006310
  C        2.4408500    -1.1790020     0.0015830
  C        3.6030640    -0.4211020     0.0005590
  C        3.5068820     0.9758400    -0.0013820
  C        2.2403890     1.5483070    -0.0022070
  H       -1.2410120    -0.5552270    -2.1426030
  H       -1.2397720    -0.5473760     2.1441080
  H       -3.5056790     0.5103880    -2.1530410
  H       -3.5044150     0.5182820     2.1519550
  H        2.4499920    -2.2642250     0.0030920
  H       -4.6315180     1.0439850    -0.0011840
  H        4.5737430    -0.9107530     0.0012630
  H        4.3934310     1.6024650    -0.0022300
  H        2.1135170     2.6292430    -0.0037130
units angstrom
no_reorient  #important for SAPT in psi4, default
symmetry c1  #important for SAPT in psi4, default
}

set PROPERTIES_ORIGIN ["COM"]
properties('MP2/aug-cc-pvtz', properties = ['dipole'])
--------------------------------------------------------------------------

    Molecular point group: c1
  Charge       = 0
  Multiplicity = 1
  Basis Set: AUG-CC-PVTZ
    Blend: AUG-CC-PVTZ
  Basis Set: (AUG-CC-PVTZ AUX)
    Blend: AUG-CC-PVTZ-JKFIT

    Orbital Energies [Eh]
    ---------------------

    Doubly Occupied:

       1A    -20.598738     2A    -15.565311     3A    -11.345867
       4A    -11.296832     5A    -11.283909     6A    -11.266563
       7A    -11.241727     8A    -11.239114     9A    -11.239003
      10A    -11.237669    11A    -11.234399    12A    -11.234391
      13A    -11.233403    14A     -1.431158    15A     -1.255176
      16A     -1.148410    17A     -1.093009    18A     -1.040553
      19A     -1.017748    20A     -0.996423    21A     -0.878282
      22A     -0.860948    23A     -0.836223    24A     -0.805706
      25A     -0.740675    26A     -0.704972    27A     -0.679513
      28A     -0.668873    29A     -0.658472    30A     -0.627957
      31A     -0.614273    32A     -0.594321    33A     -0.591809
      34A     -0.579868    35A     -0.569199    36A     -0.536261
      37A     -0.517307    38A     -0.514325    39A     -0.494887
      40A     -0.483196    41A     -0.431652    42A     -0.389446
      43A     -0.338392    44A     -0.330788    45A     -0.328624

  @DF-RHF Final Energy:  -551.28244131097563

   => Energetics <=

    Nuclear Repulsion Energy =            708.7490686213336630
    One-Electron Energy =               -2154.5122756235464294
    Two-Electron Energy =                 894.4807656912371385
    Total Energy =                       -551.2824413109756279
  Basis Set: (AUG-CC-PVTZ AUX)
    Blend: AUG-CC-PVTZ-RI
    Molecular point group: c1

    Geometry (in Angstrom), charge = 0, multiplicity = 1:

       Center              X                  Y                   Z               Mass
    ------------   -----------------  -----------------  -----------------  -----------------
         O            0.087632681798    -1.255918967406     0.001610401849    15.994914619570
         N            1.094307681798     0.846778032594    -0.001260598151    14.003074004430
         C           -1.160164818202    -0.621029667406     0.000830401849    12.000000000000
         C           -1.752314318202    -0.293294967406    -1.215353598151    12.000000000000
         C           -1.751607318202    -0.288845967406     1.216216401849    12.000000000000
         C            1.217681681798    -0.475871967406     0.000579401849    12.000000000000
         C           -3.016265318202     0.298478032594    -1.209946598151    12.000000000000
         C           -3.015553318202     0.302913032594     1.209375401849    12.000000000000
         C           -3.648288318202     0.599236032594    -0.000648598151    12.000000000000
         C            2.439008681798    -1.164271967406     0.001565401849    12.000000000000
         C            3.601222681798    -0.406371967406     0.000541401849    12.000000000000
         C            3.505040681798     0.990570032594    -0.001399598151    12.000000000000
         C            2.238547681798     1.563037032594    -0.002224598151    12.000000000000
         H           -1.242853318202    -0.540496967406    -2.142620598151     1.007825032230
         H           -1.241613318202    -0.532645967406     2.144090401849     1.007825032230
         H           -3.507520318202     0.525118032594    -2.153058598151     1.007825032230
         H           -3.506256318202     0.533012032594     2.151937401849     1.007825032230
         H            2.448150681798    -2.249494967406     0.003074401849     1.007825032230
         H           -4.633359318202     1.058715032594    -0.001201598151     1.007825032230
         H            4.571901681798    -0.896022967406     0.001245401849     1.007825032230
         H            4.391589681798     1.617195032594    -0.002247598151     1.007825032230
         H            2.111675681798     2.643973032594    -0.003730598151     1.007825032230

  Basis Set: AUG-CC-PVTZ
    Blend: AUG-CC-PVTZ
  Basis Set: (AUG-CC-PVTZ AUX)
    Blend: AUG-CC-PVTZ-JKFIT
	 Reference Energy          =    -551.2824413109756279 [Eh]
	 Singles Energy            =      -0.0000000000000000 [Eh]
	 Same-Spin Energy          =      -0.5994286063133814 [Eh]
	 Opposite-Spin Energy      =      -1.8243366869824711 [Eh]
	 Correlation Energy        =      -2.4237652932958524 [Eh]
	 Total Energy              =    -553.7062066042715287 [Eh]

	 ================> DF-SCS-MP2 Energies <==================
	-----------------------------------------------------------
	 SCS Same-Spin Scale       =       0.3333333333333333 [-]
	 SCS Opposite-Spin Scale   =       1.2000000000000000 [-]
	 SCS Same-Spin Energy      =      -0.1998095354377938 [Eh]
	 SCS Opposite-Spin Energy  =      -2.1892040243789652 [Eh]
	 SCS Correlation Energy    =      -2.3890135598167590 [Eh]
	 SCS Total Energy          =    -553.6714548707923313 [Eh]
	-----------------------------------------------------------

  Dipole Moment: [D]
     X:     1.3591      Y:     0.2156      Z:    -0.0001     Total:     1.3761

*** Psi4 exiting successfully. Buy a developer a beer!
