                               Psi4 1.3.2 release

  ==> Input File <==

--------------------------------------------------------------------------
#psi4
#
memory 32 gb

molecule  {
0 1
  O        0.0894740    -1.2706490     0.0016280
  N        1.0961490     0.8320480    -0.0012430
  C       -1.1354060    -0.5925990     0.0007920
  C       -1.7504730    -0.3080250    -1.2153360
  C       -1.7497660    -0.3035760     1.2162340
  C        1.2195230    -0.4906020     0.0005970
  C       -3.0144240     0.2837480    -1.2099290
  C       -3.0137120     0.2881830     1.2093930
  C       -3.6464470     0.5845060    -0.0006310
  C        2.4408500    -1.1790020     0.0015830
  C        3.6030640    -0.4211020     0.0005590
  C        3.5068820     0.9758400    -0.0013820
  C        2.3251519     1.6013659    -0.0022784
  H       -1.2410120    -0.5552270    -2.1426030
  H       -1.2397720    -0.5473760     2.1441080
  H       -3.5056790     0.5103880    -2.1530410
  H       -3.5044150     0.5182820     2.1519550
  H        2.4499920    -2.2642250     0.0030920
  H       -4.6315180     1.0439850    -0.0011840
  H        4.5737430    -0.9107530     0.0012630
  H        4.3934310     1.6024650    -0.0022300
  H        2.1135170     2.6292430    -0.0037130
units angstrom
no_reorient  #important for SAPT in psi4, default
symmetry c1  #important for SAPT in psi4, default
}

set PROPERTIES_ORIGIN ["COM"]
properties('MP2/aug-cc-pvtz', properties = ['dipole'])
--------------------------------------------------------------------------

    Molecular point group: c1
  Charge       = 0
  Multiplicity = 1
  Basis Set: AUG-CC-PVTZ
    Blend: AUG-CC-PVTZ
  Basis Set: (AUG-CC-PVTZ AUX)
    Blend: AUG-CC-PVTZ-JKFIT

    Orbital Energies [Eh]
    ---------------------

    Doubly Occupied:

       1A    -20.599904     2A    -15.565815     3A    -11.343786
       4A    -11.295477     5A    -11.281099     6A    -11.269393
       7A    -11.245998     8A    -11.237722     9A    -11.237614
      10A    -11.236404    11A    -11.232706    12A    -11.232701
      13A    -11.231794    14A     -1.431922    15A     -1.232458
      16A     -1.146447    17A     -1.090617    18A     -1.045742
      19A     -1.016127    20A     -0.999326    21A     -0.885522
      22A     -0.852998    23A     -0.834816    24A     -0.802352
      25A     -0.740151    26A     -0.703559    27A     -0.677419
      28A     -0.666929    29A     -0.657468    30A     -0.638164
      31A     -0.616282    32A     -0.595618    33A     -0.589796
      34A     -0.576371    35A     -0.569919    36A     -0.530515
      37A     -0.513658    38A     -0.512573    39A     -0.493470
      40A     -0.482049    41A     -0.431008    42A     -0.379623
      43A     -0.344373    44A     -0.334920    45A     -0.326646

  @DF-RHF Final Energy:  -551.26970866317095

   => Energetics <=

    Nuclear Repulsion Energy =            707.5516212547560144
    One-Electron Energy =               -2152.1841557581924462
    Two-Electron Energy =                 893.3628258402656002
    Total Energy =                       -551.2697086631709453
  Basis Set: (AUG-CC-PVTZ AUX)
    Blend: AUG-CC-PVTZ-RI
    Molecular point group: c1

    Geometry (in Angstrom), charge = 0, multiplicity = 1:

       Center              X                  Y                   Z               Mass
    ------------   -----------------  -----------------  -----------------  -----------------
         O            0.080079184514    -1.262668519668     0.001619338625    15.994914619570
         N            1.086754184514     0.840028480332    -0.001251661375    14.003074004430
         C           -1.144800815486    -0.584618519668     0.000783338625    12.000000000000
         C           -1.759867815486    -0.300044519668    -1.215344661375    12.000000000000
         C           -1.759160815486    -0.295595519668     1.216225338625    12.000000000000
         C            1.210128184514    -0.482621519668     0.000588338625    12.000000000000
         C           -3.023818815486     0.291728480332    -1.209937661375    12.000000000000
         C           -3.023106815486     0.296163480332     1.209384338625    12.000000000000
         C           -3.655841815486     0.592486480332    -0.000639661375    12.000000000000
         C            2.431455184514    -1.171021519668     0.001574338625    12.000000000000
         C            3.593669184514    -0.413121519668     0.000550338625    12.000000000000
         C            3.497487184514     0.983820480332    -0.001390661375    12.000000000000
         C            2.315757084514     1.609346380332    -0.002287061375    12.000000000000
         H           -1.250406815486    -0.547246519668    -2.142611661375     1.007825032230
         H           -1.249166815486    -0.539395519668     2.144099338625     1.007825032230
         H           -3.515073815486     0.518368480332    -2.153049661375     1.007825032230
         H           -3.513809815486     0.526262480332     2.151946338625     1.007825032230
         H            2.440597184514    -2.256244519668     0.003083338625     1.007825032230
         H           -4.640912815486     1.051965480332    -0.001192661375     1.007825032230
         H            4.564348184514    -0.902772519668     0.001254338625     1.007825032230
         H            4.384036184514     1.610445480332    -0.002238661375     1.007825032230
         H            2.104122184514     2.637223480332    -0.003721661375     1.007825032230

  Basis Set: AUG-CC-PVTZ
    Blend: AUG-CC-PVTZ
  Basis Set: (AUG-CC-PVTZ AUX)
    Blend: AUG-CC-PVTZ-JKFIT
	 Reference Energy          =    -551.2697086631709453 [Eh]
	 Singles Energy            =      -0.0000000000000000 [Eh]
	 Same-Spin Energy          =      -0.5996251352418712 [Eh]
	 Opposite-Spin Energy      =      -1.8269510600705643 [Eh]
	 Correlation Energy        =      -2.4265761953124354 [Eh]
	 Total Energy              =    -553.6962848584834092 [Eh]

	 ================> DF-SCS-MP2 Energies <==================
	-----------------------------------------------------------
	 SCS Same-Spin Scale       =       0.3333333333333333 [-]
	 SCS Opposite-Spin Scale   =       1.2000000000000000 [-]
	 SCS Same-Spin Energy      =      -0.1998750450806237 [Eh]
	 SCS Opposite-Spin Energy  =      -2.1923412720846769 [Eh]
	 SCS Correlation Energy    =      -2.3922163171653006 [Eh]
	 SCS Total Energy          =    -553.6619249803362663 [Eh]
	-----------------------------------------------------------

  Dipole Moment: [D]
     X:     1.5604      Y:     0.2382      Z:    -0.0001     Total:     1.5784

*** Psi4 exiting successfully. Buy a developer a beer!
