                               Psi4 1.3.2 release

  ==> Input File <==

--------------------------------------------------------------------------
#psi4
#
memory 32 gb

molecule  {
0 1
  O        0.0760324    -1.2508081     0.0016003
  N        1.0961490     0.8320480    -0.0012430
  C       -1.1354060    -0.5925990     0.0007920
  C       -1.7504730    -0.3080250    -1.2153360
  C       -1.7497660    -0.3035760     1.2162340
  C        1.2195230    -0.4906020     0.0005970
  C       -3.0144240     0.2837480    -1.2099290
  C       -3.0137120     0.2881830     1.2093930
  C       -3.6464470     0.5845060    -0.0006310
  C        2.4408500    -1.1790020     0.0015830
  C        3.6030640    -0.4211020     0.0005590
  C        3.5068820     0.9758400    -0.0013820
  C        2.2403890     1.5483070    -0.0022070
  H       -1.2410120    -0.5552270    -2.1426030
  H       -1.2397720    -0.5473760     2.1441080
  H       -3.5056790     0.5103880    -2.1530410
  H       -3.5044150     0.5182820     2.1519550
  H        2.4499920    -2.2642250     0.0030920
  H       -4.6315180     1.0439850    -0.0011840
  H        4.5737430    -0.9107530     0.0012630
  H        4.3934310     1.6024650    -0.0022300
  H        2.1135170     2.6292430    -0.0037130
units angstrom
no_reorient  #important for SAPT in psi4, default
symmetry c1  #important for SAPT in psi4, default
}

set PROPERTIES_ORIGIN ["COM"]
properties('MP2/aug-cc-pvtz', properties = ['dipole'])
--------------------------------------------------------------------------

    Molecular point group: c1
  Charge       = 0
  Multiplicity = 1
  Basis Set: AUG-CC-PVTZ
    Blend: AUG-CC-PVTZ
  Basis Set: (AUG-CC-PVTZ AUX)
    Blend: AUG-CC-PVTZ-JKFIT

    Orbital Energies [Eh]
    ---------------------

    Doubly Occupied:

       1A    -20.599740     2A    -15.566052     3A    -11.346965
       4A    -11.294776     5A    -11.284770     6A    -11.267821
       7A    -11.243304     8A    -11.238690     9A    -11.237942
      10A    -11.237841    11A    -11.232197    12A    -11.232195
      13A    -11.231634    14A     -1.439025    15A     -1.256681
      16A     -1.146725    17A     -1.094180    18A     -1.042095
      19A     -1.016370    20A     -0.995600    21A     -0.879829
      22A     -0.862998    23A     -0.835890    24A     -0.805562
      25A     -0.742104    26A     -0.706708    27A     -0.679237
      28A     -0.670030    29A     -0.660556    30A     -0.628428
      31A     -0.615329    32A     -0.596049    33A     -0.590325
      34A     -0.579345    35A     -0.571431    36A     -0.537035
      37A     -0.517901    38A     -0.513778    39A     -0.493618
      40A     -0.481652    41A     -0.433133    42A     -0.390433
      43A     -0.338150    44A     -0.331258    45A     -0.325956

  @DF-RHF Final Energy:  -551.28337359449233

   => Energetics <=

    Nuclear Repulsion Energy =            709.6433896202244114
    One-Electron Energy =               -2156.2708496542632020
    Two-Electron Energy =                 895.3440864395465724
    Total Energy =                       -551.2833735944923319
  Basis Set: (AUG-CC-PVTZ AUX)
    Blend: AUG-CC-PVTZ-RI
    Molecular point group: c1

    Geometry (in Angstrom), charge = 0, multiplicity = 1:

       Center              X                  Y                   Z               Mass
    ------------   -----------------  -----------------  -----------------  -----------------
         O            0.073840270364    -1.240960803397     0.001589220055    15.994914619570
         N            1.093956870364     0.841895296603    -0.001254079945    14.003074004430
         C           -1.137598129636    -0.582751703397     0.000780920055    12.000000000000
         C           -1.752665129636    -0.298177703397    -1.215347079945    12.000000000000
         C           -1.751958129636    -0.293728703397     1.216222920055    12.000000000000
         C            1.217330870364    -0.480754703397     0.000585920055    12.000000000000
         C           -3.016616129636     0.293595296603    -1.209940079945    12.000000000000
         C           -3.015904129636     0.298030296603     1.209381920055    12.000000000000
         C           -3.648639129636     0.594353296603    -0.000642079945    12.000000000000
         C            2.438657870364    -1.169154703397     0.001571920055    12.000000000000
         C            3.600871870364    -0.411254703397     0.000547920055    12.000000000000
         C            3.504689870364     0.985687296603    -0.001393079945    12.000000000000
         C            2.238196870364     1.558154296603    -0.002218079945    12.000000000000
         H           -1.243204129636    -0.545379703397    -2.142614079945     1.007825032230
         H           -1.241964129636    -0.537528703397     2.144096920055     1.007825032230
         H           -3.507871129636     0.520235296603    -2.153052079945     1.007825032230
         H           -3.506607129636     0.528129296603     2.151943920055     1.007825032230
         H            2.447799870364    -2.254377703397     0.003080920055     1.007825032230
         H           -4.633710129636     1.053832296603    -0.001195079945     1.007825032230
         H            4.571550870364    -0.900905703397     0.001251920055     1.007825032230
         H            4.391238870364     1.612312296603    -0.002241079945     1.007825032230
         H            2.111324870364     2.639090296603    -0.003724079945     1.007825032230

  Basis Set: AUG-CC-PVTZ
    Blend: AUG-CC-PVTZ
  Basis Set: (AUG-CC-PVTZ AUX)
    Blend: AUG-CC-PVTZ-JKFIT
	 Reference Energy          =    -551.2833735944923319 [Eh]
	 Singles Energy            =      -0.0000000000000000 [Eh]
	 Same-Spin Energy          =      -0.5995193078178421 [Eh]
	 Opposite-Spin Energy      =      -1.8241598249121456 [Eh]
	 Correlation Energy        =      -2.4236791327299878 [Eh]
	 Total Energy              =    -553.7070527272222762 [Eh]

	 ================> DF-SCS-MP2 Energies <==================
	-----------------------------------------------------------
	 SCS Same-Spin Scale       =       0.3333333333333333 [-]
	 SCS Opposite-Spin Scale   =       1.2000000000000000 [-]
	 SCS Same-Spin Energy      =      -0.1998397692726140 [Eh]
	 SCS Opposite-Spin Energy  =      -2.1889917898945748 [Eh]
	 SCS Correlation Energy    =      -2.3888315591671887 [Eh]
	 SCS Total Energy          =    -553.6722051536595472 [Eh]
	-----------------------------------------------------------

  Dipole Moment: [D]
     X:     1.5353      Y:     0.1836      Z:    -0.0000     Total:     1.5462

*** Psi4 exiting successfully. Buy a developer a beer!
