                               Psi4 1.3.2 release

  ==> Input File <==

--------------------------------------------------------------------------
#psi4
#
memory 32 gb

molecule  {
0 1
  O        0.0894740    -1.2706490     0.0016280
  N        1.0961490     0.8320480    -0.0012430
  C       -1.1741936    -0.5743755     0.0237026
  C       -1.7504730    -0.3080250    -1.2153360
  C       -1.7497660    -0.3035760     1.2162340
  C        1.2195230    -0.4906020     0.0005970
  C       -3.0144240     0.2837480    -1.2099290
  C       -3.0137120     0.2881830     1.2093930
  C       -3.6464470     0.5845060    -0.0006310
  C        2.4408500    -1.1790020     0.0015830
  C        3.6030640    -0.4211020     0.0005590
  C        3.5068820     0.9758400    -0.0013820
  C        2.2403890     1.5483070    -0.0022070
  H       -1.2410120    -0.5552270    -2.1426030
  H       -1.2397720    -0.5473760     2.1441080
  H       -3.5056790     0.5103880    -2.1530410
  H       -3.5044150     0.5182820     2.1519550
  H        2.4499920    -2.2642250     0.0030920
  H       -4.6315180     1.0439850    -0.0011840
  H        4.5737430    -0.9107530     0.0012630
  H        4.3934310     1.6024650    -0.0022300
  H        2.1135170     2.6292430    -0.0037130
units angstrom
no_reorient  #important for SAPT in psi4, default
symmetry c1  #important for SAPT in psi4, default
}

set PROPERTIES_ORIGIN ["COM"]
properties('MP2/aug-cc-pvtz', properties = ['dipole'])
--------------------------------------------------------------------------

    Molecular point group: c1
  Charge       = 0
  Multiplicity = 1
  Basis Set: AUG-CC-PVTZ
    Blend: AUG-CC-PVTZ
  Basis Set: (AUG-CC-PVTZ AUX)
    Blend: AUG-CC-PVTZ-JKFIT

    Orbital Energies [Eh]
    ---------------------

    Doubly Occupied:

       1A    -20.595085     2A    -15.563137     3A    -11.342450
       4A    -11.295287     5A    -11.282404     6A    -11.264901
       7A    -11.241047     8A    -11.240498     9A    -11.239377
      10A    -11.236505    11A    -11.235780    12A    -11.234651
      13A    -11.232063    14A     -1.418166    15A     -1.252020
      16A     -1.154838    17A     -1.091183    18A     -1.037705
      19A     -1.022337    20A     -0.998600    21A     -0.874634
      22A     -0.856090    23A     -0.840043    24A     -0.805941
      25A     -0.735877    26A     -0.704192    27A     -0.678835
      28A     -0.665399    29A     -0.656097    30A     -0.627858
      31A     -0.612447    32A     -0.598058    33A     -0.591060
      34A     -0.579101    35A     -0.565825    36A     -0.534006
      37A     -0.516242    38A     -0.511457    39A     -0.500025
      40A     -0.488015    41A     -0.430051    42A     -0.387978
      43A     -0.341879    44A     -0.332735    45A     -0.328462

  @DF-RHF Final Energy:  -551.27970349335112

   => Energetics <=

    Nuclear Repulsion Energy =            708.9731078884226463
    One-Electron Energy =               -2155.0249465538618097
    Two-Electron Energy =                 894.7721351720880421
    Total Energy =                       -551.2797034933511213
  Basis Set: (AUG-CC-PVTZ AUX)
    Blend: AUG-CC-PVTZ-RI
    Molecular point group: c1

    Geometry (in Angstrom), charge = 0, multiplicity = 1:

       Center              X                  Y                   Z               Mass
    ------------   -----------------  -----------------  -----------------  -----------------
         O            0.088745927638    -1.260224907838     0.000007211677    15.994914619570
         N            1.095420927638     0.842472092162    -0.002863788323    14.003074004430
         C           -1.174921672362    -0.563951407838     0.022081811677    12.000000000000
         C           -1.751201072362    -0.297600907838    -1.216956788323    12.000000000000
         C           -1.750494072362    -0.293151907838     1.214613211677    12.000000000000
         C            1.218794927638    -0.480177907838    -0.001023788323    12.000000000000
         C           -3.015152072362     0.294172092162    -1.211549788323    12.000000000000
         C           -3.014440072362     0.298607092162     1.207772211677    12.000000000000
         C           -3.647175072362     0.594930092162    -0.002251788323    12.000000000000
         C            2.440121927638    -1.168577907838    -0.000037788323    12.000000000000
         C            3.602335927638    -0.410677907838    -0.001061788323    12.000000000000
         C            3.506153927638     0.986264092162    -0.003002788323    12.000000000000
         C            2.239660927638     1.558731092162    -0.003827788323    12.000000000000
         H           -1.241740072362    -0.544802907838    -2.144223788323     1.007825032230
         H           -1.240500072362    -0.536951907838     2.142487211677     1.007825032230
         H           -3.506407072362     0.520812092162    -2.154661788323     1.007825032230
         H           -3.505143072362     0.528706092162     2.150334211677     1.007825032230
         H            2.449263927638    -2.253800907838     0.001471211677     1.007825032230
         H           -4.632246072362     1.054409092162    -0.002804788323     1.007825032230
         H            4.573014927638    -0.900328907838    -0.000357788323     1.007825032230
         H            4.392702927638     1.612889092162    -0.003850788323     1.007825032230
         H            2.112788927638     2.639667092162    -0.005333788323     1.007825032230

  Basis Set: AUG-CC-PVTZ
    Blend: AUG-CC-PVTZ
  Basis Set: (AUG-CC-PVTZ AUX)
    Blend: AUG-CC-PVTZ-JKFIT
	 Reference Energy          =    -551.2797034933511213 [Eh]
	 Singles Energy            =      -0.0000000000000000 [Eh]
	 Same-Spin Energy          =      -0.5995620904779637 [Eh]
	 Opposite-Spin Energy      =      -1.8250262836546676 [Eh]
	 Correlation Energy        =      -2.4245883741326315 [Eh]
	 Total Energy              =    -553.7042918674837892 [Eh]

	 ================> DF-SCS-MP2 Energies <==================
	-----------------------------------------------------------
	 SCS Same-Spin Scale       =       0.3333333333333333 [-]
	 SCS Opposite-Spin Scale   =       1.2000000000000000 [-]
	 SCS Same-Spin Energy      =      -0.1998540301593212 [Eh]
	 SCS Opposite-Spin Energy  =      -2.1900315403856010 [Eh]
	 SCS Correlation Energy    =      -2.3898855705449220 [Eh]
	 SCS Total Energy          =    -553.6695890638960691 [Eh]
	-----------------------------------------------------------

  Dipole Moment: [D]
     X:     1.1053      Y:     0.2520      Z:     0.0171     Total:     1.1338

*** Psi4 exiting successfully. Buy a developer a beer!
