                               Psi4 1.3.2 release

  ==> Input File <==

--------------------------------------------------------------------------
#psi4
#
memory 32 gb

molecule  {
0 1
  O        0.0896536    -1.2685034     0.0504483
  N        1.0961490     0.8320480    -0.0012430
  C       -1.1354060    -0.5925990     0.0007920
  C       -1.7504730    -0.3080250    -1.2153360
  C       -1.7497660    -0.3035760     1.2162340
  C        1.2195230    -0.4906020     0.0005970
  C       -3.0144240     0.2837480    -1.2099290
  C       -3.0137120     0.2881830     1.2093930
  C       -3.6464470     0.5845060    -0.0006310
  C        2.4408500    -1.1790020     0.0015830
  C        3.6030640    -0.4211020     0.0005590
  C        3.5068820     0.9758400    -0.0013820
  C        2.2403890     1.5483070    -0.0022070
  H       -1.2410120    -0.5552270    -2.1426030
  H       -1.2397720    -0.5473760     2.1441080
  H       -3.5056790     0.5103880    -2.1530410
  H       -3.5044150     0.5182820     2.1519550
  H        2.4499920    -2.2642250     0.0030920
  H       -4.6315180     1.0439850    -0.0011840
  H        4.5737430    -0.9107530     0.0012630
  H        4.3934310     1.6024650    -0.0022300
  H        2.1135170     2.6292430    -0.0037130
units angstrom
no_reorient  #important for SAPT in psi4, default
symmetry c1  #important for SAPT in psi4, default
}

set PROPERTIES_ORIGIN ["COM"]
properties('MP2/aug-cc-pvtz', properties = ['dipole'])
--------------------------------------------------------------------------

    Molecular point group: c1
  Charge       = 0
  Multiplicity = 1
  Basis Set: AUG-CC-PVTZ
    Blend: AUG-CC-PVTZ
  Basis Set: (AUG-CC-PVTZ AUX)
    Blend: AUG-CC-PVTZ-JKFIT

    Orbital Energies [Eh]
    ---------------------

    Doubly Occupied:

       1A    -20.600610     2A    -15.565665     3A    -11.345557
       4A    -11.296498     5A    -11.284276     6A    -11.266841
       7A    -11.241902     8A    -11.239230     9A    -11.238328
      10A    -11.237988    11A    -11.234823    12A    -11.232871
      13A    -11.232690    14A     -1.433474    15A     -1.255506
      16A     -1.147896    17A     -1.093382    18A     -1.040314
      19A     -1.017250    20A     -0.996392    21A     -0.878578
      22A     -0.860701    23A     -0.835892    24A     -0.805700
      25A     -0.739858    26A     -0.706087    27A     -0.679422
      28A     -0.668850    29A     -0.658885    30A     -0.628218
      31A     -0.614684    32A     -0.594984    33A     -0.591281
      34A     -0.580092    35A     -0.569795    36A     -0.536482
      37A     -0.517389    38A     -0.513829    39A     -0.495441
      40A     -0.483194    41A     -0.432278    42A     -0.389860
      43A     -0.338686    44A     -0.330985    45A     -0.327502

  @DF-RHF Final Energy:  -551.28235404088036

   => Energetics <=

    Nuclear Repulsion Energy =            709.1053427208353241
    One-Electron Energy =               -2155.2150608316219405
    Two-Electron Energy =                 894.8273640699062526
    Total Energy =                       -551.2823540408803638
  Basis Set: (AUG-CC-PVTZ AUX)
    Blend: AUG-CC-PVTZ-RI
    Molecular point group: c1

    Geometry (in Angstrom), charge = 0, multiplicity = 1:

       Center              X                  Y                   Z               Mass
    ------------   -----------------  -----------------  -----------------  -----------------
         O            0.086187886737    -1.257001590993     0.045869926939    15.994914619570
         N            1.092683286737     0.843549809007    -0.005821373061    14.003074004430
         C           -1.138871713263    -0.581097190993    -0.003786373061    12.000000000000
         C           -1.753938713263    -0.296523190993    -1.219914373061    12.000000000000
         C           -1.753231713263    -0.292074190993     1.211655626939    12.000000000000
         C            1.216057286737    -0.479100190993    -0.003981373061    12.000000000000
         C           -3.017889713263     0.295249809007    -1.214507373061    12.000000000000
         C           -3.017177713263     0.299684809007     1.204814626939    12.000000000000
         C           -3.649912713263     0.596007809007    -0.005209373061    12.000000000000
         C            2.437384286737    -1.167500190993    -0.002995373061    12.000000000000
         C            3.599598286737    -0.409600190993    -0.004019373061    12.000000000000
         C            3.503416286737     0.987341809007    -0.005960373061    12.000000000000
         C            2.236923286737     1.559808809007    -0.006785373061    12.000000000000
         H           -1.244477713263    -0.543725190993    -2.147181373061     1.007825032230
         H           -1.243237713263    -0.535874190993     2.139529626939     1.007825032230
         H           -3.509144713263     0.521889809007    -2.157619373061     1.007825032230
         H           -3.507880713263     0.529783809007     2.147376626939     1.007825032230
         H            2.446526286737    -2.252723190993    -0.001486373061     1.007825032230
         H           -4.634983713263     1.055486809007    -0.005762373061     1.007825032230
         H            4.570277286737    -0.899251190993    -0.003315373061     1.007825032230
         H            4.389965286737     1.613966809007    -0.006808373061     1.007825032230
         H            2.110051286737     2.640744809007    -0.008291373061     1.007825032230

  Basis Set: AUG-CC-PVTZ
    Blend: AUG-CC-PVTZ
  Basis Set: (AUG-CC-PVTZ AUX)
    Blend: AUG-CC-PVTZ-JKFIT
	 Reference Energy          =    -551.2823540408803638 [Eh]
	 Singles Energy            =      -0.0000000000000000 [Eh]
	 Same-Spin Energy          =      -0.5996290259401311 [Eh]
	 Opposite-Spin Energy      =      -1.8247829495375165 [Eh]
	 Correlation Energy        =      -2.4244119754776476 [Eh]
	 Total Energy              =    -553.7067660163579603 [Eh]

	 ================> DF-SCS-MP2 Energies <==================
	-----------------------------------------------------------
	 SCS Same-Spin Scale       =       0.3333333333333333 [-]
	 SCS Opposite-Spin Scale   =       1.2000000000000000 [-]
	 SCS Same-Spin Energy      =      -0.1998763419800437 [Eh]
	 SCS Opposite-Spin Energy  =      -2.1897395394450196 [Eh]
	 SCS Correlation Energy    =      -2.3896158814250632 [Eh]
	 SCS Total Energy          =    -553.6719699223053794 [Eh]
	-----------------------------------------------------------

  Dipole Moment: [D]
     X:     1.4140      Y:     0.2140      Z:    -0.0527     Total:     1.4310

*** Psi4 exiting successfully. Buy a developer a beer!
