                               Psi4 1.3.2 release

  ==> Input File <==

--------------------------------------------------------------------------
#psi4
#
memory 32 gb

molecule  {
0 1
  O        0.0894740    -1.2706490     0.0016280
  N        1.0961490     0.8320480    -0.0012430
  C       -1.1354060    -0.5925990     0.0007920
  C       -1.6621148    -0.3489058    -1.0406317
  C       -1.7497660    -0.3035760     1.2162340
  C        1.2195230    -0.4906020     0.0005970
  C       -3.0144240     0.2837480    -1.2099290
  C       -3.0137120     0.2881830     1.2093930
  C       -3.6464470     0.5845060    -0.0006310
  C        2.4408500    -1.1790020     0.0015830
  C        3.6030640    -0.4211020     0.0005590
  C        3.5068820     0.9758400    -0.0013820
  C        2.2403890     1.5483070    -0.0022070
  H       -1.2410120    -0.5552270    -2.1426030
  H       -1.2397720    -0.5473760     2.1441080
  H       -3.5056790     0.5103880    -2.1530410
  H       -3.5044150     0.5182820     2.1519550
  H        2.4499920    -2.2642250     0.0030920
  H       -4.6315180     1.0439850    -0.0011840
  H        4.5737430    -0.9107530     0.0012630
  H        4.3934310     1.6024650    -0.0022300
  H        2.1135170     2.6292430    -0.0037130
units angstrom
no_reorient  #important for SAPT in psi4, default
symmetry c1  #important for SAPT in psi4, default
}

set PROPERTIES_ORIGIN ["COM"]
properties('MP2/aug-cc-pvtz', properties = ['dipole'])
--------------------------------------------------------------------------

    Molecular point group: c1
  Charge       = 0
  Multiplicity = 1
  Basis Set: AUG-CC-PVTZ
    Blend: AUG-CC-PVTZ
  Basis Set: (AUG-CC-PVTZ AUX)
    Blend: AUG-CC-PVTZ-JKFIT

    Orbital Energies [Eh]
    ---------------------

    Doubly Occupied:

       1A    -20.595473     2A    -15.564632     3A    -11.343945
       4A    -11.283375     5A    -11.267631     6A    -11.265738
       7A    -11.249175     8A    -11.240457     9A    -11.238268
      10A    -11.236828    11A    -11.236810    12A    -11.235128
      13A    -11.225273    14A     -1.432205    15A     -1.255104
      16A     -1.164198    17A     -1.092230    18A     -1.051437
      19A     -1.015795    20A     -1.000398    21A     -0.875995
      22A     -0.858163    23A     -0.851989    24A     -0.796579
      25A     -0.742682    26A     -0.705998    27A     -0.675629
      28A     -0.667630    29A     -0.657665    30A     -0.628500
      31A     -0.617361    32A     -0.601184    33A     -0.588588
      34A     -0.570828    35A     -0.563913    36A     -0.536352
      37A     -0.522627    38A     -0.504399    39A     -0.497041
      40A     -0.471798    41A     -0.430583    42A     -0.388975
      43A     -0.360941    44A     -0.331592    45A     -0.321443

  @DF-RHF Final Energy:  -551.22074076029617

   => Energetics <=

    Nuclear Repulsion Energy =            712.6951657702866214
    One-Electron Energy =               -2162.3066999533343733
    Two-Electron Energy =                 898.3907934227515852
    Total Energy =                       -551.2207407602961666
  Basis Set: (AUG-CC-PVTZ AUX)
    Blend: AUG-CC-PVTZ-RI
    Molecular point group: c1

    Geometry (in Angstrom), charge = 0, multiplicity = 1:

       Center              X                  Y                   Z               Mass
    ------------   -----------------  -----------------  -----------------  -----------------
         O            0.079826983660    -1.256078896404    -0.010640717759    15.994914619570
         N            1.086501983660     0.846618103596    -0.013511717759    14.003074004430
         C           -1.145053016340    -0.578028896404    -0.011476717759    12.000000000000
         C           -1.671761816340    -0.334335696404    -1.052900417759    12.000000000000
         C           -1.759413016340    -0.289005896404     1.203965282241    12.000000000000
         C            1.209875983660    -0.476031896404    -0.011671717759    12.000000000000
         C           -3.024071016340     0.298318103596    -1.222197717759    12.000000000000
         C           -3.023359016340     0.302753103596     1.197124282241    12.000000000000
         C           -3.656094016340     0.599076103596    -0.012899717759    12.000000000000
         C            2.431202983660    -1.164431896404    -0.010685717759    12.000000000000
         C            3.593416983660    -0.406531896404    -0.011709717759    12.000000000000
         C            3.497234983660     0.990410103596    -0.013650717759    12.000000000000
         C            2.230741983660     1.562877103596    -0.014475717759    12.000000000000
         H           -1.250659016340    -0.540656896404    -2.154871717759     1.007825032230
         H           -1.249419016340    -0.532805896404     2.131839282241     1.007825032230
         H           -3.515326016340     0.524958103596    -2.165309717759     1.007825032230
         H           -3.514062016340     0.532852103596     2.139686282241     1.007825032230
         H            2.440344983660    -2.249654896404    -0.009176717759     1.007825032230
         H           -4.641165016340     1.058555103596    -0.013452717759     1.007825032230
         H            4.564095983660    -0.896182896404    -0.011005717759     1.007825032230
         H            4.383783983660     1.617035103596    -0.014498717759     1.007825032230
         H            2.103869983660     2.643813103596    -0.015981717759     1.007825032230

  Basis Set: AUG-CC-PVTZ
    Blend: AUG-CC-PVTZ
  Basis Set: (AUG-CC-PVTZ AUX)
    Blend: AUG-CC-PVTZ-JKFIT
	 Reference Energy          =    -551.2207407602961666 [Eh]
	 Singles Energy            =      -0.0000000000000000 [Eh]
	 Same-Spin Energy          =      -0.5988877774824063 [Eh]
	 Opposite-Spin Energy      =      -1.8259949172506302 [Eh]
	 Correlation Energy        =      -2.4248826947330366 [Eh]
	 Total Energy              =    -553.6456234550291811 [Eh]

	 ================> DF-SCS-MP2 Energies <==================
	-----------------------------------------------------------
	 SCS Same-Spin Scale       =       0.3333333333333333 [-]
	 SCS Opposite-Spin Scale   =       1.2000000000000000 [-]
	 SCS Same-Spin Energy      =      -0.1996292591608021 [Eh]
	 SCS Opposite-Spin Energy  =      -2.1911939007007564 [Eh]
	 SCS Correlation Energy    =      -2.3908231598615584 [Eh]
	 SCS Total Energy          =    -553.6115639201577778 [Eh]
	-----------------------------------------------------------

  Dipole Moment: [D]
     X:     1.1472      Y:     0.2797      Z:    -0.0338     Total:     1.1813

*** Psi4 exiting successfully. Buy a developer a beer!
