                               Psi4 1.3.2 release

  ==> Input File <==

--------------------------------------------------------------------------
#psi4
#
memory 32 gb

molecule  {
0 1
  O        0.0894740    -1.2706490     0.0016280
  N        1.1192512     0.8339997    -0.0012451
  C       -1.1354060    -0.5925990     0.0007920
  C       -1.7504730    -0.3080250    -1.2153360
  C       -1.7497660    -0.3035760     1.2162340
  C        1.2195230    -0.4906020     0.0005970
  C       -3.0144240     0.2837480    -1.2099290
  C       -3.0137120     0.2881830     1.2093930
  C       -3.6464470     0.5845060    -0.0006310
  C        2.4408500    -1.1790020     0.0015830
  C        3.6030640    -0.4211020     0.0005590
  C        3.5068820     0.9758400    -0.0013820
  C        2.2403890     1.5483070    -0.0022070
  H       -1.2410120    -0.5552270    -2.1426030
  H       -1.2397720    -0.5473760     2.1441080
  H       -3.5056790     0.5103880    -2.1530410
  H       -3.5044150     0.5182820     2.1519550
  H        2.4499920    -2.2642250     0.0030920
  H       -4.6315180     1.0439850    -0.0011840
  H        4.5737430    -0.9107530     0.0012630
  H        4.3934310     1.6024650    -0.0022300
  H        2.1135170     2.6292430    -0.0037130
units angstrom
no_reorient  #important for SAPT in psi4, default
symmetry c1  #important for SAPT in psi4, default
}

set PROPERTIES_ORIGIN ["COM"]
properties('MP2/aug-cc-pvtz', properties = ['dipole'])
--------------------------------------------------------------------------

    Molecular point group: c1
  Charge       = 0
  Multiplicity = 1
  Basis Set: AUG-CC-PVTZ
    Blend: AUG-CC-PVTZ
  Basis Set: (AUG-CC-PVTZ AUX)
    Blend: AUG-CC-PVTZ-JKFIT

    Orbital Energies [Eh]
    ---------------------

    Doubly Occupied:

       1A    -20.601711     2A    -15.563319     3A    -11.345648
       4A    -11.296940     5A    -11.281763     6A    -11.265651
       7A    -11.241146     8A    -11.239286     9A    -11.239179
      10A    -11.236807    11A    -11.234314    12A    -11.234308
      13A    -11.233322    14A     -1.433633    15A     -1.260611
      16A     -1.148459    17A     -1.092583    18A     -1.040909
      19A     -1.017737    20A     -0.996804    21A     -0.877524
      22A     -0.862565    23A     -0.836418    24A     -0.806812
      25A     -0.740762    26A     -0.707067    27A     -0.680037
      28A     -0.668186    29A     -0.659358    30A     -0.628280
      31A     -0.615675    32A     -0.595323    33A     -0.591859
      34A     -0.580925    35A     -0.570226    36A     -0.537645
      37A     -0.518867    38A     -0.514267    39A     -0.495912
      40A     -0.484167    41A     -0.428192    42A     -0.390590
      43A     -0.338974    44A     -0.329866    45A     -0.328525

  @DF-RHF Final Energy:  -551.28330522491308

   => Energetics <=

    Nuclear Repulsion Energy =            709.2404907167037891
    One-Electron Energy =               -2155.4632942715056743
    Two-Electron Energy =                 894.9394983298888064
    Total Energy =                       -551.2833052249130787
  Basis Set: (AUG-CC-PVTZ AUX)
    Blend: AUG-CC-PVTZ-RI
    Molecular point group: c1

    Geometry (in Angstrom), charge = 0, multiplicity = 1:

       Center              X                  Y                   Z               Mass
    ------------   -----------------  -----------------  -----------------  -----------------
         O            0.084134012450    -1.259106336641     0.001614502001    15.994914619570
         N            1.113911212450     0.845542363359    -0.001258597999    14.003074004430
         C           -1.140745987550    -0.581056336641     0.000778502001    12.000000000000
         C           -1.755812987550    -0.296482336641    -1.215349497999    12.000000000000
         C           -1.755105987550    -0.292033336641     1.216220502001    12.000000000000
         C            1.214183012450    -0.479059336641     0.000583502001    12.000000000000
         C           -3.019763987550     0.295290663359    -1.209942497999    12.000000000000
         C           -3.019051987550     0.299725663359     1.209379502001    12.000000000000
         C           -3.651786987550     0.596048663359    -0.000644497999    12.000000000000
         C            2.435510012450    -1.167459336641     0.001569502001    12.000000000000
         C            3.597724012450    -0.409559336641     0.000545502001    12.000000000000
         C            3.501542012450     0.987382663359    -0.001395497999    12.000000000000
         C            2.235049012450     1.559849663359    -0.002220497999    12.000000000000
         H           -1.246351987550    -0.543684336641    -2.142616497999     1.007825032230
         H           -1.245111987550    -0.535833336641     2.144094502001     1.007825032230
         H           -3.511018987550     0.521930663359    -2.153054497999     1.007825032230
         H           -3.509754987550     0.529824663359     2.151941502001     1.007825032230
         H            2.444652012450    -2.252682336641     0.003078502001     1.007825032230
         H           -4.636857987550     1.055527663359    -0.001197497999     1.007825032230
         H            4.568403012450    -0.899210336641     0.001249502001     1.007825032230
         H            4.388091012450     1.614007663359    -0.002243497999     1.007825032230
         H            2.108177012450     2.640785663359    -0.003726497999     1.007825032230

  Basis Set: AUG-CC-PVTZ
    Blend: AUG-CC-PVTZ
  Basis Set: (AUG-CC-PVTZ AUX)
    Blend: AUG-CC-PVTZ-JKFIT
	 Reference Energy          =    -551.2833052249130787 [Eh]
	 Singles Energy            =      -0.0000000000000000 [Eh]
	 Same-Spin Energy          =      -0.5995072915327362 [Eh]
	 Opposite-Spin Energy      =      -1.8241558752254772 [Eh]
	 Correlation Energy        =      -2.4236631667582134 [Eh]
	 Total Energy              =    -553.7069683916712393 [Eh]

	 ================> DF-SCS-MP2 Energies <==================
	-----------------------------------------------------------
	 SCS Same-Spin Scale       =       0.3333333333333333 [-]
	 SCS Opposite-Spin Scale   =       1.2000000000000000 [-]
	 SCS Same-Spin Energy      =      -0.1998357638442454 [Eh]
	 SCS Opposite-Spin Energy  =      -2.1889870502705726 [Eh]
	 SCS Correlation Energy    =      -2.3888228141148180 [Eh]
	 SCS Total Energy          =    -553.6721280390279389 [Eh]
	-----------------------------------------------------------

  Dipole Moment: [D]
     X:     1.3323      Y:     0.2170      Z:    -0.0001     Total:     1.3498

*** Psi4 exiting successfully. Buy a developer a beer!
