                               Psi4 1.4a3.dev225

  ==> Input File <==

--------------------------------------------------------------------------
#psi4
#
memory 32 gb

molecule  {
0 1
  O        0.0894740    -1.2706490     0.0016280
  N        1.0961490     0.8320480    -0.0012430
  C       -1.1354060    -0.5925990     0.0007920
  C       -1.7504730    -0.3080250    -1.2153360
  C       -1.7497660    -0.3035760     1.2162340
  C        1.2213805    -0.5105155     0.0006247
  C       -3.0144240     0.2837480    -1.2099290
  C       -3.0137120     0.2881830     1.2093930
  C       -3.6464470     0.5845060    -0.0006310
  C        2.4408500    -1.1790020     0.0015830
  C        3.6030640    -0.4211020     0.0005590
  C        3.5068820     0.9758400    -0.0013820
  C        2.2403890     1.5483070    -0.0022070
  H       -1.2410120    -0.5552270    -2.1426030
  H       -1.2397720    -0.5473760     2.1441080
  H       -3.5056790     0.5103880    -2.1530410
  H       -3.5044150     0.5182820     2.1519550
  H        2.4499920    -2.2642250     0.0030920
  H       -4.6315180     1.0439850    -0.0011840
  H        4.5737430    -0.9107530     0.0012630
  H        4.3934310     1.6024650    -0.0022300
  H        2.1135170     2.6292430    -0.0037130
units angstrom
no_reorient  #important for SAPT in psi4, default
symmetry c1  #important for SAPT in psi4, default
}

set PROPERTIES_ORIGIN ["COM"]
properties('MP2/aug-cc-pvtz', properties = ['dipole'])
--------------------------------------------------------------------------

    Molecular point group: c1
  Charge       = 0
  Multiplicity = 1
  Basis Set: AUG-CC-PVTZ
    Blend: AUG-CC-PVTZ
  Basis Set: (AUG-CC-PVTZ AUX)
    Blend: AUG-CC-PVTZ-JKFIT

    Orbital Energies [Eh]
    ---------------------

    Doubly Occupied:

       1A    -20.601988     2A    -15.565978     3A    -11.345839
       4A    -11.297588     5A    -11.283758     6A    -11.267077
       7A    -11.240014     8A    -11.239190     9A    -11.239084
      10A    -11.237197    11A    -11.234313    12A    -11.234307
      13A    -11.233225    14A     -1.436824    15A     -1.249799
      16A     -1.148586    17A     -1.092148    18A     -1.041363
      19A     -1.017673    20A     -0.996943    21A     -0.879286
      22A     -0.859193    23A     -0.836444    24A     -0.806535
      25A     -0.741184    26A     -0.705191    27A     -0.679715
      28A     -0.669494    29A     -0.659853    30A     -0.628488
      31A     -0.615149    32A     -0.594176    33A     -0.591662
      34A     -0.580050    35A     -0.570341    36A     -0.534818
      37A     -0.516896    38A     -0.514458    39A     -0.496133
      40A     -0.483952    41A     -0.431129    42A     -0.387925
      43A     -0.338998    44A     -0.330369    45A     -0.328194

  @DF-RHF Final Energy:  -551.28179727745248

   => Energetics <=

    Nuclear Repulsion Energy =            708.9639903471108937
    One-Electron Energy =               -2154.9265242062128891
    Two-Electron Energy =                 894.6807365816495121
    Total Energy =                       -551.2817972774524833
  Basis Set: (AUG-CC-PVTZ AUX)
    Blend: AUG-CC-PVTZ-RI
    Molecular point group: c1

    Geometry (in Angstrom), charge = 0, multiplicity = 1:

       Center              X                  Y                   Z               Mass
    ------------   -----------------  -----------------  -----------------  -----------------
         O            0.085894780609    -1.257549697438     0.001612387020    15.994914619570
         N            1.092569780609     0.845147302562    -0.001258612980    14.003074004430
         C           -1.138985219391    -0.579499697438     0.000776387020    12.000000000000
         C           -1.754052219391    -0.294925697438    -1.215351612980    12.000000000000
         C           -1.753345219391    -0.290476697438     1.216218387020    12.000000000000
         C            1.217801280609    -0.497416197438     0.000609087020    12.000000000000
         C           -3.018003219391     0.296847302562    -1.209944612980    12.000000000000
         C           -3.017291219391     0.301282302562     1.209377387020    12.000000000000
         C           -3.650026219391     0.597605302562    -0.000646612980    12.000000000000
         C            2.437270780609    -1.165902697438     0.001567387020    12.000000000000
         C            3.599484780609    -0.408002697438     0.000543387020    12.000000000000
         C            3.503302780609     0.988939302562    -0.001397612980    12.000000000000
         C            2.236809780609     1.561406302562    -0.002222612980    12.000000000000
         H           -1.244591219391    -0.542127697438    -2.142618612980     1.007825032230
         H           -1.243351219391    -0.534276697438     2.144092387020     1.007825032230
         H           -3.509258219391     0.523487302562    -2.153056612980     1.007825032230
         H           -3.507994219391     0.531381302562     2.151939387020     1.007825032230
         H            2.446412780609    -2.251125697438     0.003076387020     1.007825032230
         H           -4.635097219391     1.057084302562    -0.001199612980     1.007825032230
         H            4.570163780609    -0.897653697438     0.001247387020     1.007825032230
         H            4.389851780609     1.615564302562    -0.002245612980     1.007825032230
         H            2.109937780609     2.642342302562    -0.003728612980     1.007825032230

  Basis Set: AUG-CC-PVTZ
    Blend: AUG-CC-PVTZ
  Basis Set: (AUG-CC-PVTZ AUX)
    Blend: AUG-CC-PVTZ-JKFIT
	 Reference Energy          =    -551.2817972774524833 [Eh]
	 Singles Energy            =      -0.0000000000000000 [Eh]
	 Same-Spin Energy          =      -0.5997582967768842 [Eh]
	 Opposite-Spin Energy      =      -1.8249540256092254 [Eh]
	 Correlation Energy        =      -2.4247123223861093 [Eh]
	 Total Energy              =    -553.7065095998385686 [Eh]

	 ================> DF-SCS-MP2 Energies <==================
	-----------------------------------------------------------
	 SCS Same-Spin Scale       =       0.3333333333333333 [-]
	 SCS Opposite-Spin Scale   =       1.2000000000000000 [-]
	 SCS Same-Spin Energy      =      -0.1999194322589614 [Eh]
	 SCS Opposite-Spin Energy  =      -2.1899448307310703 [Eh]
	 SCS Correlation Energy    =      -2.3898642629900317 [Eh]
	 SCS Total Energy          =    -553.6716615404425283 [Eh]
	-----------------------------------------------------------

  Dipole Moment: [D]
     X:     1.3424      Y:     0.1854      Z:    -0.0000     Total:     1.3551

*** Psi4 exiting successfully. Buy a developer a beer!
