                               Psi4 1.3.2 release

  ==> Input File <==

--------------------------------------------------------------------------
#psi4
#
memory 32 gb

molecule  {
0 1
  O        0.0894740    -1.2706490     0.0016280
  N        1.0961490     0.8320480    -0.0012430
  C       -1.1354060    -0.5925990     0.0007920
  C       -1.7504730    -0.3080250    -1.2153360
  C       -1.7497660    -0.3035760     1.2162340
  C        1.3114860    -0.4787740     0.0005830
  C       -3.0144240     0.2837480    -1.2099290
  C       -3.0137120     0.2881830     1.2093930
  C       -3.6464470     0.5845060    -0.0006310
  C        2.4408500    -1.1790020     0.0015830
  C        3.6030640    -0.4211020     0.0005590
  C        3.5068820     0.9758400    -0.0013820
  C        2.2403890     1.5483070    -0.0022070
  H       -1.2410120    -0.5552270    -2.1426030
  H       -1.2397720    -0.5473760     2.1441080
  H       -3.5056790     0.5103880    -2.1530410
  H       -3.5044150     0.5182820     2.1519550
  H        2.4499920    -2.2642250     0.0030920
  H       -4.6315180     1.0439850    -0.0011840
  H        4.5737430    -0.9107530     0.0012630
  H        4.3934310     1.6024650    -0.0022300
  H        2.1135170     2.6292430    -0.0037130
units angstrom
no_reorient  #important for SAPT in psi4, default
symmetry c1  #important for SAPT in psi4, default
}

set PROPERTIES_ORIGIN ["COM"]
properties('MP2/aug-cc-pvtz', properties = ['dipole'])
--------------------------------------------------------------------------

    Molecular point group: c1
  Charge       = 0
  Multiplicity = 1
  Basis Set: AUG-CC-PVTZ
    Blend: AUG-CC-PVTZ
  Basis Set: (AUG-CC-PVTZ AUX)
    Blend: AUG-CC-PVTZ-JKFIT

    Orbital Energies [Eh]
    ---------------------

    Doubly Occupied:

       1A    -20.582012     2A    -15.574866     3A    -11.340831
       4A    -11.290561     5A    -11.288667     6A    -11.274779
       7A    -11.244974     8A    -11.241152     9A    -11.233888
      10A    -11.233788    11A    -11.227543    12A    -11.227237
      13A    -11.227195    14A     -1.396397    15A     -1.265826
      16A     -1.140824    17A     -1.107536    18A     -1.046672
      19A     -1.011602    20A     -0.991825    21A     -0.885828
      22A     -0.857325    23A     -0.829304    24A     -0.803126
      25A     -0.733812    26A     -0.703471    27A     -0.679297
      28A     -0.663461    29A     -0.647031    30A     -0.635986
      31A     -0.608646    32A     -0.593522    33A     -0.586210
      34A     -0.577316    35A     -0.568677    36A     -0.536324
      37A     -0.514361    38A     -0.507478    39A     -0.485717
      40A     -0.474550    41A     -0.448264    42A     -0.395280
      43A     -0.347673    44A     -0.331743    45A     -0.320348

  @DF-RHF Final Energy:  -551.27043653298983

   => Energetics <=

    Nuclear Repulsion Energy =            708.6880746670609597
    One-Electron Energy =               -2154.5511748697931580
    Two-Electron Energy =                 894.5926636697424783
    Total Energy =                       -551.2704365329898337
  Basis Set: (AUG-CC-PVTZ AUX)
    Blend: AUG-CC-PVTZ-RI
    Molecular point group: c1

    Geometry (in Angstrom), charge = 0, multiplicity = 1:

       Center              X                  Y                   Z               Mass
    ------------   -----------------  -----------------  -----------------  -----------------
         O            0.079574116407    -1.259776280307     0.001615312166    15.994914619570
         N            1.086249116407     0.842920719693    -0.001255687834    14.003074004430
         C           -1.145305883593    -0.581726280307     0.000779312166    12.000000000000
         C           -1.760372883593    -0.297152280307    -1.215348687834    12.000000000000
         C           -1.759665883593    -0.292703280307     1.216221312166    12.000000000000
         C            1.301586116407    -0.467901280307     0.000570312166    12.000000000000
         C           -3.024323883593     0.294620719693    -1.209941687834    12.000000000000
         C           -3.023611883593     0.299055719693     1.209380312166    12.000000000000
         C           -3.656346883593     0.595378719693    -0.000643687834    12.000000000000
         C            2.430950116407    -1.168129280307     0.001570312166    12.000000000000
         C            3.593164116407    -0.410229280307     0.000546312166    12.000000000000
         C            3.496982116407     0.986712719693    -0.001394687834    12.000000000000
         C            2.230489116407     1.559179719693    -0.002219687834    12.000000000000
         H           -1.250911883593    -0.544354280307    -2.142615687834     1.007825032230
         H           -1.249671883593    -0.536503280307     2.144095312166     1.007825032230
         H           -3.515578883593     0.521260719693    -2.153053687834     1.007825032230
         H           -3.514314883593     0.529154719693     2.151942312166     1.007825032230
         H            2.440092116407    -2.253352280307     0.003079312166     1.007825032230
         H           -4.641417883593     1.054857719693    -0.001196687834     1.007825032230
         H            4.563843116407    -0.899880280307     0.001250312166     1.007825032230
         H            4.383531116407     1.613337719693    -0.002242687834     1.007825032230
         H            2.103617116407     2.640115719693    -0.003725687834     1.007825032230

  Basis Set: AUG-CC-PVTZ
    Blend: AUG-CC-PVTZ
  Basis Set: (AUG-CC-PVTZ AUX)
    Blend: AUG-CC-PVTZ-JKFIT
	 Reference Energy          =    -551.2704365329898337 [Eh]
	 Singles Energy            =      -0.0000000000000000 [Eh]
	 Same-Spin Energy          =      -0.6002952419608136 [Eh]
	 Opposite-Spin Energy      =      -1.8261503494081275 [Eh]
	 Correlation Energy        =      -2.4264455913689411 [Eh]
	 Total Energy              =    -553.6968821243588081 [Eh]

	 ================> DF-SCS-MP2 Energies <==================
	-----------------------------------------------------------
	 SCS Same-Spin Scale       =       0.3333333333333333 [-]
	 SCS Opposite-Spin Scale   =       1.2000000000000000 [-]
	 SCS Same-Spin Energy      =      -0.2000984139869379 [Eh]
	 SCS Opposite-Spin Energy  =      -2.1913804192897528 [Eh]
	 SCS Correlation Energy    =      -2.3914788332766905 [Eh]
	 SCS Total Energy          =    -553.6619153662664985 [Eh]
	-----------------------------------------------------------

  Dipole Moment: [D]
     X:     2.2798      Y:     0.4604      Z:    -0.0004     Total:     2.3258

*** Psi4 exiting successfully. Buy a developer a beer!
