                               Psi4 1.4a3.dev225

  ==> Input File <==

--------------------------------------------------------------------------
#psi4
#
memory 32 gb

molecule  {
0 1
  O        0.0894740    -1.2706490     0.0016280
  N        1.0961490     0.8320480    -0.0012430
  C       -1.1354060    -0.5925990     0.0007920
  C       -1.7504730    -0.3080250    -1.2153360
  C       -1.7497660    -0.3035760     1.2162340
  C        1.2148793    -0.4408182     0.0005277
  C       -3.0144240     0.2837480    -1.2099290
  C       -3.0137120     0.2881830     1.2093930
  C       -3.6464470     0.5845060    -0.0006310
  C        2.4408500    -1.1790020     0.0015830
  C        3.6030640    -0.4211020     0.0005590
  C        3.5068820     0.9758400    -0.0013820
  C        2.2403890     1.5483070    -0.0022070
  H       -1.2410120    -0.5552270    -2.1426030
  H       -1.2397720    -0.5473760     2.1441080
  H       -3.5056790     0.5103880    -2.1530410
  H       -3.5044150     0.5182820     2.1519550
  H        2.4499920    -2.2642250     0.0030920
  H       -4.6315180     1.0439850    -0.0011840
  H        4.5737430    -0.9107530     0.0012630
  H        4.3934310     1.6024650    -0.0022300
  H        2.1135170     2.6292430    -0.0037130
units angstrom
no_reorient  #important for SAPT in psi4, default
symmetry c1  #important for SAPT in psi4, default
}

set PROPERTIES_ORIGIN ["COM"]
properties('MP2/aug-cc-pvtz', properties = ['dipole'])
--------------------------------------------------------------------------

    Molecular point group: c1
  Charge       = 0
  Multiplicity = 1
  Basis Set: AUG-CC-PVTZ
    Blend: AUG-CC-PVTZ
  Basis Set: (AUG-CC-PVTZ AUX)
    Blend: AUG-CC-PVTZ-JKFIT

    Orbital Energies [Eh]
    ---------------------

    Doubly Occupied:

       1A    -20.596922     2A    -15.564862     3A    -11.344556
       4A    -11.293698     5A    -11.285680     6A    -11.266124
       7A    -11.246479     8A    -11.240213     9A    -11.237967
      10A    -11.237862    11A    -11.232453    12A    -11.232451
      13A    -11.231866    14A     -1.424558    15A     -1.271464
      16A     -1.146155    17A     -1.096876    18A     -1.037352
      19A     -1.016212    20A     -0.995143    21A     -0.878647
      22A     -0.862286    23A     -0.834678    24A     -0.803454
      25A     -0.736721    26A     -0.708602    27A     -0.678942
      28A     -0.667188    29A     -0.656435    30A     -0.627660
      31A     -0.612925    32A     -0.596240    33A     -0.590721
      34A     -0.580814    35A     -0.569176    36A     -0.540325
      37A     -0.518338    38A     -0.512245    39A     -0.493647
      40A     -0.481323    41A     -0.434468    42A     -0.395757
      43A     -0.337808    44A     -0.331196    45A     -0.326890

  @DF-RHF Final Energy:  -551.28040696475580

   => Energetics <=

    Nuclear Repulsion Energy =            709.3888884396993717
    One-Electron Energy =               -2155.7878319277247101
    Two-Electron Energy =                 895.1185365232696540
    Total Energy =                       -551.2804069647557981
  Basis Set: (AUG-CC-PVTZ AUX)
    Blend: AUG-CC-PVTZ-RI
    Molecular point group: c1

    Geometry (in Angstrom), charge = 0, multiplicity = 1:

       Center              X                  Y                   Z               Mass
    ------------   -----------------  -----------------  -----------------  -----------------
         O            0.086350822717    -1.262438780003     0.001619191315    15.994914619570
         N            1.093025822717     0.840258219997    -0.001251808685    14.003074004430
         C           -1.138529177283    -0.584388780003     0.000783191315    12.000000000000
         C           -1.753596177283    -0.299814780003    -1.215344808685    12.000000000000
         C           -1.752889177283    -0.295365780003     1.216225191315    12.000000000000
         C            1.211756122717    -0.432607980003     0.000518891315    12.000000000000
         C           -3.017547177283     0.291958219997    -1.209937808685    12.000000000000
         C           -3.016835177283     0.296393219997     1.209384191315    12.000000000000
         C           -3.649570177283     0.592716219997    -0.000639808685    12.000000000000
         C            2.437726822717    -1.170791780003     0.001574191315    12.000000000000
         C            3.599940822717    -0.412891780003     0.000550191315    12.000000000000
         C            3.503758822717     0.984050219997    -0.001390808685    12.000000000000
         C            2.237265822717     1.556517219997    -0.002215808685    12.000000000000
         H           -1.244135177283    -0.547016780003    -2.142611808685     1.007825032230
         H           -1.242895177283    -0.539165780003     2.144099191315     1.007825032230
         H           -3.508802177283     0.518598219997    -2.153049808685     1.007825032230
         H           -3.507538177283     0.526492219997     2.151946191315     1.007825032230
         H            2.446868822717    -2.256014780003     0.003083191315     1.007825032230
         H           -4.634641177283     1.052195219997    -0.001192808685     1.007825032230
         H            4.570619822717    -0.902542780003     0.001254191315     1.007825032230
         H            4.390307822717     1.610675219997    -0.002238808685     1.007825032230
         H            2.110393822717     2.637453219997    -0.003721808685     1.007825032230

  Basis Set: AUG-CC-PVTZ
    Blend: AUG-CC-PVTZ
  Basis Set: (AUG-CC-PVTZ AUX)
    Blend: AUG-CC-PVTZ-JKFIT
	 Reference Energy          =    -551.2804069647557981 [Eh]
	 Singles Energy            =      -0.0000000000000000 [Eh]
	 Same-Spin Energy          =      -0.5991907951615772 [Eh]
	 Opposite-Spin Energy      =      -1.8245222417014337 [Eh]
	 Correlation Energy        =      -2.4237130368630111 [Eh]
	 Total Energy              =    -553.7041200016187759 [Eh]

	 ================> DF-SCS-MP2 Energies <==================
	-----------------------------------------------------------
	 SCS Same-Spin Scale       =       0.3333333333333333 [-]
	 SCS Opposite-Spin Scale   =       1.2000000000000000 [-]
	 SCS Same-Spin Energy      =      -0.1997302650538591 [Eh]
	 SCS Opposite-Spin Energy  =      -2.1894266900417203 [Eh]
	 SCS Correlation Energy    =      -2.3891569550955793 [Eh]
	 SCS Total Energy          =    -553.6695639198513845 [Eh]
	-----------------------------------------------------------

  Dipole Moment: [D]
     X:     1.5835      Y:     0.3064      Z:    -0.0002     Total:     1.6129

*** Psi4 exiting successfully. Buy a developer a beer!
