                               Psi4 1.3.2 release

  ==> Input File <==

--------------------------------------------------------------------------
#psi4
#
memory 32 gb

molecule  {
0 1
  O        0.0894740    -1.2706490     0.0016280
  N        1.0961490     0.8320480    -0.0012430
  C       -1.1354060    -0.5925990     0.0007920
  C       -1.7504730    -0.3080250    -1.2153360
  C       -1.7497660    -0.3035760     1.2162340
  C        1.2656077    -0.4854906     0.0005911
  C       -3.0144240     0.2837480    -1.2099290
  C       -3.0137120     0.2881830     1.2093930
  C       -3.6464470     0.5845060    -0.0006310
  C        2.4408500    -1.1790020     0.0015830
  C        3.6030640    -0.4211020     0.0005590
  C        3.5068820     0.9758400    -0.0013820
  C        2.2403890     1.5483070    -0.0022070
  H       -1.2410120    -0.5552270    -2.1426030
  H       -1.2397720    -0.5473760     2.1441080
  H       -3.5056790     0.5103880    -2.1530410
  H       -3.5044150     0.5182820     2.1519550
  H        2.4499920    -2.2642250     0.0030920
  H       -4.6315180     1.0439850    -0.0011840
  H        4.5737430    -0.9107530     0.0012630
  H        4.3934310     1.6024650    -0.0022300
  H        2.1135170     2.6292430    -0.0037130
units angstrom
no_reorient  #important for SAPT in psi4, default
symmetry c1  #important for SAPT in psi4, default
}

set PROPERTIES_ORIGIN ["COM"]
properties('MP2/aug-cc-pvtz', properties = ['dipole'])
--------------------------------------------------------------------------

    Molecular point group: c1
  Charge       = 0
  Multiplicity = 1
  Basis Set: AUG-CC-PVTZ
    Blend: AUG-CC-PVTZ
  Basis Set: (AUG-CC-PVTZ AUX)
    Blend: AUG-CC-PVTZ-JKFIT

    Orbital Energies [Eh]
    ---------------------

    Doubly Occupied:

       1A    -20.591361     2A    -15.570296     3A    -11.343012
       4A    -11.292571     5A    -11.287372     6A    -11.270788
       7A    -11.241576     8A    -11.241531     9A    -11.236346
      10A    -11.236243    11A    -11.230502    12A    -11.230494
      13A    -11.230150    14A     -1.413956    15A     -1.260717
      16A     -1.144286    17A     -1.099994    18A     -1.043076
      19A     -1.014409    20A     -0.994547    21A     -0.881541
      22A     -0.858958    23A     -0.832577    24A     -0.804839
      25A     -0.736068    26A     -0.704793    27A     -0.678849
      28A     -0.666253    29A     -0.652612    30A     -0.632158
      31A     -0.612084    32A     -0.594025    33A     -0.588542
      34A     -0.577862    35A     -0.569874    36A     -0.536912
      37A     -0.516439    38A     -0.510703    39A     -0.490806
      40A     -0.479134    41A     -0.440592    42A     -0.392417
      43A     -0.341072    44A     -0.333351    45A     -0.324161

  @DF-RHF Final Energy:  -551.27919950296882

   => Energetics <=

    Nuclear Repulsion Energy =            708.8574796488273932
    One-Electron Energy =               -2154.8136558673663785
    Two-Electron Energy =                 894.6769767155701629
    Total Energy =                       -551.2791995029688223
  Basis Set: (AUG-CC-PVTZ AUX)
    Blend: AUG-CC-PVTZ-RI
    Molecular point group: c1

    Geometry (in Angstrom), charge = 0, multiplicity = 1:

       Center              X                  Y                   Z               Mass
    ------------   -----------------  -----------------  -----------------  -----------------
         O            0.082792358672    -1.259305128456     0.001614743972    15.994914619570
         N            1.089467358672     0.843391871544    -0.001256256028    14.003074004430
         C           -1.142087641328    -0.581255128456     0.000778743972    12.000000000000
         C           -1.757154641328    -0.296681128456    -1.215349256028    12.000000000000
         C           -1.756447641328    -0.292232128456     1.216220743972    12.000000000000
         C            1.258926058672    -0.474146728456     0.000577843972    12.000000000000
         C           -3.021105641328     0.295091871544    -1.209942256028    12.000000000000
         C           -3.020393641328     0.299526871544     1.209379743972    12.000000000000
         C           -3.653128641328     0.595849871544    -0.000644256028    12.000000000000
         C            2.434168358672    -1.167658128456     0.001569743972    12.000000000000
         C            3.596382358672    -0.409758128456     0.000545743972    12.000000000000
         C            3.500200358672     0.987183871544    -0.001395256028    12.000000000000
         C            2.233707358672     1.559650871544    -0.002220256028    12.000000000000
         H           -1.247693641328    -0.543883128456    -2.142616256028     1.007825032230
         H           -1.246453641328    -0.536032128456     2.144094743972     1.007825032230
         H           -3.512360641328     0.521731871544    -2.153054256028     1.007825032230
         H           -3.511096641328     0.529625871544     2.151941743972     1.007825032230
         H            2.443310358672    -2.252881128456     0.003078743972     1.007825032230
         H           -4.638199641328     1.055328871544    -0.001197256028     1.007825032230
         H            4.567061358672    -0.899409128456     0.001249743972     1.007825032230
         H            4.386749358672     1.613808871544    -0.002243256028     1.007825032230
         H            2.106835358672     2.640586871544    -0.003726256028     1.007825032230

  Basis Set: AUG-CC-PVTZ
    Blend: AUG-CC-PVTZ
  Basis Set: (AUG-CC-PVTZ AUX)
    Blend: AUG-CC-PVTZ-JKFIT
	 Reference Energy          =    -551.2791995029688223 [Eh]
	 Singles Energy            =      -0.0000000000000000 [Eh]
	 Same-Spin Energy          =      -0.5999038806452416 [Eh]
	 Opposite-Spin Energy      =      -1.8253201591879260 [Eh]
	 Correlation Energy        =      -2.4252240398331675 [Eh]
	 Total Energy              =    -553.7044235428020329 [Eh]

	 ================> DF-SCS-MP2 Energies <==================
	-----------------------------------------------------------
	 SCS Same-Spin Scale       =       0.3333333333333333 [-]
	 SCS Opposite-Spin Scale   =       1.2000000000000000 [-]
	 SCS Same-Spin Energy      =      -0.1999679602150805 [Eh]
	 SCS Opposite-Spin Energy  =      -2.1903841910255113 [Eh]
	 SCS Correlation Energy    =      -2.3903521512405916 [Eh]
	 SCS Total Energy          =    -553.6695516542093856 [Eh]
	-----------------------------------------------------------

  Dipole Moment: [D]
     X:     1.8506      Y:     0.3395      Z:    -0.0003     Total:     1.8815

*** Psi4 exiting successfully. Buy a developer a beer!
