                               Psi4 1.3.2 release

  ==> Input File <==

--------------------------------------------------------------------------
#psi4
#
memory 32 gb

molecule  {
0 1
  O        0.0894740    -1.2706490     0.0016280
  N        1.0961490     0.8320480    -0.0012430
  C       -1.1547091    -0.5835292     0.0124343
  C       -1.7504730    -0.3080250    -1.2153360
  C       -1.7497660    -0.3035760     1.2162340
  C        1.2195230    -0.4906020     0.0005970
  C       -3.0144240     0.2837480    -1.2099290
  C       -3.0137120     0.2881830     1.2093930
  C       -3.6464470     0.5845060    -0.0006310
  C        2.4408500    -1.1790020     0.0015830
  C        3.6030640    -0.4211020     0.0005590
  C        3.5068820     0.9758400    -0.0013820
  C        2.2403890     1.5483070    -0.0022070
  H       -1.2410120    -0.5552270    -2.1426030
  H       -1.2397720    -0.5473760     2.1441080
  H       -3.5056790     0.5103880    -2.1530410
  H       -3.5044150     0.5182820     2.1519550
  H        2.4499920    -2.2642250     0.0030920
  H       -4.6315180     1.0439850    -0.0011840
  H        4.5737430    -0.9107530     0.0012630
  H        4.3934310     1.6024650    -0.0022300
  H        2.1135170     2.6292430    -0.0037130
units angstrom
no_reorient  #important for SAPT in psi4, default
symmetry c1  #important for SAPT in psi4, default
}

set PROPERTIES_ORIGIN ["COM"]
properties('MP2/aug-cc-pvtz', properties = ['dipole'])
--------------------------------------------------------------------------

    Molecular point group: c1
  Charge       = 0
  Multiplicity = 1
  Basis Set: AUG-CC-PVTZ
    Blend: AUG-CC-PVTZ
  Basis Set: (AUG-CC-PVTZ AUX)
    Blend: AUG-CC-PVTZ-JKFIT

    Orbital Energies [Eh]
    ---------------------

    Doubly Occupied:

       1A    -20.597925     2A    -15.564429     3A    -11.344047
       4A    -11.295823     5A    -11.283352     6A    -11.265873
       7A    -11.240636     8A    -11.239909     9A    -11.239622
      10A    -11.236883    11A    -11.235133    12A    -11.233762
      13A    -11.232956    14A     -1.425577    15A     -1.253784
      16A     -1.151280    17A     -1.092286    18A     -1.038847
      19A     -1.019735    20A     -0.997625    21A     -0.876549
      22A     -0.858350    23A     -0.837940    24A     -0.805825
      25A     -0.737833    26A     -0.705053    27A     -0.679202
      28A     -0.667105    29A     -0.657330    30A     -0.627953
      31A     -0.613565    32A     -0.594884    33A     -0.592799
      34A     -0.579611    35A     -0.567909    36A     -0.535241
      37A     -0.516583    38A     -0.512762    39A     -0.497809
      40A     -0.486032    41A     -0.431189    42A     -0.388934
      43A     -0.339838    44A     -0.330747    45A     -0.329547

  @DF-RHF Final Energy:  -551.28191344455604

   => Energetics <=

    Nuclear Repulsion Energy =            709.0206330917025070
    One-Electron Energy =               -2155.0849452968791411
    Two-Electron Energy =                 894.7823987606204810
    Total Energy =                       -551.2819134445560394
  Basis Set: (AUG-CC-PVTZ AUX)
    Blend: AUG-CC-PVTZ-RI
    Molecular point group: c1

    Geometry (in Angstrom), charge = 0, multiplicity = 1:

       Center              X                  Y                   Z               Mass
    ------------   -----------------  -----------------  -----------------  -----------------
         O            0.087379141130    -1.259582799821     0.000797653331    15.994914619570
         N            1.094054141130     0.843114200179    -0.002073346669    14.003074004430
         C           -1.156803958870    -0.572462999821     0.011603953331    12.000000000000
         C           -1.752567858870    -0.296958799821    -1.216166346669    12.000000000000
         C           -1.751860858870    -0.292509799821     1.215403653331    12.000000000000
         C            1.217428141130    -0.479535799821    -0.000233346669    12.000000000000
         C           -3.016518858870     0.294814200179    -1.210759346669    12.000000000000
         C           -3.015806858870     0.299249200179     1.208562653331    12.000000000000
         C           -3.648541858870     0.595572200179    -0.001461346669    12.000000000000
         C            2.438755141130    -1.167935799821     0.000752653331    12.000000000000
         C            3.600969141130    -0.410035799821    -0.000271346669    12.000000000000
         C            3.504787141130     0.986906200179    -0.002212346669    12.000000000000
         C            2.238294141130     1.559373200179    -0.003037346669    12.000000000000
         H           -1.243106858870    -0.544160799821    -2.143433346669     1.007825032230
         H           -1.241866858870    -0.536309799821     2.143277653331     1.007825032230
         H           -3.507773858870     0.521454200179    -2.153871346669     1.007825032230
         H           -3.506509858870     0.529348200179     2.151124653331     1.007825032230
         H            2.447897141130    -2.253158799821     0.002261653331     1.007825032230
         H           -4.633612858870     1.055051200179    -0.002014346669     1.007825032230
         H            4.571648141130    -0.899686799821     0.000432653331     1.007825032230
         H            4.391336141130     1.613531200179    -0.003060346669     1.007825032230
         H            2.111422141130     2.640309200179    -0.004543346669     1.007825032230

  Basis Set: AUG-CC-PVTZ
    Blend: AUG-CC-PVTZ
  Basis Set: (AUG-CC-PVTZ AUX)
    Blend: AUG-CC-PVTZ-JKFIT
	 Reference Energy          =    -551.2819134445560394 [Eh]
	 Singles Energy            =      -0.0000000000000000 [Eh]
	 Same-Spin Energy          =      -0.5995711863587816 [Eh]
	 Opposite-Spin Energy      =      -1.8248576331198083 [Eh]
	 Correlation Energy        =      -2.4244288194785897 [Eh]
	 Total Energy              =    -553.7063422640346744 [Eh]

	 ================> DF-SCS-MP2 Energies <==================
	-----------------------------------------------------------
	 SCS Same-Spin Scale       =       0.3333333333333333 [-]
	 SCS Opposite-Spin Scale   =       1.2000000000000000 [-]
	 SCS Same-Spin Energy      =      -0.1998570621195939 [Eh]
	 SCS Opposite-Spin Energy  =      -2.1898291597437698 [Eh]
	 SCS Correlation Energy    =      -2.3896862218633634 [Eh]
	 SCS Total Energy          =    -553.6715996664194108 [Eh]
	-----------------------------------------------------------

  Dipole Moment: [D]
     X:     1.2582      Y:     0.2345      Z:     0.0083     Total:     1.2799

*** Psi4 exiting successfully. Buy a developer a beer!
