                               Psi4 1.3.2 release

  ==> Input File <==

--------------------------------------------------------------------------
#psi4
#
memory 32 gb

molecule  {
0 1
  O        0.1032598    -1.2902523     0.0016554
  N        1.0961490     0.8320480    -0.0012430
  C       -1.1354060    -0.5925990     0.0007920
  C       -1.7504730    -0.3080250    -1.2153360
  C       -1.7497660    -0.3035760     1.2162340
  C        1.2195230    -0.4906020     0.0005970
  C       -3.0144240     0.2837480    -1.2099290
  C       -3.0137120     0.2881830     1.2093930
  C       -3.6464470     0.5845060    -0.0006310
  C        2.4408500    -1.1790020     0.0015830
  C        3.6030640    -0.4211020     0.0005590
  C        3.5068820     0.9758400    -0.0013820
  C        2.2403890     1.5483070    -0.0022070
  H       -1.2410120    -0.5552270    -2.1426030
  H       -1.2397720    -0.5473760     2.1441080
  H       -3.5056790     0.5103880    -2.1530410
  H       -3.5044150     0.5182820     2.1519550
  H        2.4499920    -2.2642250     0.0030920
  H       -4.6315180     1.0439850    -0.0011840
  H        4.5737430    -0.9107530     0.0012630
  H        4.3934310     1.6024650    -0.0022300
  H        2.1135170     2.6292430    -0.0037130
units angstrom
no_reorient  #important for SAPT in psi4, default
symmetry c1  #important for SAPT in psi4, default
}

set PROPERTIES_ORIGIN ["COM"]
properties('MP2/aug-cc-pvtz', properties = ['dipole'])
--------------------------------------------------------------------------

    Molecular point group: c1
  Charge       = 0
  Multiplicity = 1
  Basis Set: AUG-CC-PVTZ
    Blend: AUG-CC-PVTZ
  Basis Set: (AUG-CC-PVTZ AUX)
    Blend: AUG-CC-PVTZ-JKFIT

    Orbital Energies [Eh]
    ---------------------

    Doubly Occupied:

       1A    -20.601521     2A    -15.565416     3A    -11.344386
       4A    -11.298218     5A    -11.283831     6A    -11.265861
       7A    -11.240506     8A    -11.239738     9A    -11.239627
      10A    -11.237302    11A    -11.235341    12A    -11.235335
      13A    -11.234014    14A     -1.427878    15A     -1.254475
      16A     -1.149056    17A     -1.092608    18A     -1.038540
      19A     -1.018147    20A     -0.997203    21A     -0.877426
      22A     -0.858263    23A     -0.836068    24A     -0.805909
      25A     -0.737519    26A     -0.705547    27A     -0.679616
      28A     -0.667538    29A     -0.657233    30A     -0.628193
      31A     -0.613904    32A     -0.593751    33A     -0.592300
      34A     -0.580665    35A     -0.568589    36A     -0.536036
      37A     -0.516869    38A     -0.513745    39A     -0.497200
      40A     -0.484805    41A     -0.431473    42A     -0.389355
      43A     -0.339271    44A     -0.330010    45A     -0.329663

  @DF-RHF Final Energy:  -551.28113816061455

   => Energetics <=

    Nuclear Repulsion Energy =            708.5231948974518446
    One-Electron Energy =               -2154.0687598650861219
    Two-Electron Energy =                 894.2644268070196176
    Total Energy =                       -551.2811381606145460
  Basis Set: (AUG-CC-PVTZ AUX)
    Blend: AUG-CC-PVTZ-RI
    Molecular point group: c1

    Geometry (in Angstrom), charge = 0, multiplicity = 1:

       Center              X                  Y                   Z               Mass
    ------------   -----------------  -----------------  -----------------  -----------------
         O            0.098521905612    -1.276716966565     0.001639168199    15.994914619570
         N            1.091411105612     0.845583333435    -0.001259231801    14.003074004430
         C           -1.140143894388    -0.579063666565     0.000775768199    12.000000000000
         C           -1.755210894388    -0.294489666565    -1.215352231801    12.000000000000
         C           -1.754503894388    -0.290040666565     1.216217768199    12.000000000000
         C            1.214785105612    -0.477066666565     0.000580768199    12.000000000000
         C           -3.019161894388     0.297283333435    -1.209945231801    12.000000000000
         C           -3.018449894388     0.301718333435     1.209376768199    12.000000000000
         C           -3.651184894388     0.598041333435    -0.000647231801    12.000000000000
         C            2.436112105612    -1.165466666565     0.001566768199    12.000000000000
         C            3.598326105612    -0.407566666565     0.000542768199    12.000000000000
         C            3.502144105612     0.989375333435    -0.001398231801    12.000000000000
         C            2.235651105612     1.561842333435    -0.002223231801    12.000000000000
         H           -1.245749894388    -0.541691666565    -2.142619231801     1.007825032230
         H           -1.244509894388    -0.533840666565     2.144091768199     1.007825032230
         H           -3.510416894388     0.523923333435    -2.153057231801     1.007825032230
         H           -3.509152894388     0.531817333435     2.151938768199     1.007825032230
         H            2.445254105612    -2.250689666565     0.003075768199     1.007825032230
         H           -4.636255894388     1.057520333435    -0.001200231801     1.007825032230
         H            4.569005105612    -0.897217666565     0.001246768199     1.007825032230
         H            4.388693105612     1.616000333435    -0.002246231801     1.007825032230
         H            2.108779105612     2.642778333435    -0.003729231801     1.007825032230

  Basis Set: AUG-CC-PVTZ
    Blend: AUG-CC-PVTZ
  Basis Set: (AUG-CC-PVTZ AUX)
    Blend: AUG-CC-PVTZ-JKFIT
	 Reference Energy          =    -551.2811381606145460 [Eh]
	 Singles Energy            =      -0.0000000000000000 [Eh]
	 Same-Spin Energy          =      -0.5997492006135546 [Eh]
	 Opposite-Spin Energy      =      -1.8254557246946104 [Eh]
	 Correlation Energy        =      -2.4252049253081651 [Eh]
	 Total Energy              =    -553.7063430859227537 [Eh]

	 ================> DF-SCS-MP2 Energies <==================
	-----------------------------------------------------------
	 SCS Same-Spin Scale       =       0.3333333333333333 [-]
	 SCS Opposite-Spin Scale   =       1.2000000000000000 [-]
	 SCS Same-Spin Energy      =      -0.1999164002045182 [Eh]
	 SCS Opposite-Spin Energy  =      -2.1905468696335322 [Eh]
	 SCS Correlation Energy    =      -2.3904632698380506 [Eh]
	 SCS Total Energy          =    -553.6716014304525970 [Eh]
	-----------------------------------------------------------

  Dipole Moment: [D]
     X:     1.2930      Y:     0.2476      Z:    -0.0001     Total:     1.3165

*** Psi4 exiting successfully. Buy a developer a beer!
