                               Psi4 1.3.2 release

  ==> Input File <==

--------------------------------------------------------------------------
#psi4
#
memory 32 gb

molecule  {
0 1
  O        0.0894740    -1.2706490     0.0016280
  N        1.0961490     0.8320480    -0.0012430
  C       -1.1354060    -0.5925990     0.0007920
  C       -1.7504730    -0.3080250    -1.2153360
  C       -1.7497660    -0.3035760     1.2162340
  C        1.2380979    -0.6897374     0.0008740
  C       -3.0144240     0.2837480    -1.2099290
  C       -3.0137120     0.2881830     1.2093930
  C       -3.6464470     0.5845060    -0.0006310
  C        2.4408500    -1.1790020     0.0015830
  C        3.6030640    -0.4211020     0.0005590
  C        3.5068820     0.9758400    -0.0013820
  C        2.2403890     1.5483070    -0.0022070
  H       -1.2410120    -0.5552270    -2.1426030
  H       -1.2397720    -0.5473760     2.1441080
  H       -3.5056790     0.5103880    -2.1530410
  H       -3.5044150     0.5182820     2.1519550
  H        2.4499920    -2.2642250     0.0030920
  H       -4.6315180     1.0439850    -0.0011840
  H        4.5737430    -0.9107530     0.0012630
  H        4.3934310     1.6024650    -0.0022300
  H        2.1135170     2.6292430    -0.0037130
units angstrom
no_reorient  #important for SAPT in psi4, default
symmetry c1  #important for SAPT in psi4, default
}

set PROPERTIES_ORIGIN ["COM"]
properties('MP2/aug-cc-pvtz', properties = ['dipole'])
--------------------------------------------------------------------------

    Molecular point group: c1
  Charge       = 0
  Multiplicity = 1
  Basis Set: AUG-CC-PVTZ
    Blend: AUG-CC-PVTZ
  Basis Set: (AUG-CC-PVTZ AUX)
    Blend: AUG-CC-PVTZ-JKFIT

    Orbital Energies [Eh]
    ---------------------

    Doubly Occupied:

       1A    -20.611264     2A    -15.565255     3A    -11.344492
       4A    -11.307931     5A    -11.278221     6A    -11.267845
       7A    -11.242213     8A    -11.242111     9A    -11.238581
      10A    -11.238575    11A    -11.236214    12A    -11.232600
      13A    -11.223916    14A     -1.467367    15A     -1.212364
      16A     -1.154485    17A     -1.087308    18A     -1.047276
      19A     -1.021161    20A     -1.002901    21A     -0.888926
      22A     -0.850972    23A     -0.840678    24A     -0.807907
      25A     -0.753273    26A     -0.700565    27A     -0.686316
      28A     -0.673458    29A     -0.669895    30A     -0.628317
      31A     -0.617114    32A     -0.595951    33A     -0.585927
      34A     -0.583255    35A     -0.572968    36A     -0.520685
      37A     -0.514487    38A     -0.512231    39A     -0.501031
      40A     -0.487840    41A     -0.412786    42A     -0.380235
      43A     -0.341791    44A     -0.329509    45A     -0.324732

  @DF-RHF Final Energy:  -551.23746650925716

   => Energetics <=

    Nuclear Repulsion Energy =            708.0841886117077593
    One-Electron Energy =               -2153.0374518528210501
    Two-Electron Energy =                 893.7157967318561305
    Total Energy =                       -551.2374665092571604
  Basis Set: (AUG-CC-PVTZ AUX)
    Blend: AUG-CC-PVTZ-RI
    Molecular point group: c1

    Geometry (in Angstrom), charge = 0, multiplicity = 1:

       Center              X                  Y                   Z               Mass
    ------------   -----------------  -----------------  -----------------  -----------------
         O            0.084722098900    -1.244977751800     0.001594899280    15.994914619570
         N            1.091397098900     0.857719248200    -0.001276100720    14.003074004430
         C           -1.140157901100    -0.566927751800     0.000758899280    12.000000000000
         C           -1.755224901100    -0.282353751800    -1.215369100720    12.000000000000
         C           -1.754517901100    -0.277904751800     1.216200899280    12.000000000000
         C            1.233345998900    -0.664066151800     0.000840899280    12.000000000000
         C           -3.019175901100     0.309419248200    -1.209962100720    12.000000000000
         C           -3.018463901100     0.313854248200     1.209359899280    12.000000000000
         C           -3.651198901100     0.610177248200    -0.000664100720    12.000000000000
         C            2.436098098900    -1.153330751800     0.001549899280    12.000000000000
         C            3.598312098900    -0.395430751800     0.000525899280    12.000000000000
         C            3.502130098900     1.001511248200    -0.001415100720    12.000000000000
         C            2.235637098900     1.573978248200    -0.002240100720    12.000000000000
         H           -1.245763901100    -0.529555751800    -2.142636100720     1.007825032230
         H           -1.244523901100    -0.521704751800     2.144074899280     1.007825032230
         H           -3.510430901100     0.536059248200    -2.153074100720     1.007825032230
         H           -3.509166901100     0.543953248200     2.151921899280     1.007825032230
         H            2.445240098900    -2.238553751800     0.003058899280     1.007825032230
         H           -4.636269901100     1.069656248200    -0.001217100720     1.007825032230
         H            4.568991098900    -0.885081751800     0.001229899280     1.007825032230
         H            4.388679098900     1.628136248200    -0.002263100720     1.007825032230
         H            2.108765098900     2.654914248200    -0.003746100720     1.007825032230

  Basis Set: AUG-CC-PVTZ
    Blend: AUG-CC-PVTZ
  Basis Set: (AUG-CC-PVTZ AUX)
    Blend: AUG-CC-PVTZ-JKFIT
	 Reference Energy          =    -551.2374665092571604 [Eh]
	 Singles Energy            =      -0.0000000000000000 [Eh]
	 Same-Spin Energy          =      -0.6007034055539293 [Eh]
	 Opposite-Spin Energy      =      -1.8287416037500446 [Eh]
	 Correlation Energy        =      -2.4294450093039739 [Eh]
	 Total Energy              =    -553.6669115185611645 [Eh]

	 ================> DF-SCS-MP2 Energies <==================
	-----------------------------------------------------------
	 SCS Same-Spin Scale       =       0.3333333333333333 [-]
	 SCS Opposite-Spin Scale   =       1.2000000000000000 [-]
	 SCS Same-Spin Energy      =      -0.2002344685179764 [Eh]
	 SCS Opposite-Spin Energy  =      -2.1944899245000533 [Eh]
	 SCS Correlation Energy    =      -2.3947243930180298 [Eh]
	 SCS Total Energy          =    -553.6321909022751697 [Eh]
	-----------------------------------------------------------

  Dipole Moment: [D]
     X:     0.7172      Y:    -0.0267      Z:     0.0003     Total:     0.7177

*** Psi4 exiting successfully. Buy a developer a beer!
