                               Psi4 1.4a3.dev225

  ==> Input File <==

--------------------------------------------------------------------------
#psi4
#
memory 32 gb

molecule  {
0 1
  O        0.0894740    -1.2706490     0.0016280
  N        1.0961490     0.8320480    -0.0012430
  C       -1.1354060    -0.5925990     0.0007920
  C       -1.7504730    -0.3080250    -1.2153360
  C       -1.7497660    -0.3035760     1.2162340
  C        1.2195230    -0.4906020     0.0005970
  C       -3.0144240     0.2837480    -1.2099290
  C       -3.0137120     0.2881830     1.2093930
  C       -3.6464470     0.5845060    -0.0006310
  C        2.4408500    -1.1790020     0.0015830
  C        3.6030640    -0.4211020     0.0005590
  C        3.5068820     0.9758400    -0.0013820
  C        2.2234364     1.5376952    -0.0021927
  H       -1.2410120    -0.5552270    -2.1426030
  H       -1.2397720    -0.5473760     2.1441080
  H       -3.5056790     0.5103880    -2.1530410
  H       -3.5044150     0.5182820     2.1519550
  H        2.4499920    -2.2642250     0.0030920
  H       -4.6315180     1.0439850    -0.0011840
  H        4.5737430    -0.9107530     0.0012630
  H        4.3934310     1.6024650    -0.0022300
  H        2.1135170     2.6292430    -0.0037130
units angstrom
no_reorient  #important for SAPT in psi4, default
symmetry c1  #important for SAPT in psi4, default
}

set PROPERTIES_ORIGIN ["COM"]
properties('MP2/aug-cc-pvtz', properties = ['dipole'])
--------------------------------------------------------------------------

    Molecular point group: c1
  Charge       = 0
  Multiplicity = 1
  Basis Set: AUG-CC-PVTZ
    Blend: AUG-CC-PVTZ
  Basis Set: (AUG-CC-PVTZ AUX)
    Blend: AUG-CC-PVTZ-JKFIT

    Orbital Energies [Eh]
    ---------------------

    Doubly Occupied:

       1A    -20.600800     2A    -15.565466     3A    -11.345984
       4A    -11.296692     5A    -11.284842     6A    -11.266239
       7A    -11.241114     8A    -11.239094     9A    -11.238988
      10A    -11.238322    11A    -11.234038    12A    -11.234032
      13A    -11.233086    14A     -1.433605    15A     -1.261253
      16A     -1.148223    17A     -1.094017    18A     -1.039263
      19A     -1.017516    20A     -0.995724    21A     -0.877064
      22A     -0.862507    23A     -0.836199    24A     -0.806362
      25A     -0.739988    26A     -0.706486    27A     -0.680018
      28A     -0.668996    29A     -0.659160    30A     -0.627160
      31A     -0.613512    32A     -0.594834    33A     -0.591714
      34A     -0.580910    35A     -0.570062    36A     -0.537627
      37A     -0.518413    38A     -0.514057    39A     -0.495785
      40A     -0.483670    41A     -0.431427    42A     -0.392157
      43A     -0.338622    44A     -0.328828    45A     -0.328128

  @DF-RHF Final Energy:  -551.28267636160626

   => Energetics <=

    Nuclear Repulsion Energy =            709.4054803109934255
    One-Electron Energy =               -2155.7923454756755746
    Two-Electron Energy =                 895.1041888030758855
    Total Energy =                       -551.2826763616062635
  Basis Set: (AUG-CC-PVTZ AUX)
    Blend: AUG-CC-PVTZ-RI
    Molecular point group: c1

    Geometry (in Angstrom), charge = 0, multiplicity = 1:

       Center              X                  Y                   Z               Mass
    ------------   -----------------  -----------------  -----------------  -----------------
         O            0.087214259728    -1.258202187266     0.001613326995    15.994914619570
         N            1.093889259728     0.844494812734    -0.001257673005    14.003074004430
         C           -1.137665740272    -0.580152187266     0.000777326995    12.000000000000
         C           -1.752732740272    -0.295578187266    -1.215350673005    12.000000000000
         C           -1.752025740272    -0.291129187266     1.216219326995    12.000000000000
         C            1.217263259728    -0.478155187266     0.000582326995    12.000000000000
         C           -3.016683740272     0.296194812734    -1.209943673005    12.000000000000
         C           -3.015971740272     0.300629812734     1.209378326995    12.000000000000
         C           -3.648706740272     0.596952812734    -0.000645673005    12.000000000000
         C            2.438590259728    -1.166555187266     0.001568326995    12.000000000000
         C            3.600804259728    -0.408655187266     0.000544326995    12.000000000000
         C            3.504622259728     0.988286812734    -0.001396673005    12.000000000000
         C            2.221176659728     1.550142012734    -0.002207373005    12.000000000000
         H           -1.243271740272    -0.542780187266    -2.142617673005     1.007825032230
         H           -1.242031740272    -0.534929187266     2.144093326995     1.007825032230
         H           -3.507938740272     0.522834812734    -2.153055673005     1.007825032230
         H           -3.506674740272     0.530728812734     2.151940326995     1.007825032230
         H            2.447732259728    -2.251778187266     0.003077326995     1.007825032230
         H           -4.633777740272     1.056431812734    -0.001198673005     1.007825032230
         H            4.571483259728    -0.898306187266     0.001248326995     1.007825032230
         H            4.391171259728     1.614911812734    -0.002244673005     1.007825032230
         H            2.111257259728     2.641689812734    -0.003727673005     1.007825032230

  Basis Set: AUG-CC-PVTZ
    Blend: AUG-CC-PVTZ
  Basis Set: (AUG-CC-PVTZ AUX)
    Blend: AUG-CC-PVTZ-JKFIT
	 Reference Energy          =    -551.2826763616062635 [Eh]
	 Singles Energy            =      -0.0000000000000000 [Eh]
	 Same-Spin Energy          =      -0.5995793968134451 [Eh]
	 Opposite-Spin Energy      =      -1.8244478313998693 [Eh]
	 Correlation Energy        =      -2.4240272282133146 [Eh]
	 Total Energy              =    -553.7067035898195400 [Eh]

	 ================> DF-SCS-MP2 Energies <==================
	-----------------------------------------------------------
	 SCS Same-Spin Scale       =       0.3333333333333333 [-]
	 SCS Opposite-Spin Scale   =       1.2000000000000000 [-]
	 SCS Same-Spin Energy      =      -0.1998597989378150 [Eh]
	 SCS Opposite-Spin Energy  =      -2.1893373976798429 [Eh]
	 SCS Correlation Energy    =      -2.3891971966176579 [Eh]
	 SCS Total Energy          =    -553.6718735582238651 [Eh]
	-----------------------------------------------------------

  Dipole Moment: [D]
     X:     1.3772      Y:     0.2115      Z:    -0.0001     Total:     1.3933

*** Psi4 exiting successfully. Buy a developer a beer!
