                               Psi4 1.3.2 release

  ==> Input File <==

--------------------------------------------------------------------------
#psi4
#
memory 32 gb

molecule  {
0 1
  O        0.0894740    -1.2706490     0.0016280
  N        1.0961490     0.8320480    -0.0012430
  C       -1.1354060    -0.5925990     0.0007920
  C       -1.7504730    -0.3080250    -1.2153360
  C       -1.7497660    -0.3035760     1.2162340
  C        1.1269590    -0.4959862     0.0006020
  C       -3.0144240     0.2837480    -1.2099290
  C       -3.0137120     0.2881830     1.2093930
  C       -3.6464470     0.5845060    -0.0006310
  C        2.4408500    -1.1790020     0.0015830
  C        3.6030640    -0.4211020     0.0005590
  C        3.5068820     0.9758400    -0.0013820
  C        2.2403890     1.5483070    -0.0022070
  H       -1.2410120    -0.5552270    -2.1426030
  H       -1.2397720    -0.5473760     2.1441080
  H       -3.5056790     0.5103880    -2.1530410
  H       -3.5044150     0.5182820     2.1519550
  H        2.4499920    -2.2642250     0.0030920
  H       -4.6315180     1.0439850    -0.0011840
  H        4.5737430    -0.9107530     0.0012630
  H        4.3934310     1.6024650    -0.0022300
  H        2.1135170     2.6292430    -0.0037130
units angstrom
no_reorient  #important for SAPT in psi4, default
symmetry c1  #important for SAPT in psi4, default
}

set PROPERTIES_ORIGIN ["COM"]
properties('MP2/aug-cc-pvtz', properties = ['dipole'])
--------------------------------------------------------------------------

    Molecular point group: c1
  Charge       = 0
  Multiplicity = 1
  Basis Set: AUG-CC-PVTZ
    Blend: AUG-CC-PVTZ
  Basis Set: (AUG-CC-PVTZ AUX)
    Blend: AUG-CC-PVTZ-JKFIT

    Orbital Energies [Eh]
    ---------------------

    Doubly Occupied:

       1A    -20.619264     2A    -15.556491     3A    -11.351786
       4A    -11.304343     5A    -11.278440     6A    -11.258853
       7A    -11.244027     8A    -11.243918     9A    -11.241691
      10A    -11.240616    11A    -11.240612    12A    -11.238394
      13A    -11.230499    14A     -1.477036    15A     -1.245190
      16A     -1.155517    17A     -1.082393    18A     -1.039160
      19A     -1.023186    20A     -0.996026    21A     -0.880727
      22A     -0.860683    23A     -0.843110    24A     -0.804459
      25A     -0.749719    26A     -0.710789    27A     -0.683795
      28A     -0.673802    29A     -0.671817    30A     -0.627448
      31A     -0.613017    32A     -0.598092    33A     -0.593604
      34A     -0.588214    35A     -0.567050    36A     -0.533481
      37A     -0.519860    38A     -0.516665    39A     -0.503694
      40A     -0.489937    41A     -0.413897    42A     -0.385416
      43A     -0.342779    44A     -0.335074    45A     -0.316730

  @DF-RHF Final Energy:  -551.27305803513434

   => Energetics <=

    Nuclear Repulsion Energy =            709.6756764792551166
    One-Electron Energy =               -2156.1148652736987970
    Two-Electron Energy =                 895.1661307593093397
    Total Energy =                       -551.2730580351343406
  Basis Set: (AUG-CC-PVTZ AUX)
    Blend: AUG-CC-PVTZ-RI
    Molecular point group: c1

    Geometry (in Angstrom), charge = 0, multiplicity = 1:

       Center              X                  Y                   Z               Mass
    ------------   -----------------  -----------------  -----------------  -----------------
         O            0.092518200877    -1.258568889678     0.001613979365    15.994914619570
         N            1.099193200877     0.844128110322    -0.001257020635    14.003074004430
         C           -1.132361799123    -0.580518889678     0.000777979365    12.000000000000
         C           -1.747428799123    -0.295944889678    -1.215350020635    12.000000000000
         C           -1.746721799123    -0.291495889678     1.216219979365    12.000000000000
         C            1.130003200877    -0.483906089678     0.000587979365    12.000000000000
         C           -3.011379799123     0.295828110322    -1.209943020635    12.000000000000
         C           -3.010667799123     0.300263110322     1.209378979365    12.000000000000
         C           -3.643402799123     0.596586110322    -0.000645020635    12.000000000000
         C            2.443894200877    -1.166921889678     0.001568979365    12.000000000000
         C            3.606108200877    -0.409021889678     0.000544979365    12.000000000000
         C            3.509926200877     0.987920110322    -0.001396020635    12.000000000000
         C            2.243433200877     1.560387110322    -0.002221020635    12.000000000000
         H           -1.237967799123    -0.543146889678    -2.142617020635     1.007825032230
         H           -1.236727799123    -0.535295889678     2.144093979365     1.007825032230
         H           -3.502634799123     0.522468110322    -2.153055020635     1.007825032230
         H           -3.501370799123     0.530362110322     2.151940979365     1.007825032230
         H            2.453036200877    -2.252144889678     0.003077979365     1.007825032230
         H           -4.628473799123     1.056065110322    -0.001198020635     1.007825032230
         H            4.576787200877    -0.898672889678     0.001248979365     1.007825032230
         H            4.396475200877     1.614545110322    -0.002244020635     1.007825032230
         H            2.116561200877     2.641323110322    -0.003727020635     1.007825032230

  Basis Set: AUG-CC-PVTZ
    Blend: AUG-CC-PVTZ
  Basis Set: (AUG-CC-PVTZ AUX)
    Blend: AUG-CC-PVTZ-JKFIT
	 Reference Energy          =    -551.2730580351343406 [Eh]
	 Singles Energy            =      -0.0000000000000000 [Eh]
	 Same-Spin Energy          =      -0.5993268818448849 [Eh]
	 Opposite-Spin Energy      =      -1.8245566980132319 [Eh]
	 Correlation Energy        =      -2.4238835798581171 [Eh]
	 Total Energy              =    -553.6969416149925109 [Eh]

	 ================> DF-SCS-MP2 Energies <==================
	-----------------------------------------------------------
	 SCS Same-Spin Scale       =       0.3333333333333333 [-]
	 SCS Opposite-Spin Scale   =       1.2000000000000000 [-]
	 SCS Same-Spin Energy      =      -0.1997756272816283 [Eh]
	 SCS Opposite-Spin Energy  =      -2.1894680376158782 [Eh]
	 SCS Correlation Energy    =      -2.3892436648975064 [Eh]
	 SCS Total Energy          =    -553.6623017000318896 [Eh]
	-----------------------------------------------------------

  Dipole Moment: [D]
     X:     0.5029      Y:    -0.0311      Z:     0.0003     Total:     0.5039

*** Psi4 exiting successfully. Buy a developer a beer!
