                               Psi4 1.4a3.dev225

  ==> Input File <==

--------------------------------------------------------------------------
#psi4
#
memory 32 gb

molecule  {
0 1
  O        0.0894740    -1.2706490     0.0016280
  N        1.0961490     0.8320480    -0.0012430
  C       -1.1354060    -0.5925990     0.0007920
  C       -1.7504730    -0.3080250    -1.2153360
  C       -1.7497660    -0.3035760     1.2162340
  C        1.2195230    -0.4906020     0.0005970
  C       -3.0144240     0.2837480    -1.2099290
  C       -3.0137120     0.2881830     1.2093930
  C       -3.6464470     0.5845060    -0.0006310
  C        2.4408500    -1.1790020     0.0015830
  C        3.6030640    -0.4211020     0.0005590
  C        3.5068820     0.9758400    -0.0013820
  C        2.1980076     1.5217775    -0.0021713
  H       -1.2410120    -0.5552270    -2.1426030
  H       -1.2397720    -0.5473760     2.1441080
  H       -3.5056790     0.5103880    -2.1530410
  H       -3.5044150     0.5182820     2.1519550
  H        2.4499920    -2.2642250     0.0030920
  H       -4.6315180     1.0439850    -0.0011840
  H        4.5737430    -0.9107530     0.0012630
  H        4.3934310     1.6024650    -0.0022300
  H        2.1135170     2.6292430    -0.0037130
units angstrom
no_reorient  #important for SAPT in psi4, default
symmetry c1  #important for SAPT in psi4, default
}

set PROPERTIES_ORIGIN ["COM"]
properties('MP2/aug-cc-pvtz', properties = ['dipole'])
--------------------------------------------------------------------------

    Molecular point group: c1
  Charge       = 0
  Multiplicity = 1
  Basis Set: AUG-CC-PVTZ
    Blend: AUG-CC-PVTZ
  Basis Set: (AUG-CC-PVTZ AUX)
    Blend: AUG-CC-PVTZ-JKFIT

    Orbital Energies [Eh]
    ---------------------

    Doubly Occupied:

       1A    -20.601034     2A    -15.564934     3A    -11.346524
       4A    -11.297043     5A    -11.285534     6A    -11.265297
       7A    -11.240009     8A    -11.239487     9A    -11.239382
      10A    -11.238823    11A    -11.234421    12A    -11.234415
      13A    -11.233456    14A     -1.434115    15A     -1.270543
      16A     -1.148733    17A     -1.094997    18A     -1.037827
      19A     -1.017915    20A     -0.994651    21A     -0.874765
      22A     -0.865575    23A     -0.836594    24A     -0.807305
      25A     -0.740336    26A     -0.706972    27A     -0.680920
      28A     -0.669205    29A     -0.659670    30A     -0.626261
      31A     -0.611260    32A     -0.594759    33A     -0.592402
      34A     -0.582396    35A     -0.570205    36A     -0.539267
      37A     -0.520165    38A     -0.514369    39A     -0.496273
      40A     -0.484384    41A     -0.429354    42A     -0.395653
      43A     -0.338786    44A     -0.328530    45A     -0.325926

  @DF-RHF Final Energy:  -551.28073366875253

   => Energetics <=

    Nuclear Repulsion Energy =            709.9121216459046764
    One-Electron Energy =               -2156.7647728207093678
    Two-Electron Energy =                 895.5719175060520456
    Total Energy =                       -551.2807336687525321
  Basis Set: (AUG-CC-PVTZ AUX)
    Blend: AUG-CC-PVTZ-RI
    Molecular point group: c1

    Geometry (in Angstrom), charge = 0, multiplicity = 1:

       Center              X                  Y                   Z               Mass
    ------------   -----------------  -----------------  -----------------  -----------------
         O            0.088998023270    -1.257085602412     0.001611825841    15.994914619570
         N            1.095673023270     0.845611397588    -0.001259174159    14.003074004430
         C           -1.135881976730    -0.579035602412     0.000775825841    12.000000000000
         C           -1.750948976730    -0.294461602412    -1.215352174159    12.000000000000
         C           -1.750241976730    -0.290012602412     1.216217825841    12.000000000000
         C            1.219047023270    -0.477038602412     0.000580825841    12.000000000000
         C           -3.014899976730     0.297311397588    -1.209945174159    12.000000000000
         C           -3.014187976730     0.301746397588     1.209376825841    12.000000000000
         C           -3.646922976730     0.598069397588    -0.000647174159    12.000000000000
         C            2.440374023270    -1.165438602412     0.001566825841    12.000000000000
         C            3.602588023270    -0.407538602412     0.000542825841    12.000000000000
         C            3.506406023270     0.989403397588    -0.001398174159    12.000000000000
         C            2.197531623270     1.535340897588    -0.002187474159    12.000000000000
         H           -1.241487976730    -0.541663602412    -2.142619174159     1.007825032230
         H           -1.240247976730    -0.533812602412     2.144091825841     1.007825032230
         H           -3.506154976730     0.523951397588    -2.153057174159     1.007825032230
         H           -3.504890976730     0.531845397588     2.151938825841     1.007825032230
         H            2.449516023270    -2.250661602412     0.003075825841     1.007825032230
         H           -4.631993976730     1.057548397588    -0.001200174159     1.007825032230
         H            4.573267023270    -0.897189602412     0.001246825841     1.007825032230
         H            4.392955023270     1.616028397588    -0.002246174159     1.007825032230
         H            2.113041023270     2.642806397588    -0.003729174159     1.007825032230

  Basis Set: AUG-CC-PVTZ
    Blend: AUG-CC-PVTZ
  Basis Set: (AUG-CC-PVTZ AUX)
    Blend: AUG-CC-PVTZ-JKFIT
	 Reference Energy          =    -551.2807336687525321 [Eh]
	 Singles Energy            =      -0.0000000000000000 [Eh]
	 Same-Spin Energy          =      -0.5994916025454036 [Eh]
	 Opposite-Spin Energy      =      -1.8240300170830857 [Eh]
	 Correlation Energy        =      -2.4235216196284890 [Eh]
	 Total Energy              =    -553.7042552883809776 [Eh]

	 ================> DF-SCS-MP2 Energies <==================
	-----------------------------------------------------------
	 SCS Same-Spin Scale       =       0.3333333333333333 [-]
	 SCS Opposite-Spin Scale   =       1.2000000000000000 [-]
	 SCS Same-Spin Energy      =      -0.1998305341818012 [Eh]
	 SCS Opposite-Spin Energy  =      -2.1888360204997026 [Eh]
	 SCS Correlation Energy    =      -2.3886665546815036 [Eh]
	 SCS Total Energy          =    -553.6694002234340815 [Eh]
	-----------------------------------------------------------

  Dipole Moment: [D]
     X:     1.3213      Y:     0.2027      Z:    -0.0001     Total:     1.3367

*** Psi4 exiting successfully. Buy a developer a beer!
