                               Psi4 1.3.2 release

  ==> Input File <==

--------------------------------------------------------------------------
#psi4
#
memory 32 gb

molecule  {
0 1
  O        0.0894740    -1.2706490     0.0016280
  N        1.0961490     0.8320480    -0.0012430
  C       -1.0601252    -0.6279840    -0.0494444
  C       -1.7504730    -0.3080250    -1.2153360
  C       -1.7497660    -0.3035760     1.2162340
  C        1.2195230    -0.4906020     0.0005970
  C       -3.0144240     0.2837480    -1.2099290
  C       -3.0137120     0.2881830     1.2093930
  C       -3.6464470     0.5845060    -0.0006310
  C        2.4408500    -1.1790020     0.0015830
  C        3.6030640    -0.4211020     0.0005590
  C        3.5068820     0.9758400    -0.0013820
  C        2.2403890     1.5483070    -0.0022070
  H       -1.2410120    -0.5552270    -2.1426030
  H       -1.2397720    -0.5473760     2.1441080
  H       -3.5056790     0.5103880    -2.1530410
  H       -3.5044150     0.5182820     2.1519550
  H        2.4499920    -2.2642250     0.0030920
  H       -4.6315180     1.0439850    -0.0011840
  H        4.5737430    -0.9107530     0.0012630
  H        4.3934310     1.6024650    -0.0022300
  H        2.1135170     2.6292430    -0.0037130
units angstrom
no_reorient  #important for SAPT in psi4, default
symmetry c1  #important for SAPT in psi4, default
}

set PROPERTIES_ORIGIN ["COM"]
properties('MP2/aug-cc-pvtz', properties = ['dipole'])
--------------------------------------------------------------------------

    Molecular point group: c1
  Charge       = 0
  Multiplicity = 1
  Basis Set: AUG-CC-PVTZ
    Blend: AUG-CC-PVTZ
  Basis Set: (AUG-CC-PVTZ AUX)
    Blend: AUG-CC-PVTZ-JKFIT

    Orbital Energies [Eh]
    ---------------------

    Doubly Occupied:

       1A    -20.610892     2A    -15.570995     3A    -11.351963
       4A    -11.300094     5A    -11.288104     6A    -11.270679
       7A    -11.246953     8A    -11.242463     9A    -11.236383
      10A    -11.235622    11A    -11.234083    12A    -11.229107
      13A    -11.228700    14A     -1.467480    15A     -1.262656
      16A     -1.135920    17A     -1.097803    18A     -1.047527
      19A     -1.010050    20A     -0.989240    21A     -0.887899
      22A     -0.869342    23A     -0.829599    24A     -0.805152
      25A     -0.747521    26A     -0.712034    27A     -0.679788
      28A     -0.675172    29A     -0.667064    30A     -0.631513
      31A     -0.620155    32A     -0.600892    33A     -0.580802
      34A     -0.580168    35A     -0.575773    36A     -0.541776
      37A     -0.522573    38A     -0.515955    39A     -0.486184
      40A     -0.466150    41A     -0.436536    42A     -0.393734
      43A     -0.339325    44A     -0.332519    45A     -0.314015

  @DF-RHF Final Energy:  -551.27134252960434

   => Energetics <=

    Nuclear Repulsion Energy =            709.4056972001779968
    One-Electron Energy =               -2155.6173686206448110
    Two-Electron Energy =                 894.9403288908623608
    Total Energy =                       -551.2713425296043397
  Basis Set: (AUG-CC-PVTZ AUX)
    Blend: AUG-CC-PVTZ-RI
    Molecular point group: c1

    Geometry (in Angstrom), charge = 0, multiplicity = 1:

       Center              X                  Y                   Z               Mass
    ------------   -----------------  -----------------  -----------------  -----------------
         O            0.080744328928    -1.256464412342     0.005138281638    15.994914619570
         N            1.087419328928     0.846232587658     0.002267281638    14.003074004430
         C           -1.068854871072    -0.613799412342    -0.045934118362    12.000000000000
         C           -1.759202671072    -0.293840412342    -1.211825718362    12.000000000000
         C           -1.758495671072    -0.289391412342     1.219744281638    12.000000000000
         C            1.210793328928    -0.476417412342     0.004107281638    12.000000000000
         C           -3.023153671072     0.297932587658    -1.206418718362    12.000000000000
         C           -3.022441671072     0.302367587658     1.212903281638    12.000000000000
         C           -3.655176671072     0.598690587658     0.002879281638    12.000000000000
         C            2.432120328928    -1.164817412342     0.005093281638    12.000000000000
         C            3.594334328928    -0.406917412342     0.004069281638    12.000000000000
         C            3.498152328928     0.990024587658     0.002128281638    12.000000000000
         C            2.231659328928     1.562491587658     0.001303281638    12.000000000000
         H           -1.249741671072    -0.541042412342    -2.139092718362     1.007825032230
         H           -1.248501671072    -0.533191412342     2.147618281638     1.007825032230
         H           -3.514408671072     0.524572587658    -2.149530718362     1.007825032230
         H           -3.513144671072     0.532466587658     2.155465281638     1.007825032230
         H            2.441262328928    -2.250040412342     0.006602281638     1.007825032230
         H           -4.640247671072     1.058169587658     0.002326281638     1.007825032230
         H            4.565013328928    -0.896568412342     0.004773281638     1.007825032230
         H            4.384701328928     1.616649587658     0.001280281638     1.007825032230
         H            2.104787328928     2.643427587658    -0.000202718362     1.007825032230

  Basis Set: AUG-CC-PVTZ
    Blend: AUG-CC-PVTZ
  Basis Set: (AUG-CC-PVTZ AUX)
    Blend: AUG-CC-PVTZ-JKFIT
	 Reference Energy          =    -551.2713425296043397 [Eh]
	 Singles Energy            =      -0.0000000000000000 [Eh]
	 Same-Spin Energy          =      -0.6001225916710371 [Eh]
	 Opposite-Spin Energy      =      -1.8253020851064330 [Eh]
	 Correlation Energy        =      -2.4254246767774701 [Eh]
	 Total Energy              =    -553.6967672063817645 [Eh]

	 ================> DF-SCS-MP2 Energies <==================
	-----------------------------------------------------------
	 SCS Same-Spin Scale       =       0.3333333333333333 [-]
	 SCS Opposite-Spin Scale   =       1.2000000000000000 [-]
	 SCS Same-Spin Energy      =      -0.2000408638903457 [Eh]
	 SCS Opposite-Spin Energy  =      -2.1903625021277193 [Eh]
	 SCS Correlation Energy    =      -2.3904033660180648 [Eh]
	 SCS Total Energy          =    -553.6617458956224027 [Eh]
	-----------------------------------------------------------

  Dipole Moment: [D]
     X:     2.0399      Y:     0.1388      Z:    -0.0318     Total:     2.0448

*** Psi4 exiting successfully. Buy a developer a beer!
