                               Psi4 1.3.2 release

  ==> Input File <==

--------------------------------------------------------------------------
#psi4
#
memory 32 gb

molecule  {
0 1
  O        0.0894740    -1.2706490     0.0016280
  N        1.0961490     0.8320480    -0.0012430
  C       -1.0479164    -0.6410301     0.0008517
  C       -1.7504730    -0.3080250    -1.2153360
  C       -1.7497660    -0.3035760     1.2162340
  C        1.2195230    -0.4906020     0.0005970
  C       -3.0144240     0.2837480    -1.2099290
  C       -3.0137120     0.2881830     1.2093930
  C       -3.6464470     0.5845060    -0.0006310
  C        2.4408500    -1.1790020     0.0015830
  C        3.6030640    -0.4211020     0.0005590
  C        3.5068820     0.9758400    -0.0013820
  C        2.2403890     1.5483070    -0.0022070
  H       -1.2410120    -0.5552270    -2.1426030
  H       -1.2397720    -0.5473760     2.1441080
  H       -3.5056790     0.5103880    -2.1530410
  H       -3.5044150     0.5182820     2.1519550
  H        2.4499920    -2.2642250     0.0030920
  H       -4.6315180     1.0439850    -0.0011840
  H        4.5737430    -0.9107530     0.0012630
  H        4.3934310     1.6024650    -0.0022300
  H        2.1135170     2.6292430    -0.0037130
units angstrom
no_reorient  #important for SAPT in psi4, default
symmetry c1  #important for SAPT in psi4, default
}

set PROPERTIES_ORIGIN ["COM"]
properties('MP2/aug-cc-pvtz', properties = ['dipole'])
--------------------------------------------------------------------------

    Molecular point group: c1
  Charge       = 0
  Multiplicity = 1
  Basis Set: AUG-CC-PVTZ
    Blend: AUG-CC-PVTZ
  Basis Set: (AUG-CC-PVTZ AUX)
    Blend: AUG-CC-PVTZ-JKFIT

    Orbital Energies [Eh]
    ---------------------

    Doubly Occupied:

       1A    -20.612761     2A    -15.572120     3A    -11.353442
       4A    -11.301466     5A    -11.288902     6A    -11.271499
       7A    -11.248072     8A    -11.243416     9A    -11.234484
      10A    -11.234401    11A    -11.232256    12A    -11.232248
      13A    -11.228073    14A     -1.475683    15A     -1.264208
      16A     -1.133249    17A     -1.098734    18A     -1.049324
      19A     -1.006924    20A     -0.988859    21A     -0.890198
      22A     -0.871205    23A     -0.827539    24A     -0.806198
      25A     -0.749253    26A     -0.713475    27A     -0.679865
      28A     -0.675421    29A     -0.670229    30A     -0.632637
      31A     -0.621733    32A     -0.600452    33A     -0.580418
      34A     -0.579319    35A     -0.577129    36A     -0.542897
      37A     -0.523903    38A     -0.515598    39A     -0.484099
      40A     -0.463649    41A     -0.437511    42A     -0.394517
      43A     -0.339515    44A     -0.330297    45A     -0.312679

  @DF-RHF Final Energy:  -551.26972238181349

   => Energetics <=

    Nuclear Repulsion Energy =            709.4513716786102577
    One-Electron Energy =               -2155.6624663993529794
    Two-Electron Energy =                 894.9413723389292272
    Total Energy =                       -551.2697223818134944
  Basis Set: (AUG-CC-PVTZ AUX)
    Blend: AUG-CC-PVTZ-RI
    Molecular point group: c1

    Geometry (in Angstrom), charge = 0, multiplicity = 1:

       Center              X                  Y                   Z               Mass
    ------------   -----------------  -----------------  -----------------  -----------------
         O            0.079887913669    -1.255549262687     0.001610142304    15.994914619570
         N            1.086562913669     0.847147737313    -0.001260857696    14.003074004430
         C           -1.057502486331    -0.625930362687     0.000833842304    12.000000000000
         C           -1.760059086331    -0.292925262687    -1.215353857696    12.000000000000
         C           -1.759352086331    -0.288476262687     1.216216142304    12.000000000000
         C            1.209936913669    -0.475502262687     0.000579142304    12.000000000000
         C           -3.024010086331     0.298847737313    -1.209946857696    12.000000000000
         C           -3.023298086331     0.303282737313     1.209375142304    12.000000000000
         C           -3.656033086331     0.599605737313    -0.000648857696    12.000000000000
         C            2.431263913669    -1.163902262687     0.001565142304    12.000000000000
         C            3.593477913669    -0.406002262687     0.000541142304    12.000000000000
         C            3.497295913669     0.990939737313    -0.001399857696    12.000000000000
         C            2.230802913669     1.563406737313    -0.002224857696    12.000000000000
         H           -1.250598086331    -0.540127262687    -2.142620857696     1.007825032230
         H           -1.249358086331    -0.532276262687     2.144090142304     1.007825032230
         H           -3.515265086331     0.525487737313    -2.153058857696     1.007825032230
         H           -3.514001086331     0.533381737313     2.151937142304     1.007825032230
         H            2.440405913669    -2.249125262687     0.003074142304     1.007825032230
         H           -4.641104086331     1.059084737313    -0.001201857696     1.007825032230
         H            4.564156913669    -0.895653262687     0.001245142304     1.007825032230
         H            4.383844913669     1.617564737313    -0.002247857696     1.007825032230
         H            2.103930913669     2.644342737313    -0.003730857696     1.007825032230

  Basis Set: AUG-CC-PVTZ
    Blend: AUG-CC-PVTZ
  Basis Set: (AUG-CC-PVTZ AUX)
    Blend: AUG-CC-PVTZ-JKFIT
	 Reference Energy          =    -551.2697223818134944 [Eh]
	 Singles Energy            =      -0.0000000000000000 [Eh]
	 Same-Spin Energy          =      -0.6004242070635947 [Eh]
	 Opposite-Spin Energy      =      -1.8253487329235947 [Eh]
	 Correlation Energy        =      -2.4257729399871892 [Eh]
	 Total Energy              =    -553.6954953218006494 [Eh]

	 ================> DF-SCS-MP2 Energies <==================
	-----------------------------------------------------------
	 SCS Same-Spin Scale       =       0.3333333333333333 [-]
	 SCS Opposite-Spin Scale   =       1.2000000000000000 [-]
	 SCS Same-Spin Energy      =      -0.2001414023545315 [Eh]
	 SCS Opposite-Spin Energy  =      -2.1904184795083137 [Eh]
	 SCS Correlation Energy    =      -2.3905598818628451 [Eh]
	 SCS Total Energy          =    -553.6602822636763221 [Eh]
	-----------------------------------------------------------

  Dipole Moment: [D]
     X:     2.1726      Y:     0.1201      Z:     0.0000     Total:     2.1759

*** Psi4 exiting successfully. Buy a developer a beer!
