                               Psi4 1.3.2 release

  ==> Input File <==

--------------------------------------------------------------------------
#psi4
#
memory 32 gb

molecule  {
0 1
  O        0.0894740    -1.2706490     0.0016280
  N        1.0961490     0.8320480    -0.0012430
  C       -1.2134416    -0.5553147     0.0451013
  C       -1.7504730    -0.3080250    -1.2153360
  C       -1.7497660    -0.3035760     1.2162340
  C        1.2195230    -0.4906020     0.0005970
  C       -3.0144240     0.2837480    -1.2099290
  C       -3.0137120     0.2881830     1.2093930
  C       -3.6464470     0.5845060    -0.0006310
  C        2.4408500    -1.1790020     0.0015830
  C        3.6030640    -0.4211020     0.0005590
  C        3.5068820     0.9758400    -0.0013820
  C        2.2403890     1.5483070    -0.0022070
  H       -1.2410120    -0.5552270    -2.1426030
  H       -1.2397720    -0.5473760     2.1441080
  H       -3.5056790     0.5103880    -2.1530410
  H       -3.5044150     0.5182820     2.1519550
  H        2.4499920    -2.2642250     0.0030920
  H       -4.6315180     1.0439850    -0.0011840
  H        4.5737430    -0.9107530     0.0012630
  H        4.3934310     1.6024650    -0.0022300
  H        2.1135170     2.6292430    -0.0037130
units angstrom
no_reorient  #important for SAPT in psi4, default
symmetry c1  #important for SAPT in psi4, default
}

set PROPERTIES_ORIGIN ["COM"]
properties('MP2/aug-cc-pvtz', properties = ['dipole'])
--------------------------------------------------------------------------

    Molecular point group: c1
  Charge       = 0
  Multiplicity = 1
  Basis Set: AUG-CC-PVTZ
    Blend: AUG-CC-PVTZ
  Basis Set: (AUG-CC-PVTZ AUX)
    Blend: AUG-CC-PVTZ-JKFIT

    Orbital Energies [Eh]
    ---------------------

    Doubly Occupied:

       1A    -20.588993     2A    -15.560527     3A    -11.339176
       4A    -11.294586     5A    -11.280478     6A    -11.262908
       7A    -11.243479     8A    -11.242356     9A    -11.239355
      10A    -11.236807    11A    -11.236438    12A    -11.233546
      13A    -11.230179    14A     -1.404194    15A     -1.248480
      16A     -1.162520    17A     -1.088939    18A     -1.037306
      19A     -1.026764    20A     -0.999906    21A     -0.871049
      22A     -0.851641    23A     -0.844434    24A     -0.806144
      25A     -0.732337    26A     -0.702878    27A     -0.677670
      28A     -0.661994    29A     -0.654595    30A     -0.628100
      31A     -0.610368    32A     -0.603951    33A     -0.587600
      34A     -0.577714    35A     -0.561968    36A     -0.531745
      37A     -0.517214    38A     -0.510091    39A     -0.501923
      40A     -0.489367    41A     -0.427686    42A     -0.386046
      43A     -0.348037    44A     -0.335097    45A     -0.325890

  @DF-RHF Final Energy:  -551.27097368917407

   => Energetics <=

    Nuclear Repulsion Energy =            708.9120092422025436
    One-Electron Energy =               -2154.9610152086056587
    Two-Electron Energy =                 894.7780322772289310
    Total Energy =                       -551.2709736891740704
  Basis Set: (AUG-CC-PVTZ AUX)
    Blend: AUG-CC-PVTZ-RI
    Molecular point group: c1

    Geometry (in Angstrom), charge = 0, multiplicity = 1:

       Center              X                  Y                   Z               Mass
    ------------   -----------------  -----------------  -----------------  -----------------
         O            0.091499071770    -1.261561972903    -0.001493850934    15.994914619570
         N            1.098174071770     0.841135027097    -0.004364850934    14.003074004430
         C           -1.211416528230    -0.546227672903     0.041979449066    12.000000000000
         C           -1.748447928230    -0.298937972903    -1.218457850934    12.000000000000
         C           -1.747740928230    -0.294488972903     1.213112149066    12.000000000000
         C            1.221548071770    -0.481514972903    -0.002524850934    12.000000000000
         C           -3.012398928230     0.292835027097    -1.213050850934    12.000000000000
         C           -3.011686928230     0.297270027097     1.206271149066    12.000000000000
         C           -3.644421928230     0.593593027097    -0.003752850934    12.000000000000
         C            2.442875071770    -1.169914972903    -0.001538850934    12.000000000000
         C            3.605089071770    -0.412014972903    -0.002562850934    12.000000000000
         C            3.508907071770     0.984927027097    -0.004503850934    12.000000000000
         C            2.242414071770     1.557394027097    -0.005328850934    12.000000000000
         H           -1.238986928230    -0.546139972903    -2.145724850934     1.007825032230
         H           -1.237746928230    -0.538288972903     2.140986149066     1.007825032230
         H           -3.503653928230     0.519475027097    -2.156162850934     1.007825032230
         H           -3.502389928230     0.527369027097     2.148833149066     1.007825032230
         H            2.452017071770    -2.255137972903    -0.000029850934     1.007825032230
         H           -4.629492928230     1.053072027097    -0.004305850934     1.007825032230
         H            4.575768071770    -0.901665972903    -0.001858850934     1.007825032230
         H            4.395456071770     1.611552027097    -0.005351850934     1.007825032230
         H            2.115542071770     2.638330027097    -0.006834850934     1.007825032230

  Basis Set: AUG-CC-PVTZ
    Blend: AUG-CC-PVTZ
  Basis Set: (AUG-CC-PVTZ AUX)
    Blend: AUG-CC-PVTZ-JKFIT
	 Reference Energy          =    -551.2709736891740704 [Eh]
	 Singles Energy            =      -0.0000000000000000 [Eh]
	 Same-Spin Energy          =      -0.5996536296575848 [Eh]
	 Opposite-Spin Energy      =      -1.8256156003506239 [Eh]
	 Correlation Energy        =      -2.4252692300082086 [Eh]
	 Total Energy              =    -553.6962429191822821 [Eh]

	 ================> DF-SCS-MP2 Energies <==================
	-----------------------------------------------------------
	 SCS Same-Spin Scale       =       0.3333333333333333 [-]
	 SCS Opposite-Spin Scale   =       1.2000000000000000 [-]
	 SCS Same-Spin Energy      =      -0.1998845432191949 [Eh]
	 SCS Opposite-Spin Energy  =      -2.1907387204207485 [Eh]
	 SCS Correlation Energy    =      -2.3906232636399434 [Eh]
	 SCS Total Energy          =    -553.6615969528139658 [Eh]
	-----------------------------------------------------------

  Dipole Moment: [D]
     X:     0.7986      Y:     0.2865      Z:     0.0368     Total:     0.8493

*** Psi4 exiting successfully. Buy a developer a beer!
