                               Psi4 1.3.2 release

  ==> Input File <==

--------------------------------------------------------------------------
#psi4
#
memory 32 gb

molecule  {
0 1
  O        0.0894740    -1.2706490     0.0016280
  N        1.0961490     0.8320480    -0.0012430
  C       -1.1354060    -0.5925990     0.0007920
  C       -1.7504730    -0.3080250    -1.2153360
  C       -1.7497660    -0.3035760     1.2162340
  C        1.2288105    -0.5901697     0.0007355
  C       -3.0144240     0.2837480    -1.2099290
  C       -3.0137120     0.2881830     1.2093930
  C       -3.6464470     0.5845060    -0.0006310
  C        2.4408500    -1.1790020     0.0015830
  C        3.6030640    -0.4211020     0.0005590
  C        3.5068820     0.9758400    -0.0013820
  C        2.2403890     1.5483070    -0.0022070
  H       -1.2410120    -0.5552270    -2.1426030
  H       -1.2397720    -0.5473760     2.1441080
  H       -3.5056790     0.5103880    -2.1530410
  H       -3.5044150     0.5182820     2.1519550
  H        2.4499920    -2.2642250     0.0030920
  H       -4.6315180     1.0439850    -0.0011840
  H        4.5737430    -0.9107530     0.0012630
  H        4.3934310     1.6024650    -0.0022300
  H        2.1135170     2.6292430    -0.0037130
units angstrom
no_reorient  #important for SAPT in psi4, default
symmetry c1  #important for SAPT in psi4, default
}

set PROPERTIES_ORIGIN ["COM"]
properties('MP2/aug-cc-pvtz', properties = ['dipole'])
--------------------------------------------------------------------------

    Molecular point group: c1
  Charge       = 0
  Multiplicity = 1
  Basis Set: AUG-CC-PVTZ
    Blend: AUG-CC-PVTZ
  Basis Set: (AUG-CC-PVTZ AUX)
    Blend: AUG-CC-PVTZ-JKFIT

    Orbital Energies [Eh]
    ---------------------

    Doubly Occupied:

       1A    -20.606609     2A    -15.566416     3A    -11.345691
       4A    -11.302118     5A    -11.281554     6A    -11.267759
       7A    -11.240548     8A    -11.240443     9A    -11.236281
      10A    -11.236274    11A    -11.234621    12A    -11.234618
      13A    -11.232510    14A     -1.450798    15A     -1.230224
      16A     -1.151273    17A     -1.088464    18A     -1.044960
      19A     -1.019259    20A     -0.999313    21A     -0.883516
      22A     -0.853192    23A     -0.838365    24A     -0.808996
      25A     -0.746704    26A     -0.702387    27A     -0.681820
      28A     -0.671881    29A     -0.664102    30A     -0.629144
      31A     -0.616213    32A     -0.593303    33A     -0.590168
      34A     -0.581801    35A     -0.571620    36A     -0.527148
      37A     -0.516727    38A     -0.514693    39A     -0.498613
      40A     -0.486201    41A     -0.424767    42A     -0.382447
      43A     -0.340279    44A     -0.329149    45A     -0.328416

  @DF-RHF Final Energy:  -551.26946744352904

   => Energetics <=

    Nuclear Repulsion Energy =            708.5489655890654603
    One-Electron Energy =               -2154.0540938271410596
    Two-Electron Energy =                 894.2356607945464475
    Total Energy =                       -551.2694674435290381
  Basis Set: (AUG-CC-PVTZ AUX)
    Blend: AUG-CC-PVTZ-RI
    Molecular point group: c1

    Geometry (in Angstrom), charge = 0, multiplicity = 1:

       Center              X                  Y                   Z               Mass
    ------------   -----------------  -----------------  -----------------  -----------------
         O            0.085373585621    -1.251962164484     0.001604614691    15.994914619570
         N            1.092048585621     0.850734835516    -0.001266385309    14.003074004430
         C           -1.139506414379    -0.573912164484     0.000768614691    12.000000000000
         C           -1.754573414379    -0.289338164484    -1.215359385309    12.000000000000
         C           -1.753866414379    -0.284889164484     1.216210614691    12.000000000000
         C            1.224710085621    -0.571482864484     0.000712114691    12.000000000000
         C           -3.018524414379     0.302434835516    -1.209952385309    12.000000000000
         C           -3.017812414379     0.306869835516     1.209369614691    12.000000000000
         C           -3.650547414379     0.603192835516    -0.000654385309    12.000000000000
         C            2.436749585621    -1.160315164484     0.001559614691    12.000000000000
         C            3.598963585621    -0.402415164484     0.000535614691    12.000000000000
         C            3.502781585621     0.994526835516    -0.001405385309    12.000000000000
         C            2.236288585621     1.566993835516    -0.002230385309    12.000000000000
         H           -1.245112414379    -0.536540164484    -2.142626385309     1.007825032230
         H           -1.243872414379    -0.528689164484     2.144084614691     1.007825032230
         H           -3.509779414379     0.529074835516    -2.153064385309     1.007825032230
         H           -3.508515414379     0.536968835516     2.151931614691     1.007825032230
         H            2.445891585621    -2.245538164484     0.003068614691     1.007825032230
         H           -4.635618414379     1.062671835516    -0.001207385309     1.007825032230
         H            4.569642585621    -0.892066164484     0.001239614691     1.007825032230
         H            4.389330585621     1.621151835516    -0.002253385309     1.007825032230
         H            2.109416585621     2.647929835516    -0.003736385309     1.007825032230

  Basis Set: AUG-CC-PVTZ
    Blend: AUG-CC-PVTZ
  Basis Set: (AUG-CC-PVTZ AUX)
    Blend: AUG-CC-PVTZ-JKFIT
	 Reference Energy          =    -551.2694674435290381 [Eh]
	 Singles Energy            =      -0.0000000000000000 [Eh]
	 Same-Spin Energy          =      -0.6002005249080902 [Eh]
	 Opposite-Spin Energy      =      -1.8261449958596003 [Eh]
	 Correlation Energy        =      -2.4263455207676907 [Eh]
	 Total Energy              =    -553.6958129642966924 [Eh]

	 ================> DF-SCS-MP2 Energies <==================
	-----------------------------------------------------------
	 SCS Same-Spin Scale       =       0.3333333333333333 [-]
	 SCS Opposite-Spin Scale   =       1.2000000000000000 [-]
	 SCS Same-Spin Energy      =      -0.2000668416360301 [Eh]
	 SCS Opposite-Spin Energy  =      -2.1913739950315203 [Eh]
	 SCS Correlation Energy    =      -2.3914408366675506 [Eh]
	 SCS Total Energy          =    -553.6609082801966224 [Eh]
	-----------------------------------------------------------

  Dipole Moment: [D]
     X:     1.0635      Y:     0.0813      Z:     0.0001     Total:     1.0666

*** Psi4 exiting successfully. Buy a developer a beer!
