                               Psi4 1.3.2 release

  ==> Input File <==

--------------------------------------------------------------------------
#psi4
#
memory 32 gb

molecule  {
0 1
  O        0.0894740    -1.2706490     0.0016280
  N        1.0961490     0.8320480    -0.0012430
  C       -1.0237237    -0.6451025    -0.0767090
  C       -1.7504730    -0.3080250    -1.2153360
  C       -1.7497660    -0.3035760     1.2162340
  C        1.2195230    -0.4906020     0.0005970
  C       -3.0144240     0.2837480    -1.2099290
  C       -3.0137120     0.2881830     1.2093930
  C       -3.6464470     0.5845060    -0.0006310
  C        2.4408500    -1.1790020     0.0015830
  C        3.6030640    -0.4211020     0.0005590
  C        3.5068820     0.9758400    -0.0013820
  C        2.2403890     1.5483070    -0.0022070
  H       -1.2410120    -0.5552270    -2.1426030
  H       -1.2397720    -0.5473760     2.1441080
  H       -3.5056790     0.5103880    -2.1530410
  H       -3.5044150     0.5182820     2.1519550
  H        2.4499920    -2.2642250     0.0030920
  H       -4.6315180     1.0439850    -0.0011840
  H        4.5737430    -0.9107530     0.0012630
  H        4.3934310     1.6024650    -0.0022300
  H        2.1135170     2.6292430    -0.0037130
units angstrom
no_reorient  #important for SAPT in psi4, default
symmetry c1  #important for SAPT in psi4, default
}

set PROPERTIES_ORIGIN ["COM"]
properties('MP2/aug-cc-pvtz', properties = ['dipole'])
--------------------------------------------------------------------------

    Molecular point group: c1
  Charge       = 0
  Multiplicity = 1
  Basis Set: AUG-CC-PVTZ
    Blend: AUG-CC-PVTZ
  Basis Set: (AUG-CC-PVTZ AUX)
    Blend: AUG-CC-PVTZ-JKFIT

    Orbital Energies [Eh]
    ---------------------

    Doubly Occupied:

       1A    -20.615918     2A    -15.573758     3A    -11.355206
       4A    -11.302500     5A    -11.290077     6A    -11.272652
       7A    -11.249592     8A    -11.244802     9A    -11.236534
      10A    -11.234082    11A    -11.231820    12A    -11.227086
      13A    -11.226370    14A     -1.486611    15A     -1.266268
      16A     -1.130716    17A     -1.100077    18A     -1.051780
      19A     -1.007828    20A     -0.984911    21A     -0.893301
      22A     -0.873459    23A     -0.827608    24A     -0.805162
      25A     -0.750476    26A     -0.716061    27A     -0.681440
      28A     -0.677600    29A     -0.671244    30A     -0.634604
      31A     -0.624188    32A     -0.601926    33A     -0.582661
      34A     -0.579693    35A     -0.571484    36A     -0.544447
      37A     -0.525529    38A     -0.515921    39A     -0.481911
      40A     -0.455030    41A     -0.438335    42A     -0.395715
      43A     -0.341165    44A     -0.332341    45A     -0.306825

  @DF-RHF Final Energy:  -551.25707925013330

   => Energetics <=

    Nuclear Repulsion Energy =            709.6213053944295552
    One-Electron Energy =               -2155.9233371623217863
    Two-Electron Energy =                 895.0449525177589294
    Total Energy =                       -551.2570792501333017
  Basis Set: (AUG-CC-PVTZ AUX)
    Blend: AUG-CC-PVTZ-RI
    Molecular point group: c1

    Geometry (in Angstrom), charge = 0, multiplicity = 1:

       Center              X                  Y                   Z               Mass
    ------------   -----------------  -----------------  -----------------  -----------------
         O            0.078190859296    -1.255263594521     0.007050821730    15.994914619570
         N            1.084865859296     0.847433405479     0.004179821730    14.003074004430
         C           -1.035006840704    -0.629717094521    -0.071286178270    12.000000000000
         C           -1.761756140704    -0.292639594521    -1.209913178270    12.000000000000
         C           -1.761049140704    -0.288190594521     1.221656821730    12.000000000000
         C            1.208239859296    -0.475216594521     0.006019821730    12.000000000000
         C           -3.025707140704     0.299133405479    -1.204506178270    12.000000000000
         C           -3.024995140704     0.303568405479     1.214815821730    12.000000000000
         C           -3.657730140704     0.599891405479     0.004791821730    12.000000000000
         C            2.429566859296    -1.163616594521     0.007005821730    12.000000000000
         C            3.591780859296    -0.405716594521     0.005981821730    12.000000000000
         C            3.495598859296     0.991225405479     0.004040821730    12.000000000000
         C            2.229105859296     1.563692405479     0.003215821730    12.000000000000
         H           -1.252295140704    -0.539841594521    -2.137180178270     1.007825032230
         H           -1.251055140704    -0.531990594521     2.149530821730     1.007825032230
         H           -3.516962140704     0.525773405479    -2.147618178270     1.007825032230
         H           -3.515698140704     0.533667405479     2.157377821730     1.007825032230
         H            2.438708859296    -2.248839594521     0.008514821730     1.007825032230
         H           -4.642801140704     1.059370405479     0.004238821730     1.007825032230
         H            4.562459859296    -0.895367594521     0.006685821730     1.007825032230
         H            4.382147859296     1.617850405479     0.003192821730     1.007825032230
         H            2.102233859296     2.644628405479     0.001709821730     1.007825032230

  Basis Set: AUG-CC-PVTZ
    Blend: AUG-CC-PVTZ
  Basis Set: (AUG-CC-PVTZ AUX)
    Blend: AUG-CC-PVTZ-JKFIT
	 Reference Energy          =    -551.2570792501333017 [Eh]
	 Singles Energy            =      -0.0000000000000000 [Eh]
	 Same-Spin Energy          =      -0.6005662674198909 [Eh]
	 Opposite-Spin Energy      =      -1.8260738196764632 [Eh]
	 Correlation Energy        =      -2.4266400870963540 [Eh]
	 Total Energy              =    -553.6837193372296042 [Eh]

	 ================> DF-SCS-MP2 Energies <==================
	-----------------------------------------------------------
	 SCS Same-Spin Scale       =       0.3333333333333333 [-]
	 SCS Opposite-Spin Scale   =       1.2000000000000000 [-]
	 SCS Same-Spin Energy      =      -0.2001887558066303 [Eh]
	 SCS Opposite-Spin Energy  =      -2.1912885836117559 [Eh]
	 SCS Correlation Energy    =      -2.3914773394183864 [Eh]
	 SCS Total Energy          =    -553.6485565895517311 [Eh]
	-----------------------------------------------------------

  Dipole Moment: [D]
     X:     2.3683      Y:     0.0955      Z:    -0.0494     Total:     2.3707

*** Psi4 exiting successfully. Buy a developer a beer!
