                               Psi4 1.3.2 release

  ==> Input File <==

--------------------------------------------------------------------------
#psi4
#
memory 32 gb

molecule  {
0 1
  O        0.0894740    -1.2706490     0.0016280
  N        1.0961490     0.8320480    -0.0012430
  C       -1.1354060    -0.5925990     0.0007920
  C       -1.7504730    -0.3080250    -1.2153360
  C       -1.7497660    -0.3035760     1.2162340
  C        1.2195230    -0.4906020     0.0005970
  C       -3.0144240     0.2837480    -1.2099290
  C       -3.0137120     0.2881830     1.2093930
  C       -3.6464470     0.5845060    -0.0006310
  C        2.4408500    -1.1790020     0.0015830
  C        3.6030640    -0.4211020     0.0005590
  C        3.5068820     0.9758400    -0.0013820
  C        2.4099147     1.6544249    -0.0023498
  H       -1.2410120    -0.5552270    -2.1426030
  H       -1.2397720    -0.5473760     2.1441080
  H       -3.5056790     0.5103880    -2.1530410
  H       -3.5044150     0.5182820     2.1519550
  H        2.4499920    -2.2642250     0.0030920
  H       -4.6315180     1.0439850    -0.0011840
  H        4.5737430    -0.9107530     0.0012630
  H        4.3934310     1.6024650    -0.0022300
  H        2.1135170     2.6292430    -0.0037130
units angstrom
no_reorient  #important for SAPT in psi4, default
symmetry c1  #important for SAPT in psi4, default
}

set PROPERTIES_ORIGIN ["COM"]
properties('MP2/aug-cc-pvtz', properties = ['dipole'])
--------------------------------------------------------------------------

    Molecular point group: c1
  Charge       = 0
  Multiplicity = 1
  Basis Set: AUG-CC-PVTZ
    Blend: AUG-CC-PVTZ
  Basis Set: (AUG-CC-PVTZ AUX)
    Blend: AUG-CC-PVTZ-JKFIT

    Orbital Energies [Eh]
    ---------------------

    Doubly Occupied:

       1A    -20.598869     2A    -15.563908     3A    -11.341495
       4A    -11.294524     5A    -11.278600     6A    -11.271215
       7A    -11.250191     8A    -11.236693     9A    -11.236585
      10A    -11.235499    11A    -11.231674    12A    -11.231670
      13A    -11.230807    14A     -1.430505    15A     -1.216859
      16A     -1.145198    17A     -1.089166    18A     -1.051179
      19A     -1.015073    20A     -1.001321    21A     -0.891376
      22A     -0.848226    23A     -0.833754    24A     -0.799990
      25A     -0.741599    26A     -0.701388    27A     -0.678852
      28A     -0.664177    29A     -0.656185    30A     -0.647677
      31A     -0.615073    32A     -0.596968    33A     -0.588571
      34A     -0.573639    35A     -0.569747    36A     -0.523938
      37A     -0.511729    38A     -0.510807    39A     -0.490792
      40A     -0.481977    41A     -0.421191    42A     -0.372067
      43A     -0.354292    44A     -0.334230    45A     -0.325420

  @DF-RHF Final Energy:  -551.23983195010067

   => Energetics <=

    Nuclear Repulsion Energy =            706.1658133688024463
    One-Electron Energy =               -2149.4419031645679752
    Two-Electron Energy =                 892.0362578456648635
    Total Energy =                       -551.2398319501006654
  Basis Set: (AUG-CC-PVTZ AUX)
    Blend: AUG-CC-PVTZ-RI
    Molecular point group: c1

    Geometry (in Angstrom), charge = 0, multiplicity = 1:

       Center              X                  Y                   Z               Mass
    ------------   -----------------  -----------------  -----------------  -----------------
         O            0.074133296686    -1.266390469181     0.001624347147    15.994914619570
         N            1.080808296686     0.836306530819    -0.001246652853    14.003074004430
         C           -1.150746703314    -0.588340469181     0.000788347147    12.000000000000
         C           -1.765813703314    -0.303766469181    -1.215339652853    12.000000000000
         C           -1.765106703314    -0.299317469181     1.216230347147    12.000000000000
         C            1.204182296686    -0.486343469181     0.000593347147    12.000000000000
         C           -3.029764703314     0.288006530819    -1.209932652853    12.000000000000
         C           -3.029052703314     0.292441530819     1.209389347147    12.000000000000
         C           -3.661787703314     0.588764530819    -0.000634652853    12.000000000000
         C            2.425509296686    -1.174743469181     0.001579347147    12.000000000000
         C            3.587723296686    -0.416843469181     0.000555347147    12.000000000000
         C            3.491541296686     0.980098530819    -0.001385652853    12.000000000000
         C            2.394573996686     1.658683430819    -0.002353452853    12.000000000000
         H           -1.256352703314    -0.550968469181    -2.142606652853     1.007825032230
         H           -1.255112703314    -0.543117469181     2.144104347147     1.007825032230
         H           -3.521019703314     0.514646530819    -2.153044652853     1.007825032230
         H           -3.519755703314     0.522540530819     2.151951347147     1.007825032230
         H            2.434651296686    -2.259966469181     0.003088347147     1.007825032230
         H           -4.646858703314     1.048243530819    -0.001187652853     1.007825032230
         H            4.558402296686    -0.906494469181     0.001259347147     1.007825032230
         H            4.378090296686     1.606723530819    -0.002233652853     1.007825032230
         H            2.098176296686     2.633501530819    -0.003716652853     1.007825032230

  Basis Set: AUG-CC-PVTZ
    Blend: AUG-CC-PVTZ
  Basis Set: (AUG-CC-PVTZ AUX)
    Blend: AUG-CC-PVTZ-JKFIT
	 Reference Energy          =    -551.2398319501006654 [Eh]
	 Singles Energy            =      -0.0000000000000000 [Eh]
	 Same-Spin Energy          =      -0.5997006504323128 [Eh]
	 Opposite-Spin Energy      =      -1.8299718329944157 [Eh]
	 Correlation Energy        =      -2.4296724834267285 [Eh]
	 Total Energy              =    -553.6695044335274360 [Eh]

	 ================> DF-SCS-MP2 Energies <==================
	-----------------------------------------------------------
	 SCS Same-Spin Scale       =       0.3333333333333333 [-]
	 SCS Opposite-Spin Scale   =       1.2000000000000000 [-]
	 SCS Same-Spin Energy      =      -0.1999002168107709 [Eh]
	 SCS Opposite-Spin Energy  =      -2.1959661995932986 [Eh]
	 SCS Correlation Energy    =      -2.3958664164040697 [Eh]
	 SCS Total Energy          =    -553.6356983665046982 [Eh]
	-----------------------------------------------------------

  Dipole Moment: [D]
     X:     1.6930      Y:     0.2667      Z:    -0.0001     Total:     1.7138

*** Psi4 exiting successfully. Buy a developer a beer!
