                               Psi4 1.3.2 release

  ==> Input File <==

--------------------------------------------------------------------------
#psi4
#
memory 32 gb

molecule  {
0 1
  O        0.0894740    -1.2706490     0.0016280
  N        1.2350796     0.8376985    -0.0012474
  C       -1.1354060    -0.5925990     0.0007920
  C       -1.7504730    -0.3080250    -1.2153360
  C       -1.7497660    -0.3035760     1.2162340
  C        1.2195230    -0.4906020     0.0005970
  C       -3.0144240     0.2837480    -1.2099290
  C       -3.0137120     0.2881830     1.2093930
  C       -3.6464470     0.5845060    -0.0006310
  C        2.4408500    -1.1790020     0.0015830
  C        3.6030640    -0.4211020     0.0005590
  C        3.5068820     0.9758400    -0.0013820
  C        2.2403890     1.5483070    -0.0022070
  H       -1.2410120    -0.5552270    -2.1426030
  H       -1.2397720    -0.5473760     2.1441080
  H       -3.5056790     0.5103880    -2.1530410
  H       -3.5044150     0.5182820     2.1519550
  H        2.4499920    -2.2642250     0.0030920
  H       -4.6315180     1.0439850    -0.0011840
  H        4.5737430    -0.9107530     0.0012630
  H        4.3934310     1.6024650    -0.0022300
  H        2.1135170     2.6292430    -0.0037130
units angstrom
no_reorient  #important for SAPT in psi4, default
symmetry c1  #important for SAPT in psi4, default
}

set PROPERTIES_ORIGIN ["COM"]
properties('MP2/aug-cc-pvtz', properties = ['dipole'])
--------------------------------------------------------------------------

    Molecular point group: c1
  Charge       = 0
  Multiplicity = 1
  Basis Set: AUG-CC-PVTZ
    Blend: AUG-CC-PVTZ
  Basis Set: (AUG-CC-PVTZ AUX)
    Blend: AUG-CC-PVTZ-JKFIT

    Orbital Energies [Eh]
    ---------------------

    Doubly Occupied:

       1A    -20.606603     2A    -15.550589     3A    -11.346177
       4A    -11.299324     5A    -11.268268     6A    -11.259478
       7A    -11.241545     8A    -11.241436     9A    -11.237744
      10A    -11.236916    11A    -11.236909    12A    -11.235700
      13A    -11.230891    14A     -1.435434    15A     -1.288376
      16A     -1.151279    17A     -1.089654    18A     -1.043838
      19A     -1.020151    20A     -0.999222    21A     -0.872753
      22A     -0.872445    23A     -0.838819    24A     -0.811022
      25A     -0.745629    26A     -0.712529    27A     -0.683064
      28A     -0.664729    29A     -0.662040    30A     -0.629061
      31A     -0.621525    32A     -0.597405    33A     -0.595055
      34A     -0.586301    35A     -0.570983    36A     -0.540109
      37A     -0.527712    38A     -0.516308    39A     -0.498344
      40A     -0.488777    41A     -0.404805    42A     -0.394268
      43A     -0.340976    44A     -0.331730    45A     -0.325172

  @DF-RHF Final Energy:  -551.26921961138157

   => Energetics <=

    Nuclear Repulsion Energy =            710.2526859528035175
    One-Electron Energy =               -2157.3416159877770042
    Two-Electron Energy =                 895.8197104235920278
    Total Energy =                       -551.2692196113815726
  Basis Set: (AUG-CC-PVTZ AUX)
    Blend: AUG-CC-PVTZ-RI
    Molecular point group: c1

    Geometry (in Angstrom), charge = 0, multiplicity = 1:

       Center              X                  Y                   Z               Mass
    ------------   -----------------  -----------------  -----------------  -----------------
         O            0.074652696642    -1.259409107731     0.001614690271    15.994914619570
         N            1.220258296642     0.848938392269    -0.001260709729    14.003074004430
         C           -1.150227303358    -0.581359107731     0.000778690271    12.000000000000
         C           -1.765294303358    -0.296785107731    -1.215349309729    12.000000000000
         C           -1.764587303358    -0.292336107731     1.216220690271    12.000000000000
         C            1.204701696642    -0.479362107731     0.000583690271    12.000000000000
         C           -3.029245303358     0.294987892269    -1.209942309729    12.000000000000
         C           -3.028533303358     0.299422892269     1.209379690271    12.000000000000
         C           -3.661268303358     0.595745892269    -0.000644309729    12.000000000000
         C            2.426028696642    -1.167762107731     0.001569690271    12.000000000000
         C            3.588242696642    -0.409862107731     0.000545690271    12.000000000000
         C            3.492060696642     0.987079892269    -0.001395309729    12.000000000000
         C            2.225567696642     1.559546892269    -0.002220309729    12.000000000000
         H           -1.255833303358    -0.543987107731    -2.142616309729     1.007825032230
         H           -1.254593303358    -0.536136107731     2.144094690271     1.007825032230
         H           -3.520500303358     0.521627892269    -2.153054309729     1.007825032230
         H           -3.519236303358     0.529521892269     2.151941690271     1.007825032230
         H            2.435170696642    -2.252985107731     0.003078690271     1.007825032230
         H           -4.646339303358     1.055224892269    -0.001197309729     1.007825032230
         H            4.558921696642    -0.899513107731     0.001249690271     1.007825032230
         H            4.378609696642     1.613704892269    -0.002243309729     1.007825032230
         H            2.098695696642     2.640482892269    -0.003726309729     1.007825032230

  Basis Set: AUG-CC-PVTZ
    Blend: AUG-CC-PVTZ
  Basis Set: (AUG-CC-PVTZ AUX)
    Blend: AUG-CC-PVTZ-JKFIT
	 Reference Energy          =    -551.2692196113815726 [Eh]
	 Singles Energy            =      -0.0000000000000000 [Eh]
	 Same-Spin Energy          =      -0.5992805991729884 [Eh]
	 Opposite-Spin Energy      =      -1.8221698927426913 [Eh]
	 Correlation Energy        =      -2.4214504919156798 [Eh]
	 Total Energy              =    -553.6906701032972933 [Eh]

	 ================> DF-SCS-MP2 Energies <==================
	-----------------------------------------------------------
	 SCS Same-Spin Scale       =       0.3333333333333333 [-]
	 SCS Opposite-Spin Scale   =       1.2000000000000000 [-]
	 SCS Same-Spin Energy      =      -0.1997601997243295 [Eh]
	 SCS Opposite-Spin Energy  =      -2.1866038712912292 [Eh]
	 SCS Correlation Energy    =      -2.3863640710155587 [Eh]
	 SCS Total Energy          =    -553.6555836823971504 [Eh]
	-----------------------------------------------------------

  Dipole Moment: [D]
     X:     0.8907      Y:     0.2156      Z:    -0.0001     Total:     0.9164

*** Psi4 exiting successfully. Buy a developer a beer!
