                               Psi4 1.4a3.dev225

  ==> Input File <==

--------------------------------------------------------------------------
#psi4
#
memory 32 gb

molecule  {
0 1
  O        0.0894740    -1.2706490     0.0016280
  N        1.0961490     0.8320480    -0.0012430
  C       -1.1529039    -0.5829128     0.0007801
  C       -1.7504730    -0.3080250    -1.2153360
  C       -1.7497660    -0.3035760     1.2162340
  C        1.2195230    -0.4906020     0.0005970
  C       -3.0144240     0.2837480    -1.2099290
  C       -3.0137120     0.2881830     1.2093930
  C       -3.6464470     0.5845060    -0.0006310
  C        2.4408500    -1.1790020     0.0015830
  C        3.6030640    -0.4211020     0.0005590
  C        3.5068820     0.9758400    -0.0013820
  C        2.2403890     1.5483070    -0.0022070
  H       -1.2410120    -0.5552270    -2.1426030
  H       -1.2397720    -0.5473760     2.1441080
  H       -3.5056790     0.5103880    -2.1530410
  H       -3.5044150     0.5182820     2.1519550
  H        2.4499920    -2.2642250     0.0030920
  H       -4.6315180     1.0439850    -0.0011840
  H        4.5737430    -0.9107530     0.0012630
  H        4.3934310     1.6024650    -0.0022300
  H        2.1135170     2.6292430    -0.0037130
units angstrom
no_reorient  #important for SAPT in psi4, default
symmetry c1  #important for SAPT in psi4, default
}

set PROPERTIES_ORIGIN ["COM"]
properties('MP2/aug-cc-pvtz', properties = ['dipole'])
--------------------------------------------------------------------------

    Molecular point group: c1
  Charge       = 0
  Multiplicity = 1
  Basis Set: AUG-CC-PVTZ
    Blend: AUG-CC-PVTZ
  Basis Set: (AUG-CC-PVTZ AUX)
    Blend: AUG-CC-PVTZ-JKFIT

    Orbital Energies [Eh]
    ---------------------

    Doubly Occupied:

       1A    -20.598143     2A    -15.564519     3A    -11.344137
       4A    -11.295873     5A    -11.283420     6A    -11.265938
       7A    -11.240716     8A    -11.239751     9A    -11.239645
      10A    -11.236958    11A    -11.234050    12A    -11.234045
      13A    -11.233664    14A     -1.426099    15A     -1.253902
      16A     -1.151029    17A     -1.092363    18A     -1.038887
      19A     -1.019516    20A     -0.997611    21A     -0.876679
      22A     -0.858478    23A     -0.837772    24A     -0.805858
      25A     -0.737928    26A     -0.705137    27A     -0.679195
      28A     -0.667199    29A     -0.657451    30A     -0.627976
      31A     -0.613634    32A     -0.594347    33A     -0.593250
      34A     -0.579639    35A     -0.568071    36A     -0.535323
      37A     -0.516595    38A     -0.512825    39A     -0.497666
      40A     -0.485963    41A     -0.431279    42A     -0.389003
      43A     -0.339517    44A     -0.330619    45A     -0.329758

  @DF-RHF Final Energy:  -551.28214196375939

   => Energetics <=

    Nuclear Repulsion Energy =            709.0315116148110519
    One-Electron Energy =               -2155.1044474201435150
    Two-Electron Energy =                 894.7907938415730769
    Total Energy =                       -551.2821419637593863
  Basis Set: (AUG-CC-PVTZ AUX)
    Blend: AUG-CC-PVTZ-RI
    Molecular point group: c1

    Geometry (in Angstrom), charge = 0, multiplicity = 1:

       Center              X                  Y                   Z               Mass
    ------------   -----------------  -----------------  -----------------  -----------------
         O            0.087252511091    -1.259626038662     0.001615164856    15.994914619570
         N            1.093927511091     0.843070961338    -0.001255835144    14.003074004430
         C           -1.155125388909    -0.571889838662     0.000767264856    12.000000000000
         C           -1.752694488909    -0.297002038662    -1.215348835144    12.000000000000
         C           -1.751987488909    -0.292553038662     1.216221164856    12.000000000000
         C            1.217301511091    -0.479579038662     0.000584164856    12.000000000000
         C           -3.016645488909     0.294770961338    -1.209941835144    12.000000000000
         C           -3.015933488909     0.299205961338     1.209380164856    12.000000000000
         C           -3.648668488909     0.595528961338    -0.000643835144    12.000000000000
         C            2.438628511091    -1.167979038662     0.001570164856    12.000000000000
         C            3.600842511091    -0.410079038662     0.000546164856    12.000000000000
         C            3.504660511091     0.986862961338    -0.001394835144    12.000000000000
         C            2.238167511091     1.559329961338    -0.002219835144    12.000000000000
         H           -1.243233488909    -0.544204038662    -2.142615835144     1.007825032230
         H           -1.241993488909    -0.536353038662     2.144095164856     1.007825032230
         H           -3.507900488909     0.521410961338    -2.153053835144     1.007825032230
         H           -3.506636488909     0.529304961338     2.151942164856     1.007825032230
         H            2.447770511091    -2.253202038662     0.003079164856     1.007825032230
         H           -4.633739488909     1.055007961338    -0.001196835144     1.007825032230
         H            4.571521511091    -0.899730038662     0.001250164856     1.007825032230
         H            4.391209511091     1.613487961338    -0.002242835144     1.007825032230
         H            2.111295511091     2.640265961338    -0.003725835144     1.007825032230

  Basis Set: AUG-CC-PVTZ
    Blend: AUG-CC-PVTZ
  Basis Set: (AUG-CC-PVTZ AUX)
    Blend: AUG-CC-PVTZ-JKFIT
	 Reference Energy          =    -551.2821419637593863 [Eh]
	 Singles Energy            =      -0.0000000000000000 [Eh]
	 Same-Spin Energy          =      -0.5995857512678739 [Eh]
	 Opposite-Spin Energy      =      -1.8248618894356996 [Eh]
	 Correlation Energy        =      -2.4244476407035735 [Eh]
	 Total Energy              =    -553.7065896044629199 [Eh]

	 ================> DF-SCS-MP2 Energies <==================
	-----------------------------------------------------------
	 SCS Same-Spin Scale       =       0.3333333333333333 [-]
	 SCS Opposite-Spin Scale   =       1.2000000000000000 [-]
	 SCS Same-Spin Energy      =      -0.1998619170892913 [Eh]
	 SCS Opposite-Spin Energy  =      -2.1898342673228393 [Eh]
	 SCS Correlation Energy    =      -2.3896961844121307 [Eh]
	 SCS Total Energy          =    -553.6718381481715596 [Eh]
	-----------------------------------------------------------

  Dipole Moment: [D]
     X:     1.2689      Y:     0.2334      Z:    -0.0001     Total:     1.2902

*** Psi4 exiting successfully. Buy a developer a beer!
