                               Psi4 1.4a3.dev225

  ==> Input File <==

--------------------------------------------------------------------------
#psi4
#
memory 32 gb

molecule  {
0 1
  O        0.0894740    -1.2706490     0.0016280
  N        1.0961490     0.8320480    -0.0012430
  C       -1.1791508    -0.5683834     0.0007621
  C       -1.7504730    -0.3080250    -1.2153360
  C       -1.7497660    -0.3035760     1.2162340
  C        1.2195230    -0.4906020     0.0005970
  C       -3.0144240     0.2837480    -1.2099290
  C       -3.0137120     0.2881830     1.2093930
  C       -3.6464470     0.5845060    -0.0006310
  C        2.4408500    -1.1790020     0.0015830
  C        3.6030640    -0.4211020     0.0005590
  C        3.5068820     0.9758400    -0.0013820
  C        2.2403890     1.5483070    -0.0022070
  H       -1.2410120    -0.5552270    -2.1426030
  H       -1.2397720    -0.5473760     2.1441080
  H       -3.5056790     0.5103880    -2.1530410
  H       -3.5044150     0.5182820     2.1519550
  H        2.4499920    -2.2642250     0.0030920
  H       -4.6315180     1.0439850    -0.0011840
  H        4.5737430    -0.9107530     0.0012630
  H        4.3934310     1.6024650    -0.0022300
  H        2.1135170     2.6292430    -0.0037130
units angstrom
no_reorient  #important for SAPT in psi4, default
symmetry c1  #important for SAPT in psi4, default
}

set PROPERTIES_ORIGIN ["COM"]
properties('MP2/aug-cc-pvtz', properties = ['dipole'])
--------------------------------------------------------------------------

    Molecular point group: c1
  Charge       = 0
  Multiplicity = 1
  Basis Set: AUG-CC-PVTZ
    Blend: AUG-CC-PVTZ
  Basis Set: (AUG-CC-PVTZ AUX)
    Blend: AUG-CC-PVTZ-JKFIT

    Orbital Energies [Eh]
    ---------------------

    Doubly Occupied:

       1A    -20.594245     2A    -15.562734     3A    -11.341907
       4A    -11.295243     5A    -11.282114     6A    -11.264594
       7A    -11.241153     8A    -11.241050     9A    -11.238968
      10A    -11.235433    11A    -11.234902    12A    -11.234436
      13A    -11.234397    14A     -1.415953    15A     -1.251465
      16A     -1.155860    17A     -1.090841    18A     -1.037070
      19A     -1.023053    20A     -0.999166    21A     -0.874053
      22A     -0.855328    23A     -0.840566    24A     -0.806210
      25A     -0.735187    26A     -0.703995    27A     -0.678536
      28A     -0.664782    29A     -0.655955    30A     -0.627913
      31A     -0.612012    32A     -0.598883    33A     -0.590786
      34A     -0.578898    35A     -0.565254    36A     -0.533616
      37A     -0.516025    38A     -0.511052    39A     -0.500629
      40A     -0.488962    41A     -0.429733    42A     -0.387684
      43A     -0.341052    44A     -0.334586    45A     -0.328139

  @DF-RHF Final Energy:  -551.27962792938297

   => Energetics <=

    Nuclear Repulsion Energy =            708.9763088283159504
    One-Electron Energy =               -2155.0430365892784721
    Two-Electron Energy =                 894.7870998315795532
    Total Energy =                       -551.2796279293829684
  Basis Set: (AUG-CC-PVTZ AUX)
    Blend: AUG-CC-PVTZ-RI
    Molecular point group: c1

    Geometry (in Angstrom), charge = 0, multiplicity = 1:

       Center              X                  Y                   Z               Mass
    ------------   -----------------  -----------------  -----------------  -----------------
         O            0.089093662200    -1.260645237917     0.001616427509    15.994914619570
         N            1.095768662200     0.842051762083    -0.001254572491    14.003074004430
         C           -1.179531137800    -0.558379637917     0.000750527509    12.000000000000
         C           -1.750853337800    -0.298021237917    -1.215347572491    12.000000000000
         C           -1.750146337800    -0.293572237917     1.216222427509    12.000000000000
         C            1.219142662200    -0.480598237917     0.000585427509    12.000000000000
         C           -3.014804337800     0.293751762083    -1.209940572491    12.000000000000
         C           -3.014092337800     0.298186762083     1.209381427509    12.000000000000
         C           -3.646827337800     0.594509762083    -0.000642572491    12.000000000000
         C            2.440469662200    -1.168998237917     0.001571427509    12.000000000000
         C            3.602683662200    -0.411098237917     0.000547427509    12.000000000000
         C            3.506501662200     0.985843762083    -0.001393572491    12.000000000000
         C            2.240008662200     1.558310762083    -0.002218572491    12.000000000000
         H           -1.241392337800    -0.545223237917    -2.142614572491     1.007825032230
         H           -1.240152337800    -0.537372237917     2.144096427509     1.007825032230
         H           -3.506059337800     0.520391762083    -2.153052572491     1.007825032230
         H           -3.504795337800     0.528285762083     2.151943427509     1.007825032230
         H            2.449611662200    -2.254221237917     0.003080427509     1.007825032230
         H           -4.631898337800     1.053988762083    -0.001195572491     1.007825032230
         H            4.573362662200    -0.900749237917     0.001251427509     1.007825032230
         H            4.393050662200     1.612468762083    -0.002241572491     1.007825032230
         H            2.113136662200     2.639246762083    -0.003724572491     1.007825032230

  Basis Set: AUG-CC-PVTZ
    Blend: AUG-CC-PVTZ
  Basis Set: (AUG-CC-PVTZ AUX)
    Blend: AUG-CC-PVTZ-JKFIT
	 Reference Energy          =    -551.2796279293829684 [Eh]
	 Singles Energy            =      -0.0000000000000000 [Eh]
	 Same-Spin Energy          =      -0.5996207716593895 [Eh]
	 Opposite-Spin Energy      =      -1.8251139273429482 [Eh]
	 Correlation Energy        =      -2.4247346990023377 [Eh]
	 Total Energy              =    -553.7043626283852973 [Eh]

	 ================> DF-SCS-MP2 Energies <==================
	-----------------------------------------------------------
	 SCS Same-Spin Scale       =       0.3333333333333333 [-]
	 SCS Opposite-Spin Scale   =       1.2000000000000000 [-]
	 SCS Same-Spin Energy      =      -0.1998735905531298 [Eh]
	 SCS Opposite-Spin Energy  =      -2.1901367128115377 [Eh]
	 SCS Correlation Energy    =      -2.3900103033646674 [Eh]
	 SCS Total Energy          =    -553.6696382327476158 [Eh]
	-----------------------------------------------------------

  Dipole Moment: [D]
     X:     1.0583      Y:     0.2579      Z:    -0.0001     Total:     1.0893

*** Psi4 exiting successfully. Buy a developer a beer!
