                               Psi4 1.3.2 release

  ==> Input File <==

--------------------------------------------------------------------------
#psi4
#
memory 32 gb

molecule  {
0 1
  O        0.0894740    -1.2706490     0.0016280
  N        1.0961490     0.8320480    -0.0012430
  C       -1.1354060    -0.5925990     0.0007920
  C       -1.7504730    -0.3080250    -1.2153360
  C       -1.7497660    -0.3035760     1.2162340
  C        1.2425877    -0.4882474     0.0005943
  C       -3.0144240     0.2837480    -1.2099290
  C       -3.0137120     0.2881830     1.2093930
  C       -3.6464470     0.5845060    -0.0006310
  C        2.4408500    -1.1790020     0.0015830
  C        3.6030640    -0.4211020     0.0005590
  C        3.5068820     0.9758400    -0.0013820
  C        2.2403890     1.5483070    -0.0022070
  H       -1.2410120    -0.5552270    -2.1426030
  H       -1.2397720    -0.5473760     2.1441080
  H       -3.5056790     0.5103880    -2.1530410
  H       -3.5044150     0.5182820     2.1519550
  H        2.4499920    -2.2642250     0.0030920
  H       -4.6315180     1.0439850    -0.0011840
  H        4.5737430    -0.9107530     0.0012630
  H        4.3934310     1.6024650    -0.0022300
  H        2.1135170     2.6292430    -0.0037130
units angstrom
no_reorient  #important for SAPT in psi4, default
symmetry c1  #important for SAPT in psi4, default
}

set PROPERTIES_ORIGIN ["COM"]
properties('MP2/aug-cc-pvtz', properties = ['dipole'])
--------------------------------------------------------------------------

    Molecular point group: c1
  Charge       = 0
  Multiplicity = 1
  Basis Set: AUG-CC-PVTZ
    Blend: AUG-CC-PVTZ
  Basis Set: (AUG-CC-PVTZ AUX)
    Blend: AUG-CC-PVTZ-JKFIT

    Orbital Energies [Eh]
    ---------------------

    Doubly Occupied:

       1A    -20.596009     2A    -15.568012     3A    -11.344273
       4A    -11.294520     5A    -11.285821     6A    -11.268810
       7A    -11.241748     8A    -11.239779     9A    -11.237589
      10A    -11.237484    11A    -11.232138    12A    -11.232135
      13A    -11.231500    14A     -1.423405    15A     -1.258137
      16A     -1.146075    17A     -1.096580    18A     -1.041540
      19A     -1.015829    20A     -0.995612    21A     -0.879824
      22A     -0.859827    23A     -0.834248    24A     -0.805387
      25A     -0.737798    26A     -0.705419    27A     -0.678985
      28A     -0.667603    29A     -0.655639    30A     -0.630086
      31A     -0.613580    32A     -0.594447    33A     -0.589887
      34A     -0.578729    35A     -0.570085    36A     -0.536828
      37A     -0.517052    38A     -0.512282    39A     -0.493177
      40A     -0.481258    41A     -0.436523    42A     -0.391117
      43A     -0.338955    44A     -0.332929    45A     -0.326026

  @DF-RHF Final Energy:  -551.28161362839796

   => Energetics <=

    Nuclear Repulsion Energy =            708.9613967925984070
    One-Electron Energy =               -2154.9766467463423396
    Two-Electron Energy =                 894.7336363253459695
    Total Energy =                       -551.2816136283979631
  Basis Set: (AUG-CC-PVTZ AUX)
    Blend: AUG-CC-PVTZ-RI
    Molecular point group: c1

    Geometry (in Angstrom), charge = 0, multiplicity = 1:

       Center              X                  Y                   Z               Mass
    ------------   -----------------  -----------------  -----------------  -----------------
         O            0.084407151220    -1.259111746175     0.001614519500    15.994914619570
         N            1.091082151220     0.843585253825    -0.001256480500    14.003074004430
         C           -1.140472848780    -0.581061746175     0.000778519500    12.000000000000
         C           -1.755539848780    -0.296487746175    -1.215349480500    12.000000000000
         C           -1.754832848780    -0.292038746175     1.216220519500    12.000000000000
         C            1.237520851220    -0.476710146175     0.000580819500    12.000000000000
         C           -3.019490848780     0.295285253825    -1.209942480500    12.000000000000
         C           -3.018778848780     0.299720253825     1.209379519500    12.000000000000
         C           -3.651513848780     0.596043253825    -0.000644480500    12.000000000000
         C            2.435783151220    -1.167464746175     0.001569519500    12.000000000000
         C            3.597997151220    -0.409564746175     0.000545519500    12.000000000000
         C            3.501815151220     0.987377253825    -0.001395480500    12.000000000000
         C            2.235322151220     1.559844253825    -0.002220480500    12.000000000000
         H           -1.246078848780    -0.543689746175    -2.142616480500     1.007825032230
         H           -1.244838848780    -0.535838746175     2.144094519500     1.007825032230
         H           -3.510745848780     0.521925253825    -2.153054480500     1.007825032230
         H           -3.509481848780     0.529819253825     2.151941519500     1.007825032230
         H            2.444925151220    -2.252687746175     0.003078519500     1.007825032230
         H           -4.636584848780     1.055522253825    -0.001197480500     1.007825032230
         H            4.568676151220    -0.899215746175     0.001249519500     1.007825032230
         H            4.388364151220     1.614002253825    -0.002243480500     1.007825032230
         H            2.108450151220     2.640780253825    -0.003726480500     1.007825032230

  Basis Set: AUG-CC-PVTZ
    Blend: AUG-CC-PVTZ
  Basis Set: (AUG-CC-PVTZ AUX)
    Blend: AUG-CC-PVTZ-JKFIT
	 Reference Energy          =    -551.2816136283979631 [Eh]
	 Singles Energy            =      -0.0000000000000000 [Eh]
	 Same-Spin Energy          =      -0.5997471779633703 [Eh]
	 Opposite-Spin Energy      =      -1.8250109677401376 [Eh]
	 Correlation Energy        =      -2.4247581457035077 [Eh]
	 Total Energy              =    -553.7063717741015125 [Eh]

	 ================> DF-SCS-MP2 Energies <==================
	-----------------------------------------------------------
	 SCS Same-Spin Scale       =       0.3333333333333333 [-]
	 SCS Opposite-Spin Scale   =       1.2000000000000000 [-]
	 SCS Same-Spin Energy      =      -0.1999157259877901 [Eh]
	 SCS Opposite-Spin Energy  =      -2.1900131612881650 [Eh]
	 SCS Correlation Energy    =      -2.3899288872759552 [Eh]
	 SCS Total Energy          =    -553.6715425156738775 [Eh]
	-----------------------------------------------------------

  Dipole Moment: [D]
     X:     1.6324      Y:     0.2782      Z:    -0.0002     Total:     1.6559

*** Psi4 exiting successfully. Buy a developer a beer!
