                               Psi4 1.3.2 release

  ==> Input File <==

--------------------------------------------------------------------------
#psi4
#
memory 32 gb

molecule  {
0 1
  O        0.0894740    -1.2706490     0.0016280
  N        1.0961490     0.8320480    -0.0012430
  C       -1.1740727    -0.5741189     0.0237014
  C       -1.7504730    -0.3080250    -1.2153360
  C       -1.7497660    -0.3035760     1.2162340
  C        1.2195230    -0.4906020     0.0005970
  C       -3.0144240     0.2837480    -1.2099290
  C       -3.0137120     0.2881830     1.2093930
  C       -3.6464470     0.5845060    -0.0006310
  C        2.4408500    -1.1790020     0.0015830
  C        3.6030640    -0.4211020     0.0005590
  C        3.5068820     0.9758400    -0.0013820
  C        2.2403890     1.5483070    -0.0022070
  H       -1.2410120    -0.5552270    -2.1426030
  H       -1.2397720    -0.5473760     2.1441080
  H       -3.5056790     0.5103880    -2.1530410
  H       -3.5044150     0.5182820     2.1519550
  H        2.4499920    -2.2642250     0.0030920
  H       -4.6315180     1.0439850    -0.0011840
  H        4.5737430    -0.9107530     0.0012630
  H        4.3934310     1.6024650    -0.0022300
  H        2.1135170     2.6292430    -0.0037130
units angstrom
no_reorient  #important for SAPT in psi4, default
symmetry c1  #important for SAPT in psi4, default
}

set PROPERTIES_ORIGIN ["COM"]
properties('MP2/aug-cc-pvtz', properties = ['dipole'])
--------------------------------------------------------------------------

    Molecular point group: c1
  Charge       = 0
  Multiplicity = 1
  Basis Set: AUG-CC-PVTZ
    Blend: AUG-CC-PVTZ
  Basis Set: (AUG-CC-PVTZ AUX)
    Blend: AUG-CC-PVTZ-JKFIT

    Orbital Energies [Eh]
    ---------------------

    Doubly Occupied:

       1A    -20.595094     2A    -15.563139     3A    -11.342447
       4A    -11.295286     5A    -11.282406     6A    -11.264902
       7A    -11.241046     8A    -11.240496     9A    -11.239377
      10A    -11.236503    11A    -11.235781    12A    -11.234649
      13A    -11.232061    14A     -1.418172    15A     -1.252021
      16A     -1.154837    17A     -1.091185    18A     -1.037702
      19A     -1.022335    20A     -0.998600    21A     -0.874635
      22A     -0.856086    23A     -0.840041    24A     -0.805941
      25A     -0.735870    26A     -0.704197    27A     -0.678835
      28A     -0.665397    29A     -0.656097    30A     -0.627860
      31A     -0.612448    32A     -0.598057    33A     -0.591061
      34A     -0.579101    35A     -0.565827    36A     -0.534006
      37A     -0.516240    38A     -0.511451    39A     -0.500032
      40A     -0.488017    41A     -0.430054    42A     -0.387980
      43A     -0.341879    44A     -0.332733    45A     -0.328461

  @DF-RHF Final Energy:  -551.27969980200919

   => Energetics <=

    Nuclear Repulsion Energy =            708.9747608207496796
    One-Electron Energy =               -2155.0282331098283066
    Two-Electron Energy =                 894.7737724870694365
    Total Energy =                       -551.2796998020091905
  Basis Set: (AUG-CC-PVTZ AUX)
    Blend: AUG-CC-PVTZ-RI
    Molecular point group: c1

    Geometry (in Angstrom), charge = 0, multiplicity = 1:

       Center              X                  Y                   Z               Mass
    ------------   -----------------  -----------------  -----------------  -----------------
         O            0.088737446820    -1.260242907654     0.000007295854    15.994914619570
         N            1.095412446820     0.842454092346    -0.002863704146    14.003074004430
         C           -1.174809253180    -0.563712807654     0.022080695854    12.000000000000
         C           -1.751209553180    -0.297618907654    -1.216956704146    12.000000000000
         C           -1.750502553180    -0.293169907654     1.214613295854    12.000000000000
         C            1.218786446820    -0.480195907654    -0.001023704146    12.000000000000
         C           -3.015160553180     0.294154092346    -1.211549704146    12.000000000000
         C           -3.014448553180     0.298589092346     1.207772295854    12.000000000000
         C           -3.647183553180     0.594912092346    -0.002251704146    12.000000000000
         C            2.440113446820    -1.168595907654    -0.000037704146    12.000000000000
         C            3.602327446820    -0.410695907654    -0.001061704146    12.000000000000
         C            3.506145446820     0.986246092346    -0.003002704146    12.000000000000
         C            2.239652446820     1.558713092346    -0.003827704146    12.000000000000
         H           -1.241748553180    -0.544820907654    -2.144223704146     1.007825032230
         H           -1.240508553180    -0.536969907654     2.142487295854     1.007825032230
         H           -3.506415553180     0.520794092346    -2.154661704146     1.007825032230
         H           -3.505151553180     0.528688092346     2.150334295854     1.007825032230
         H            2.449255446820    -2.253818907654     0.001471295854     1.007825032230
         H           -4.632254553180     1.054391092346    -0.002804704146     1.007825032230
         H            4.573006446820    -0.900346907654    -0.000357704146     1.007825032230
         H            4.392694446820     1.612871092346    -0.003850704146     1.007825032230
         H            2.112780446820     2.639649092346    -0.005333704146     1.007825032230

  Basis Set: AUG-CC-PVTZ
    Blend: AUG-CC-PVTZ
  Basis Set: (AUG-CC-PVTZ AUX)
    Blend: AUG-CC-PVTZ-JKFIT
	 Reference Energy          =    -551.2796998020091905 [Eh]
	 Singles Energy            =      -0.0000000000000000 [Eh]
	 Same-Spin Energy          =      -0.5995634685418081 [Eh]
	 Opposite-Spin Energy      =      -1.8250297546629826 [Eh]
	 Correlation Energy        =      -2.4245932232047904 [Eh]
	 Total Energy              =    -553.7042930252139286 [Eh]

	 ================> DF-SCS-MP2 Energies <==================
	-----------------------------------------------------------
	 SCS Same-Spin Scale       =       0.3333333333333333 [-]
	 SCS Opposite-Spin Scale   =       1.2000000000000000 [-]
	 SCS Same-Spin Energy      =      -0.1998544895139360 [Eh]
	 SCS Opposite-Spin Energy  =      -2.1900357055955788 [Eh]
	 SCS Correlation Energy    =      -2.3898901951095146 [Eh]
	 SCS Total Energy          =    -553.6695899971186918 [Eh]
	-----------------------------------------------------------

  Dipole Moment: [D]
     X:     1.1055      Y:     0.2521      Z:     0.0171     Total:     1.1340

*** Psi4 exiting successfully. Buy a developer a beer!
