                               Psi4 1.3.2 release

  ==> Input File <==

--------------------------------------------------------------------------
#psi4
#
memory 32 gb

molecule  {
0 1
  O        0.0894740    -1.2706490     0.0016280
  N        1.0961490     0.8320480    -0.0012430
  C       -1.1354060    -0.5925990     0.0007920
  C       -1.7062939    -0.3284654    -1.1279839
  C       -1.7497660    -0.3035760     1.2162340
  C        1.2195230    -0.4906020     0.0005970
  C       -3.0144240     0.2837480    -1.2099290
  C       -3.0137120     0.2881830     1.2093930
  C       -3.6464470     0.5845060    -0.0006310
  C        2.4408500    -1.1790020     0.0015830
  C        3.6030640    -0.4211020     0.0005590
  C        3.5068820     0.9758400    -0.0013820
  C        2.2403890     1.5483070    -0.0022070
  H       -1.2410120    -0.5552270    -2.1426030
  H       -1.2397720    -0.5473760     2.1441080
  H       -3.5056790     0.5103880    -2.1530410
  H       -3.5044150     0.5182820     2.1519550
  H        2.4499920    -2.2642250     0.0030920
  H       -4.6315180     1.0439850    -0.0011840
  H        4.5737430    -0.9107530     0.0012630
  H        4.3934310     1.6024650    -0.0022300
  H        2.1135170     2.6292430    -0.0037130
units angstrom
no_reorient  #important for SAPT in psi4, default
symmetry c1  #important for SAPT in psi4, default
}

set PROPERTIES_ORIGIN ["COM"]
properties('MP2/aug-cc-pvtz', properties = ['dipole'])
--------------------------------------------------------------------------

    Molecular point group: c1
  Charge       = 0
  Multiplicity = 1
  Basis Set: AUG-CC-PVTZ
    Blend: AUG-CC-PVTZ
  Basis Set: (AUG-CC-PVTZ AUX)
    Blend: AUG-CC-PVTZ-JKFIT

    Orbital Energies [Eh]
    ---------------------

    Doubly Occupied:

       1A    -20.598166     2A    -15.565165     3A    -11.344796
       4A    -11.283833     5A    -11.283415     6A    -11.266295
       7A    -11.243993     8A    -11.241186     9A    -11.238249
      10A    -11.237416    11A    -11.235346    12A    -11.233897
      13A    -11.230402    14A     -1.432643    15A     -1.255234
      16A     -1.154312    17A     -1.092810    18A     -1.043839
      19A     -1.012894    20A     -1.002613    21A     -0.877152
      22A     -0.859291    23A     -0.843599    24A     -0.802489
      25A     -0.741444    26A     -0.705904    27A     -0.676005
      28A     -0.667610    29A     -0.659814    30A     -0.628247
      31A     -0.616063    32A     -0.597989    33A     -0.589632
      34A     -0.572331    35A     -0.569761    36A     -0.536272
      37A     -0.519338    38A     -0.502037    39A     -0.498552
      40A     -0.486651    41A     -0.431670    42A     -0.389401
      43A     -0.343900    44A     -0.332867    45A     -0.326659

  @DF-RHF Final Energy:  -551.26977329757221

   => Energetics <=

    Nuclear Repulsion Energy =            710.7858312054372618
    One-Electron Energy =               -2158.5688450284201281
    Two-Electron Energy =                 896.5132405254106516
    Total Energy =                       -551.2697732975722147
  Basis Set: (AUG-CC-PVTZ AUX)
    Blend: AUG-CC-PVTZ-RI
    Molecular point group: c1

    Geometry (in Angstrom), charge = 0, multiplicity = 1:

       Center              X                  Y                   Z               Mass
    ------------   -----------------  -----------------  -----------------  -----------------
         O            0.082926031508    -1.257512736786    -0.004513190321    15.994914619570
         N            1.089601031508     0.845184263214    -0.007384190321    14.003074004430
         C           -1.141953968492    -0.579462736786    -0.005349190321    12.000000000000
         C           -1.712841868492    -0.315329136786    -1.134125090321    12.000000000000
         C           -1.756313968492    -0.290439736786     1.210092809679    12.000000000000
         C            1.212975031508    -0.477465736786    -0.005544190321    12.000000000000
         C           -3.020971968492     0.296884263214    -1.216070190321    12.000000000000
         C           -3.020259968492     0.301319263214     1.203251809679    12.000000000000
         C           -3.652994968492     0.597642263214    -0.006772190321    12.000000000000
         C            2.434302031508    -1.165865736786    -0.004558190321    12.000000000000
         C            3.596516031508    -0.407965736786    -0.005582190321    12.000000000000
         C            3.500334031508     0.988976263214    -0.007523190321    12.000000000000
         C            2.233841031508     1.561443263214    -0.008348190321    12.000000000000
         H           -1.247559968492    -0.542090736786    -2.148744190321     1.007825032230
         H           -1.246319968492    -0.534239736786     2.137966809679     1.007825032230
         H           -3.512226968492     0.523524263214    -2.159182190321     1.007825032230
         H           -3.510962968492     0.531418263214     2.145813809679     1.007825032230
         H            2.443444031508    -2.251088736786    -0.003049190321     1.007825032230
         H           -4.638065968492     1.057121263214    -0.007325190321     1.007825032230
         H            4.567195031508    -0.897616736786    -0.004878190321     1.007825032230
         H            4.386883031508     1.615601263214    -0.008371190321     1.007825032230
         H            2.106969031508     2.642379263214    -0.009854190321     1.007825032230

  Basis Set: AUG-CC-PVTZ
    Blend: AUG-CC-PVTZ
  Basis Set: (AUG-CC-PVTZ AUX)
    Blend: AUG-CC-PVTZ-JKFIT
	 Reference Energy          =    -551.2697732975722147 [Eh]
	 Singles Energy            =      -0.0000000000000000 [Eh]
	 Same-Spin Energy          =      -0.5993642353905584 [Eh]
	 Opposite-Spin Energy      =      -1.8248999117553177 [Eh]
	 Correlation Energy        =      -2.4242641471458759 [Eh]
	 Total Energy              =    -553.6940374447181057 [Eh]

	 ================> DF-SCS-MP2 Energies <==================
	-----------------------------------------------------------
	 SCS Same-Spin Scale       =       0.3333333333333333 [-]
	 SCS Opposite-Spin Scale   =       1.2000000000000000 [-]
	 SCS Same-Spin Energy      =      -0.1997880784635195 [Eh]
	 SCS Opposite-Spin Energy  =      -2.1898798941063813 [Eh]
	 SCS Correlation Energy    =      -2.3896679725699008 [Eh]
	 SCS Total Energy          =    -553.6594412701421106 [Eh]
	-----------------------------------------------------------

  Dipole Moment: [D]
     X:     1.2951      Y:     0.2458      Z:    -0.0171     Total:     1.3183

*** Psi4 exiting successfully. Buy a developer a beer!
