                               Psi4 1.3.2 release

  ==> Input File <==

--------------------------------------------------------------------------
#psi4
#
memory 32 gb

molecule  {
0 1
  O        0.0888245    -1.2714121    -0.0227863
  N        1.0961490     0.8320480    -0.0012430
  C       -1.1354060    -0.5925990     0.0007920
  C       -1.7504730    -0.3080250    -1.2153360
  C       -1.7497660    -0.3035760     1.2162340
  C        1.2195230    -0.4906020     0.0005970
  C       -3.0144240     0.2837480    -1.2099290
  C       -3.0137120     0.2881830     1.2093930
  C       -3.6464470     0.5845060    -0.0006310
  C        2.4408500    -1.1790020     0.0015830
  C        3.6030640    -0.4211020     0.0005590
  C        3.5068820     0.9758400    -0.0013820
  C        2.2403890     1.5483070    -0.0022070
  H       -1.2410120    -0.5552270    -2.1426030
  H       -1.2397720    -0.5473760     2.1441080
  H       -3.5056790     0.5103880    -2.1530410
  H       -3.5044150     0.5182820     2.1519550
  H        2.4499920    -2.2642250     0.0030920
  H       -4.6315180     1.0439850    -0.0011840
  H        4.5737430    -0.9107530     0.0012630
  H        4.3934310     1.6024650    -0.0022300
  H        2.1135170     2.6292430    -0.0037130
units angstrom
no_reorient  #important for SAPT in psi4, default
symmetry c1  #important for SAPT in psi4, default
}

set PROPERTIES_ORIGIN ["COM"]
properties('MP2/aug-cc-pvtz', properties = ['dipole'])
--------------------------------------------------------------------------

    Molecular point group: c1
  Charge       = 0
  Multiplicity = 1
  Basis Set: AUG-CC-PVTZ
    Blend: AUG-CC-PVTZ
  Basis Set: (AUG-CC-PVTZ AUX)
    Blend: AUG-CC-PVTZ-JKFIT

    Orbital Energies [Eh]
    ---------------------

    Doubly Occupied:

       1A    -20.600621     2A    -15.565856     3A    -11.345701
       4A    -11.296377     5A    -11.284362     6A    -11.266892
       7A    -11.241990     8A    -11.238972     9A    -11.238512
      10A    -11.238093    11A    -11.234250    12A    -11.233210
      13A    -11.232791    14A     -1.432878    15A     -1.255641
      16A     -1.147816    17A     -1.093451    18A     -1.040249
      19A     -1.017208    20A     -0.996380    21A     -0.878519
      22A     -0.860582    23A     -0.835875    24A     -0.805687
      25A     -0.739696    26A     -0.706075    27A     -0.679384
      28A     -0.668778    29A     -0.658720    30A     -0.628267
      31A     -0.614659    32A     -0.594925    33A     -0.591245
      34A     -0.579915    35A     -0.570031    36A     -0.536579
      37A     -0.517406    38A     -0.513774    39A     -0.495385
      40A     -0.483185    41A     -0.432363    42A     -0.389944
      43A     -0.338663    44A     -0.330865    45A     -0.327709

  @DF-RHF Final Energy:  -551.28251560375861

   => Energetics <=

    Nuclear Repulsion Energy =            709.0497767504726880
    One-Electron Energy =               -2155.1056207583696960
    Two-Electron Energy =                 894.7733284041385105
    Total Energy =                       -551.2825156037586112
  Basis Set: (AUG-CC-PVTZ AUX)
    Blend: AUG-CC-PVTZ-RI
    Molecular point group: c1

    Geometry (in Angstrom), charge = 0, multiplicity = 1:

       Center              X                  Y                   Z               Mass
    ------------   -----------------  -----------------  -----------------  -----------------
         O            0.085436307674    -1.259638327239    -0.020517230290    15.994914619570
         N            1.092760807674     0.843821772761     0.001026069710    14.003074004430
         C           -1.138794192326    -0.580825227239     0.003061069710    12.000000000000
         C           -1.753861192326    -0.296251227239    -1.213066930290    12.000000000000
         C           -1.753154192326    -0.291802227239     1.218503069710    12.000000000000
         C            1.216134807674    -0.478828227239     0.002866069710    12.000000000000
         C           -3.017812192326     0.295521772761    -1.207659930290    12.000000000000
         C           -3.017100192326     0.299956772761     1.211662069710    12.000000000000
         C           -3.649835192326     0.596279772761     0.001638069710    12.000000000000
         C            2.437461807674    -1.167228227239     0.003852069710    12.000000000000
         C            3.599675807674    -0.409328227239     0.002828069710    12.000000000000
         C            3.503493807674     0.987613772761     0.000887069710    12.000000000000
         C            2.237000807674     1.560080772761     0.000062069710    12.000000000000
         H           -1.244400192326    -0.543453227239    -2.140333930290     1.007825032230
         H           -1.243160192326    -0.535602227239     2.146377069710     1.007825032230
         H           -3.509067192326     0.522161772761    -2.150771930290     1.007825032230
         H           -3.507803192326     0.530055772761     2.154224069710     1.007825032230
         H            2.446603807674    -2.252451227239     0.005361069710     1.007825032230
         H           -4.634906192326     1.055758772761     0.001085069710     1.007825032230
         H            4.570354807674    -0.898979227239     0.003532069710     1.007825032230
         H            4.390042807674     1.614238772761     0.000039069710     1.007825032230
         H            2.110128807674     2.641016772761    -0.001443930290     1.007825032230

  Basis Set: AUG-CC-PVTZ
    Blend: AUG-CC-PVTZ
  Basis Set: (AUG-CC-PVTZ AUX)
    Blend: AUG-CC-PVTZ-JKFIT
	 Reference Energy          =    -551.2825156037586112 [Eh]
	 Singles Energy            =      -0.0000000000000000 [Eh]
	 Same-Spin Energy          =      -0.5996339928550239 [Eh]
	 Opposite-Spin Energy      =      -1.8248226440177819 [Eh]
	 Correlation Energy        =      -2.4244566368728058 [Eh]
	 Total Energy              =    -553.7069722406314440 [Eh]

	 ================> DF-SCS-MP2 Energies <==================
	-----------------------------------------------------------
	 SCS Same-Spin Scale       =       0.3333333333333333 [-]
	 SCS Opposite-Spin Scale   =       1.2000000000000000 [-]
	 SCS Same-Spin Energy      =      -0.1998779976183413 [Eh]
	 SCS Opposite-Spin Energy  =      -2.1897871728213381 [Eh]
	 SCS Correlation Energy    =      -2.3896651704396792 [Eh]
	 SCS Total Energy          =    -553.6721807741982957 [Eh]
	-----------------------------------------------------------

  Dipole Moment: [D]
     X:     1.4215      Y:     0.2196      Z:     0.0263     Total:     1.4386

*** Psi4 exiting successfully. Buy a developer a beer!
