                               Psi4 1.3.2 release

  ==> Input File <==

--------------------------------------------------------------------------
#psi4
#
memory 32 gb

molecule  {
0 1
  O        0.0883407    -1.2655343     0.0992081
  N        1.0961490     0.8320480    -0.0012430
  C       -1.1354060    -0.5925990     0.0007920
  C       -1.7504730    -0.3080250    -1.2153360
  C       -1.7497660    -0.3035760     1.2162340
  C        1.2195230    -0.4906020     0.0005970
  C       -3.0144240     0.2837480    -1.2099290
  C       -3.0137120     0.2881830     1.2093930
  C       -3.6464470     0.5845060    -0.0006310
  C        2.4408500    -1.1790020     0.0015830
  C        3.6030640    -0.4211020     0.0005590
  C        3.5068820     0.9758400    -0.0013820
  C        2.2403890     1.5483070    -0.0022070
  H       -1.2410120    -0.5552270    -2.1426030
  H       -1.2397720    -0.5473760     2.1441080
  H       -3.5056790     0.5103880    -2.1530410
  H       -3.5044150     0.5182820     2.1519550
  H        2.4499920    -2.2642250     0.0030920
  H       -4.6315180     1.0439850    -0.0011840
  H        4.5737430    -0.9107530     0.0012630
  H        4.3934310     1.6024650    -0.0022300
  H        2.1135170     2.6292430    -0.0037130
units angstrom
no_reorient  #important for SAPT in psi4, default
symmetry c1  #important for SAPT in psi4, default
}

set PROPERTIES_ORIGIN ["COM"]
properties('MP2/aug-cc-pvtz', properties = ['dipole'])
--------------------------------------------------------------------------

    Molecular point group: c1
  Charge       = 0
  Multiplicity = 1
  Basis Set: AUG-CC-PVTZ
    Blend: AUG-CC-PVTZ
  Basis Set: (AUG-CC-PVTZ AUX)
    Blend: AUG-CC-PVTZ-JKFIT

    Orbital Energies [Eh]
    ---------------------

    Doubly Occupied:

       1A    -20.600437     2A    -15.565894     3A    -11.345580
       4A    -11.296313     5A    -11.284411     6A    -11.267012
       7A    -11.242207     8A    -11.239516     9A    -11.238286
      10A    -11.237720    11A    -11.235655    12A    -11.232637
      13A    -11.231462    14A     -1.432786    15A     -1.255654
      16A     -1.147667    17A     -1.093558    18A     -1.040338
      19A     -1.017068    20A     -0.996284    21A     -0.878473
      22A     -0.860857    23A     -0.835569    24A     -0.805687
      25A     -0.739474    26A     -0.706074    27A     -0.679287
      28A     -0.668884    29A     -0.658648    30A     -0.628288
      31A     -0.614660    32A     -0.595204    33A     -0.591010
      34A     -0.580043    35A     -0.569364    36A     -0.536565
      37A     -0.517450    38A     -0.513625    39A     -0.495263
      40A     -0.482814    41A     -0.432383    42A     -0.389953
      43A     -0.338747    44A     -0.331797    45A     -0.326580

  @DF-RHF Final Energy:  -551.28114318869507

   => Energetics <=

    Nuclear Repulsion Energy =            709.0922845834392092
    One-Electron Energy =               -2155.1924874276101036
    Two-Electron Energy =                 894.8190596554757121
    Total Energy =                       -551.2811431886950686
  Basis Set: (AUG-CC-PVTZ AUX)
    Blend: AUG-CC-PVTZ-RI
    Molecular point group: c1

    Geometry (in Angstrom), charge = 0, multiplicity = 1:

       Center              X                  Y                   Z               Mass
    ------------   -----------------  -----------------  -----------------  -----------------
         O            0.084997743025    -1.254310102154     0.090070680531    15.994914619570
         N            1.092806043025     0.843272197846    -0.010380419469    14.003074004430
         C           -1.138748956975    -0.581374802154    -0.008345419469    12.000000000000
         C           -1.753815956975    -0.296800802154    -1.224473419469    12.000000000000
         C           -1.753108956975    -0.292351802154     1.207096580531    12.000000000000
         C            1.216180043025    -0.479377802154    -0.008540419469    12.000000000000
         C           -3.017766956975     0.294972197846    -1.219066419469    12.000000000000
         C           -3.017054956975     0.299407197846     1.200255580531    12.000000000000
         C           -3.649789956975     0.595730197846    -0.009768419469    12.000000000000
         C            2.437507043025    -1.167777802154    -0.007554419469    12.000000000000
         C            3.599721043025    -0.409877802154    -0.008578419469    12.000000000000
         C            3.503539043025     0.987064197846    -0.010519419469    12.000000000000
         C            2.237046043025     1.559531197846    -0.011344419469    12.000000000000
         H           -1.244354956975    -0.544002802154    -2.151740419469     1.007825032230
         H           -1.243114956975    -0.536151802154     2.134970580531     1.007825032230
         H           -3.509021956975     0.521612197846    -2.162178419469     1.007825032230
         H           -3.507757956975     0.529506197846     2.142817580531     1.007825032230
         H            2.446649043025    -2.253000802154    -0.006045419469     1.007825032230
         H           -4.634860956975     1.055209197846    -0.010321419469     1.007825032230
         H            4.570400043025    -0.899528802154    -0.007874419469     1.007825032230
         H            4.390088043025     1.613689197846    -0.011367419469     1.007825032230
         H            2.110174043025     2.640467197846    -0.012850419469     1.007825032230

  Basis Set: AUG-CC-PVTZ
    Blend: AUG-CC-PVTZ
  Basis Set: (AUG-CC-PVTZ AUX)
    Blend: AUG-CC-PVTZ-JKFIT
	 Reference Energy          =    -551.2811431886950686 [Eh]
	 Singles Energy            =      -0.0000000000000000 [Eh]
	 Same-Spin Energy          =      -0.5997121553473885 [Eh]
	 Opposite-Spin Energy      =      -1.8249350740452666 [Eh]
	 Correlation Energy        =      -2.4246472293926553 [Eh]
	 Total Energy              =    -553.7057904180877586 [Eh]

	 ================> DF-SCS-MP2 Energies <==================
	-----------------------------------------------------------
	 SCS Same-Spin Scale       =       0.3333333333333333 [-]
	 SCS Opposite-Spin Scale   =       1.2000000000000000 [-]
	 SCS Same-Spin Energy      =      -0.1999040517824628 [Eh]
	 SCS Opposite-Spin Energy  =      -2.1899220888543196 [Eh]
	 SCS Correlation Energy    =      -2.3898261406367824 [Eh]
	 SCS Total Energy          =    -553.6709693293317969 [Eh]
	-----------------------------------------------------------

  Dipole Moment: [D]
     X:     1.4458      Y:     0.2164      Z:    -0.1053     Total:     1.4657

*** Psi4 exiting successfully. Buy a developer a beer!
