                               Psi4 1.3.2 release

  ==> Input File <==

--------------------------------------------------------------------------
#psi4
#
memory 32 gb

molecule  {
0 1
  O        0.0894740    -1.2706490     0.0016280
  N        1.0961490     0.8320480    -0.0012430
  C       -1.2136833    -0.5558276     0.0451035
  C       -1.7504730    -0.3080250    -1.2153360
  C       -1.7497660    -0.3035760     1.2162340
  C        1.2195230    -0.4906020     0.0005970
  C       -3.0144240     0.2837480    -1.2099290
  C       -3.0137120     0.2881830     1.2093930
  C       -3.6464470     0.5845060    -0.0006310
  C        2.4408500    -1.1790020     0.0015830
  C        3.6030640    -0.4211020     0.0005590
  C        3.5068820     0.9758400    -0.0013820
  C        2.2403890     1.5483070    -0.0022070
  H       -1.2410120    -0.5552270    -2.1426030
  H       -1.2397720    -0.5473760     2.1441080
  H       -3.5056790     0.5103880    -2.1530410
  H       -3.5044150     0.5182820     2.1519550
  H        2.4499920    -2.2642250     0.0030920
  H       -4.6315180     1.0439850    -0.0011840
  H        4.5737430    -0.9107530     0.0012630
  H        4.3934310     1.6024650    -0.0022300
  H        2.1135170     2.6292430    -0.0037130
units angstrom
no_reorient  #important for SAPT in psi4, default
symmetry c1  #important for SAPT in psi4, default
}

set PROPERTIES_ORIGIN ["COM"]
properties('MP2/aug-cc-pvtz', properties = ['dipole'])
--------------------------------------------------------------------------

    Molecular point group: c1
  Charge       = 0
  Multiplicity = 1
  Basis Set: AUG-CC-PVTZ
    Blend: AUG-CC-PVTZ
  Basis Set: (AUG-CC-PVTZ AUX)
    Blend: AUG-CC-PVTZ-JKFIT

    Orbital Energies [Eh]
    ---------------------

    Doubly Occupied:

       1A    -20.588976     2A    -15.560523     3A    -11.339180
       4A    -11.294590     5A    -11.280475     6A    -11.262906
       7A    -11.243482     8A    -11.242359     9A    -11.239360
      10A    -11.236807    11A    -11.236443    12A    -11.233544
      13A    -11.230183    14A     -1.404182    15A     -1.248478
      16A     -1.162522    17A     -1.088936    18A     -1.037311
      19A     -1.026768    20A     -0.999905    21A     -0.871046
      22A     -0.851648    23A     -0.844437    24A     -0.806144
      25A     -0.732349    26A     -0.702870    27A     -0.677670
      28A     -0.661997    29A     -0.654596    30A     -0.628098
      31A     -0.610368    32A     -0.603951    33A     -0.587596
      34A     -0.577713    35A     -0.561964    36A     -0.531745
      37A     -0.517218    38A     -0.510109    39A     -0.501901
      40A     -0.489361    41A     -0.427679    42A     -0.386042
      43A     -0.348040    44A     -0.335101    45A     -0.325890

  @DF-RHF Final Energy:  -551.27097966237716

   => Energetics <=

    Nuclear Repulsion Energy =            708.9087809249266456
    One-Electron Energy =               -2154.9545988030372428
    Two-Electron Energy =                 894.7748382157333253
    Total Energy =                       -551.2709796623771581
  Basis Set: (AUG-CC-PVTZ AUX)
    Blend: AUG-CC-PVTZ-RI
    Molecular point group: c1

    Geometry (in Angstrom), charge = 0, multiplicity = 1:

       Center              X                  Y                   Z               Mass
    ------------   -----------------  -----------------  -----------------  -----------------
         O            0.091516026390    -1.261525994315    -0.001494005258    15.994914619570
         N            1.098191026390     0.841171005685    -0.004365005258    14.003074004430
         C           -1.211641273610    -0.546704594315     0.041981494742    12.000000000000
         C           -1.748430973610    -0.298901994315    -1.218458005258    12.000000000000
         C           -1.747723973610    -0.294452994315     1.213111994742    12.000000000000
         C            1.221565026390    -0.481478994315    -0.002525005258    12.000000000000
         C           -3.012381973610     0.292871005685    -1.213051005258    12.000000000000
         C           -3.011669973610     0.297306005685     1.206270994742    12.000000000000
         C           -3.644404973610     0.593629005685    -0.003753005258    12.000000000000
         C            2.442892026390    -1.169878994315    -0.001539005258    12.000000000000
         C            3.605106026390    -0.411978994315    -0.002563005258    12.000000000000
         C            3.508924026390     0.984963005685    -0.004504005258    12.000000000000
         C            2.242431026390     1.557430005685    -0.005329005258    12.000000000000
         H           -1.238969973610    -0.546103994315    -2.145725005258     1.007825032230
         H           -1.237729973610    -0.538252994315     2.140985994742     1.007825032230
         H           -3.503636973610     0.519511005685    -2.156163005258     1.007825032230
         H           -3.502372973610     0.527405005685     2.148832994742     1.007825032230
         H            2.452034026390    -2.255101994315    -0.000030005258     1.007825032230
         H           -4.629475973610     1.053108005685    -0.004306005258     1.007825032230
         H            4.575785026390    -0.901629994315    -0.001859005258     1.007825032230
         H            4.395473026390     1.611588005685    -0.005352005258     1.007825032230
         H            2.115559026390     2.638366005685    -0.006835005258     1.007825032230

  Basis Set: AUG-CC-PVTZ
    Blend: AUG-CC-PVTZ
  Basis Set: (AUG-CC-PVTZ AUX)
    Blend: AUG-CC-PVTZ-JKFIT
	 Reference Energy          =    -551.2709796623771581 [Eh]
	 Singles Energy            =      -0.0000000000000000 [Eh]
	 Same-Spin Energy          =      -0.5996509117139250 [Eh]
	 Opposite-Spin Energy      =      -1.8256088247926647 [Eh]
	 Correlation Energy        =      -2.4252597365065895 [Eh]
	 Total Energy              =    -553.6962393988837903 [Eh]

	 ================> DF-SCS-MP2 Energies <==================
	-----------------------------------------------------------
	 SCS Same-Spin Scale       =       0.3333333333333333 [-]
	 SCS Opposite-Spin Scale   =       1.2000000000000000 [-]
	 SCS Same-Spin Energy      =      -0.1998836372379750 [Eh]
	 SCS Opposite-Spin Energy  =      -2.1907305897511975 [Eh]
	 SCS Correlation Energy    =      -2.3906142269891726 [Eh]
	 SCS Total Energy          =    -553.6615938893663724 [Eh]
	-----------------------------------------------------------

  Dipole Moment: [D]
     X:     0.7982      Y:     0.2864      Z:     0.0368     Total:     0.8488

*** Psi4 exiting successfully. Buy a developer a beer!
