                               Psi4 1.3.2 release

  ==> Input File <==

--------------------------------------------------------------------------
#psi4
#
memory 32 gb

molecule  {
0 1
  O        0.0894740    -1.2706490     0.0016280
  N        1.0961490     0.8320480    -0.0012430
  C       -1.1546486    -0.5834009     0.0124337
  C       -1.7504730    -0.3080250    -1.2153360
  C       -1.7497660    -0.3035760     1.2162340
  C        1.2195230    -0.4906020     0.0005970
  C       -3.0144240     0.2837480    -1.2099290
  C       -3.0137120     0.2881830     1.2093930
  C       -3.6464470     0.5845060    -0.0006310
  C        2.4408500    -1.1790020     0.0015830
  C        3.6030640    -0.4211020     0.0005590
  C        3.5068820     0.9758400    -0.0013820
  C        2.2403890     1.5483070    -0.0022070
  H       -1.2410120    -0.5552270    -2.1426030
  H       -1.2397720    -0.5473760     2.1441080
  H       -3.5056790     0.5103880    -2.1530410
  H       -3.5044150     0.5182820     2.1519550
  H        2.4499920    -2.2642250     0.0030920
  H       -4.6315180     1.0439850    -0.0011840
  H        4.5737430    -0.9107530     0.0012630
  H        4.3934310     1.6024650    -0.0022300
  H        2.1135170     2.6292430    -0.0037130
units angstrom
no_reorient  #important for SAPT in psi4, default
symmetry c1  #important for SAPT in psi4, default
}

set PROPERTIES_ORIGIN ["COM"]
properties('MP2/aug-cc-pvtz', properties = ['dipole'])
--------------------------------------------------------------------------

    Molecular point group: c1
  Charge       = 0
  Multiplicity = 1
  Basis Set: AUG-CC-PVTZ
    Blend: AUG-CC-PVTZ
  Basis Set: (AUG-CC-PVTZ AUX)
    Blend: AUG-CC-PVTZ-JKFIT

    Orbital Energies [Eh]
    ---------------------

    Doubly Occupied:

       1A    -20.597929     2A    -15.564430     3A    -11.344045
       4A    -11.295822     5A    -11.283353     6A    -11.265873
       7A    -11.240636     8A    -11.239908     9A    -11.239622
      10A    -11.236884    11A    -11.235132    12A    -11.233761
      13A    -11.232955    14A     -1.425580    15A     -1.253785
      16A     -1.151280    17A     -1.092287    18A     -1.038845
      19A     -1.019735    20A     -0.997626    21A     -0.876549
      22A     -0.858348    23A     -0.837939    24A     -0.805825
      25A     -0.737829    26A     -0.705055    27A     -0.679202
      28A     -0.667104    29A     -0.657330    30A     -0.627953
      31A     -0.613566    32A     -0.594883    33A     -0.592799
      34A     -0.579612    35A     -0.567911    36A     -0.535242
      37A     -0.516583    38A     -0.512760    39A     -0.497811
      40A     -0.486033    41A     -0.431190    42A     -0.388935
      43A     -0.339839    44A     -0.330746    45A     -0.329546

  @DF-RHF Final Energy:  -551.28191142907190

   => Energetics <=

    Nuclear Repulsion Energy =            709.0214690296497793
    One-Electron Energy =               -2155.0866077222781314
    Two-Electron Energy =                 894.7832272635564550
    Total Energy =                       -551.2819114290718971
  Basis Set: (AUG-CC-PVTZ AUX)
    Blend: AUG-CC-PVTZ-RI
    Molecular point group: c1

    Geometry (in Angstrom), charge = 0, multiplicity = 1:

       Center              X                  Y                   Z               Mass
    ------------   -----------------  -----------------  -----------------  -----------------
         O            0.087374897214    -1.259591799729     0.000797695419    15.994914619570
         N            1.094049897214     0.843105200271    -0.002073304581    14.003074004430
         C           -1.156747702786    -0.572343699729     0.011603395419    12.000000000000
         C           -1.752572102786    -0.296967799729    -1.216166304581    12.000000000000
         C           -1.751865102786    -0.292518799729     1.215403695419    12.000000000000
         C            1.217423897214    -0.479544799729    -0.000233304581    12.000000000000
         C           -3.016523102786     0.294805200271    -1.210759304581    12.000000000000
         C           -3.015811102786     0.299240200271     1.208562695419    12.000000000000
         C           -3.648546102786     0.595563200271    -0.001461304581    12.000000000000
         C            2.438750897214    -1.167944799729     0.000752695419    12.000000000000
         C            3.600964897214    -0.410044799729    -0.000271304581    12.000000000000
         C            3.504782897214     0.986897200271    -0.002212304581    12.000000000000
         C            2.238289897214     1.559364200271    -0.003037304581    12.000000000000
         H           -1.243111102786    -0.544169799729    -2.143433304581     1.007825032230
         H           -1.241871102786    -0.536318799729     2.143277695419     1.007825032230
         H           -3.507778102786     0.521445200271    -2.153871304581     1.007825032230
         H           -3.506514102786     0.529339200271     2.151124695419     1.007825032230
         H            2.447892897214    -2.253167799729     0.002261695419     1.007825032230
         H           -4.633617102786     1.055042200271    -0.002014304581     1.007825032230
         H            4.571643897214    -0.899695799729     0.000432695419     1.007825032230
         H            4.391331897214     1.613522200271    -0.003060304581     1.007825032230
         H            2.111417897214     2.640300200271    -0.004543304581     1.007825032230

  Basis Set: AUG-CC-PVTZ
    Blend: AUG-CC-PVTZ
  Basis Set: (AUG-CC-PVTZ AUX)
    Blend: AUG-CC-PVTZ-JKFIT
	 Reference Energy          =    -551.2819114290718971 [Eh]
	 Singles Energy            =      -0.0000000000000000 [Eh]
	 Same-Spin Energy          =      -0.5995718785436601 [Eh]
	 Opposite-Spin Energy      =      -1.8248593854330648 [Eh]
	 Correlation Energy        =      -2.4244312639767251 [Eh]
	 Total Energy              =    -553.7063426930486685 [Eh]

	 ================> DF-SCS-MP2 Energies <==================
	-----------------------------------------------------------
	 SCS Same-Spin Scale       =       0.3333333333333333 [-]
	 SCS Opposite-Spin Scale   =       1.2000000000000000 [-]
	 SCS Same-Spin Energy      =      -0.1998572928478867 [Eh]
	 SCS Opposite-Spin Energy  =      -2.1898312625196779 [Eh]
	 SCS Correlation Energy    =      -2.3896885553675644 [Eh]
	 SCS Total Energy          =    -553.6715999844394673 [Eh]
	-----------------------------------------------------------

  Dipole Moment: [D]
     X:     1.2583      Y:     0.2345      Z:     0.0083     Total:     1.2800

*** Psi4 exiting successfully. Buy a developer a beer!
