                               Psi4 1.4a3.dev225

  ==> Input File <==

--------------------------------------------------------------------------
#psi4
#
memory 32 gb

molecule  {
0 1
  O        0.0894740    -1.2706490     0.0016280
  N        1.0961490     0.8320480    -0.0012430
  C       -1.1354060    -0.5925990     0.0007920
  C       -1.7504730    -0.3080250    -1.2153360
  C       -1.7497660    -0.3035760     1.2162340
  C        1.2176655    -0.4706885     0.0005693
  C       -3.0144240     0.2837480    -1.2099290
  C       -3.0137120     0.2881830     1.2093930
  C       -3.6464470     0.5845060    -0.0006310
  C        2.4408500    -1.1790020     0.0015830
  C        3.6030640    -0.4211020     0.0005590
  C        3.5068820     0.9758400    -0.0013820
  C        2.2403890     1.5483070    -0.0022070
  H       -1.2410120    -0.5552270    -2.1426030
  H       -1.2397720    -0.5473760     2.1441080
  H       -3.5056790     0.5103880    -2.1530410
  H       -3.5044150     0.5182820     2.1519550
  H        2.4499920    -2.2642250     0.0030920
  H       -4.6315180     1.0439850    -0.0011840
  H        4.5737430    -0.9107530     0.0012630
  H        4.3934310     1.6024650    -0.0022300
  H        2.1135170     2.6292430    -0.0037130
units angstrom
no_reorient  #important for SAPT in psi4, default
symmetry c1  #important for SAPT in psi4, default
}

set PROPERTIES_ORIGIN ["COM"]
properties('MP2/aug-cc-pvtz', properties = ['dipole'])
--------------------------------------------------------------------------

    Molecular point group: c1
  Charge       = 0
  Multiplicity = 1
  Basis Set: AUG-CC-PVTZ
    Blend: AUG-CC-PVTZ
  Basis Set: (AUG-CC-PVTZ AUX)
    Blend: AUG-CC-PVTZ-JKFIT

    Orbital Energies [Eh]
    ---------------------

    Doubly Occupied:

       1A    -20.599229     2A    -15.565413     3A    -11.345297
       4A    -11.295358     5A    -11.284838     6A    -11.266567
       7A    -11.243744     8A    -11.238831     9A    -11.238497
      10A    -11.238391    11A    -11.233269    12A    -11.233264
      13A    -11.232467    14A     -1.429775    15A     -1.261653
      16A     -1.147206    17A     -1.094718    18A     -1.039133
      19A     -1.016848    20A     -0.995890    21A     -0.878207
      22A     -0.861681    23A     -0.835446    24A     -0.804815
      25A     -0.738555    26A     -0.707045    27A     -0.679205
      28A     -0.668128    29A     -0.657861    30A     -0.627980
      31A     -0.614074    32A     -0.595516    33A     -0.591028
      34A     -0.580169    35A     -0.569673    36A     -0.538116
      37A     -0.517822    38A     -0.513211    39A     -0.494739
      40A     -0.482527    41A     -0.433304    42A     -0.392076
      43A     -0.338324    44A     -0.330933    45A     -0.327507

  @DF-RHF Final Energy:  -551.28257651260265

   => Energetics <=

    Nuclear Repulsion Energy =            709.1980060637711176
    One-Electron Energy =               -2155.4044990059028351
    Two-Electron Energy =                 894.9239164295290720
    Total Energy =                       -551.2825765126026454
  Basis Set: (AUG-CC-PVTZ AUX)
    Blend: AUG-CC-PVTZ-RI
    Molecular point group: c1

    Geometry (in Angstrom), charge = 0, multiplicity = 1:

       Center              X                  Y                   Z               Mass
    ------------   -----------------  -----------------  -----------------  -----------------
         O            0.086155378103    -1.260343456899     0.001616273185    15.994914619570
         N            1.092830378103     0.842353543101    -0.001254726815    14.003074004430
         C           -1.138724621897    -0.582293456899     0.000780273185    12.000000000000
         C           -1.753791621897    -0.297719456899    -1.215347726815    12.000000000000
         C           -1.753084621897    -0.293270456899     1.216222273185    12.000000000000
         C            1.214346878103    -0.460382956899     0.000557573185    12.000000000000
         C           -3.017742621897     0.294053543101    -1.209940726815    12.000000000000
         C           -3.017030621897     0.298488543101     1.209381273185    12.000000000000
         C           -3.649765621897     0.594811543101    -0.000642726815    12.000000000000
         C            2.437531378103    -1.168696456899     0.001571273185    12.000000000000
         C            3.599745378103    -0.410796456899     0.000547273185    12.000000000000
         C            3.503563378103     0.986145543101    -0.001393726815    12.000000000000
         C            2.237070378103     1.558612543101    -0.002218726815    12.000000000000
         H           -1.244330621897    -0.544921456899    -2.142614726815     1.007825032230
         H           -1.243090621897    -0.537070456899     2.144096273185     1.007825032230
         H           -3.508997621897     0.520693543101    -2.153052726815     1.007825032230
         H           -3.507733621897     0.528587543101     2.151943273185     1.007825032230
         H            2.446673378103    -2.253919456899     0.003080273185     1.007825032230
         H           -4.634836621897     1.054290543101    -0.001195726815     1.007825032230
         H            4.570424378103    -0.900447456899     0.001251273185     1.007825032230
         H            4.390112378103     1.612770543101    -0.002241726815     1.007825032230
         H            2.110198378103     2.639548543101    -0.003724726815     1.007825032230

  Basis Set: AUG-CC-PVTZ
    Blend: AUG-CC-PVTZ
  Basis Set: (AUG-CC-PVTZ AUX)
    Blend: AUG-CC-PVTZ-JKFIT
	 Reference Energy          =    -551.2825765126026454 [Eh]
	 Singles Energy            =      -0.0000000000000000 [Eh]
	 Same-Spin Energy          =      -0.5994562945472406 [Eh]
	 Opposite-Spin Energy      =      -1.8246397709725966 [Eh]
	 Correlation Energy        =      -2.4240960655198371 [Eh]
	 Total Energy              =    -553.7066725781224932 [Eh]

	 ================> DF-SCS-MP2 Energies <==================
	-----------------------------------------------------------
	 SCS Same-Spin Scale       =       0.3333333333333333 [-]
	 SCS Opposite-Spin Scale   =       1.2000000000000000 [-]
	 SCS Same-Spin Energy      =      -0.1998187648490802 [Eh]
	 SCS Opposite-Spin Energy  =      -2.1895677251671160 [Eh]
	 SCS Correlation Energy    =      -2.3893864900161961 [Eh]
	 SCS Total Energy          =    -553.6719630026188952 [Eh]
	-----------------------------------------------------------

  Dipole Moment: [D]
     X:     1.4805      Y:     0.2502      Z:    -0.0001     Total:     1.5015

*** Psi4 exiting successfully. Buy a developer a beer!
