                               Psi4 1.3.2 release

  ==> Input File <==

--------------------------------------------------------------------------
#psi4
#
memory 32 gb

molecule  {
0 1
  O        0.0894740    -1.2706490     0.0016280
  N        1.0961490     0.8320480    -0.0012430
  C       -1.1354060    -0.5925990     0.0007920
  C       -1.8388312    -0.2671442    -1.3900403
  C       -1.7497660    -0.3035760     1.2162340
  C        1.2195230    -0.4906020     0.0005970
  C       -3.0144240     0.2837480    -1.2099290
  C       -3.0137120     0.2881830     1.2093930
  C       -3.6464470     0.5845060    -0.0006310
  C        2.4408500    -1.1790020     0.0015830
  C        3.6030640    -0.4211020     0.0005590
  C        3.5068820     0.9758400    -0.0013820
  C        2.2403890     1.5483070    -0.0022070
  H       -1.2410120    -0.5552270    -2.1426030
  H       -1.2397720    -0.5473760     2.1441080
  H       -3.5056790     0.5103880    -2.1530410
  H       -3.5044150     0.5182820     2.1519550
  H        2.4499920    -2.2642250     0.0030920
  H       -4.6315180     1.0439850    -0.0011840
  H        4.5737430    -0.9107530     0.0012630
  H        4.3934310     1.6024650    -0.0022300
  H        2.1135170     2.6292430    -0.0037130
units angstrom
no_reorient  #important for SAPT in psi4, default
symmetry c1  #important for SAPT in psi4, default
}

set PROPERTIES_ORIGIN ["COM"]
properties('MP2/aug-cc-pvtz', properties = ['dipole'])
--------------------------------------------------------------------------

    Molecular point group: c1
  Charge       = 0
  Multiplicity = 1
  Basis Set: AUG-CC-PVTZ
    Blend: AUG-CC-PVTZ
  Basis Set: (AUG-CC-PVTZ AUX)
    Blend: AUG-CC-PVTZ-JKFIT

    Orbital Energies [Eh]
    ---------------------

    Doubly Occupied:

       1A    -20.603907     2A    -15.566436     3A    -11.346752
       4A    -11.312033     5A    -11.284884     6A    -11.267516
       7A    -11.242799     8A    -11.241320     9A    -11.238826
      10A    -11.238702    11A    -11.231745    12A    -11.230345
      13A    -11.230043    14A     -1.433970    15A     -1.255993
      16A     -1.141634    17A     -1.094130    18A     -1.039992
      19A     -1.029493    20A     -0.983452    21A     -0.881407
      22A     -0.862692    23A     -0.831663    24A     -0.803135
      25A     -0.735731    26A     -0.706648    27A     -0.694715
      28A     -0.670559    29A     -0.658738    30A     -0.629223
      31A     -0.613356    32A     -0.601704    33A     -0.593420
      34A     -0.579922    35A     -0.565831    36A     -0.536986
      37A     -0.531857    38A     -0.512389    39A     -0.492281
      40A     -0.453396    41A     -0.432136    42A     -0.390580
      43A     -0.354989    44A     -0.332014    45A     -0.309190

  @DF-RHF Final Energy:  -551.24005664044216

   => Energetics <=

    Nuclear Repulsion Energy =            706.0580678584499310
    One-Electron Energy =               -2149.0191767216783774
    Two-Electron Energy =                 891.7210522227862839
    Total Energy =                       -551.2400566404421625
  Basis Set: (AUG-CC-PVTZ AUX)
    Blend: AUG-CC-PVTZ-RI
    Molecular point group: c1

    Geometry (in Angstrom), charge = 0, multiplicity = 1:

       Center              X                  Y                   Z               Mass
    ------------   -----------------  -----------------  -----------------  -----------------
         O            0.092223175052    -1.261814257933     0.013869377963    15.994914619570
         N            1.098898175052     0.840882742067     0.010998377963    14.003074004430
         C           -1.132656824948    -0.583764257933     0.013033377963    12.000000000000
         C           -1.836082024948    -0.258309457933    -1.377798922037    12.000000000000
         C           -1.747016824948    -0.294741257933     1.228475377963    12.000000000000
         C            1.222272175052    -0.481767257933     0.012838377963    12.000000000000
         C           -3.011674824948     0.292582742067    -1.197687622037    12.000000000000
         C           -3.010962824948     0.297017742067     1.221634377963    12.000000000000
         C           -3.643697824948     0.593340742067     0.011610377963    12.000000000000
         C            2.443599175052    -1.170167257933     0.013824377963    12.000000000000
         C            3.605813175052    -0.412267257933     0.012800377963    12.000000000000
         C            3.509631175052     0.984674742067     0.010859377963    12.000000000000
         C            2.243138175052     1.557141742067     0.010034377963    12.000000000000
         H           -1.238262824948    -0.546392257933    -2.130361622037     1.007825032230
         H           -1.237022824948    -0.538541257933     2.156349377963     1.007825032230
         H           -3.502929824948     0.519222742067    -2.140799622037     1.007825032230
         H           -3.501665824948     0.527116742067     2.164196377963     1.007825032230
         H            2.452741175052    -2.255390257933     0.015333377963     1.007825032230
         H           -4.628768824948     1.052819742067     0.011057377963     1.007825032230
         H            4.576492175052    -0.901918257933     0.013504377963     1.007825032230
         H            4.396180175052     1.611299742067     0.010011377963     1.007825032230
         H            2.116266175052     2.638077742067     0.008528377963     1.007825032230

  Basis Set: AUG-CC-PVTZ
    Blend: AUG-CC-PVTZ
  Basis Set: (AUG-CC-PVTZ AUX)
    Blend: AUG-CC-PVTZ-JKFIT
	 Reference Energy          =    -551.2400566404421625 [Eh]
	 Singles Energy            =      -0.0000000000000000 [Eh]
	 Same-Spin Energy          =      -0.5993470549258242 [Eh]
	 Opposite-Spin Energy      =      -1.8275323836772048 [Eh]
	 Correlation Energy        =      -2.4268794386030290 [Eh]
	 Total Energy              =    -553.6669360790451719 [Eh]

	 ================> DF-SCS-MP2 Energies <==================
	-----------------------------------------------------------
	 SCS Same-Spin Scale       =       0.3333333333333333 [-]
	 SCS Opposite-Spin Scale   =       1.2000000000000000 [-]
	 SCS Same-Spin Energy      =      -0.1997823516419414 [Eh]
	 SCS Opposite-Spin Energy  =      -2.1930388604126456 [Eh]
	 SCS Correlation Energy    =      -2.3928212120545869 [Eh]
	 SCS Total Energy          =    -553.6328778524967902 [Eh]
	-----------------------------------------------------------

  Dipole Moment: [D]
     X:     1.5399      Y:     0.1758      Z:     0.0186     Total:     1.5500

*** Psi4 exiting successfully. Buy a developer a beer!
