                               Psi4 1.3.2 release

  ==> Input File <==

--------------------------------------------------------------------------
#psi4
#
memory 32 gb

molecule  {
0 1
  O        0.0894740    -1.2706490     0.0016280
  N        1.0961490     0.8320480    -0.0012430
  C       -0.9604269    -0.6894612     0.0009114
  C       -1.7504730    -0.3080250    -1.2153360
  C       -1.7497660    -0.3035760     1.2162340
  C        1.2195230    -0.4906020     0.0005970
  C       -3.0144240     0.2837480    -1.2099290
  C       -3.0137120     0.2881830     1.2093930
  C       -3.6464470     0.5845060    -0.0006310
  C        2.4408500    -1.1790020     0.0015830
  C        3.6030640    -0.4211020     0.0005590
  C        3.5068820     0.9758400    -0.0013820
  C        2.2403890     1.5483070    -0.0022070
  H       -1.2410120    -0.5552270    -2.1426030
  H       -1.2397720    -0.5473760     2.1441080
  H       -3.5056790     0.5103880    -2.1530410
  H       -3.5044150     0.5182820     2.1519550
  H        2.4499920    -2.2642250     0.0030920
  H       -4.6315180     1.0439850    -0.0011840
  H        4.5737430    -0.9107530     0.0012630
  H        4.3934310     1.6024650    -0.0022300
  H        2.1135170     2.6292430    -0.0037130
units angstrom
no_reorient  #important for SAPT in psi4, default
symmetry c1  #important for SAPT in psi4, default
}

set PROPERTIES_ORIGIN ["COM"]
properties('MP2/aug-cc-pvtz', properties = ['dipole'])
--------------------------------------------------------------------------

    Molecular point group: c1
  Charge       = 0
  Multiplicity = 1
  Basis Set: AUG-CC-PVTZ
    Blend: AUG-CC-PVTZ
  Basis Set: (AUG-CC-PVTZ AUX)
    Blend: AUG-CC-PVTZ-JKFIT

    Orbital Energies [Eh]
    ---------------------

    Doubly Occupied:

       1A    -20.625968     2A    -15.579800     3A    -11.362654
       4A    -11.309636     5A    -11.294353     6A    -11.276955
       7A    -11.255472     8A    -11.249876     9A    -11.230098
      10A    -11.230089    11A    -11.228922    12A    -11.228867
      13A    -11.221381    14A     -1.531727    15A     -1.274074
      16A     -1.120104    17A     -1.104875    18A     -1.062206
      19A     -0.997256    20A     -0.980653    21A     -0.904701
      22A     -0.881728    23A     -0.821460    24A     -0.810281
      25A     -0.755822    26A     -0.725691    27A     -0.688675
      28A     -0.688611    29A     -0.671858    30A     -0.643949
      31A     -0.632697    32A     -0.597959    33A     -0.587460
      34A     -0.578657    35A     -0.565745    36A     -0.550082
      37A     -0.531416    38A     -0.512890    39A     -0.473279
      40A     -0.443225    41A     -0.437376    42A     -0.399874
      43A     -0.344962    44A     -0.324898    45A     -0.294790

  @DF-RHF Final Energy:  -551.22420415773934

   => Energetics <=

    Nuclear Repulsion Energy =            710.1067447792585199
    One-Electron Energy =               -2156.5957938537999325
    Two-Electron Energy =                 895.2648449168021898
    Total Energy =                       -551.2242041577393366
  Basis Set: (AUG-CC-PVTZ AUX)
    Blend: AUG-CC-PVTZ-RI
    Molecular point group: c1

    Geometry (in Angstrom), charge = 0, multiplicity = 1:

       Center              X                  Y                   Z               Mass
    ------------   -----------------  -----------------  -----------------  -----------------
         O            0.073750754997    -1.252151948205     0.001605954506    15.994914619570
         N            1.080425754997     0.850545051795    -0.001265045494    14.003074004430
         C           -0.976150145003    -0.670964148205     0.000889354506    12.000000000000
         C           -1.766196245003    -0.289527948205    -1.215358045494    12.000000000000
         C           -1.765489245003    -0.285078948205     1.216211954506    12.000000000000
         C            1.203799754997    -0.472104948205     0.000574954506    12.000000000000
         C           -3.030147245003     0.302245051795    -1.209951045494    12.000000000000
         C           -3.029435245003     0.306680051795     1.209370954506    12.000000000000
         C           -3.662170245003     0.603003051795    -0.000653045494    12.000000000000
         C            2.425126754997    -1.160504948205     0.001560954506    12.000000000000
         C            3.587340754997    -0.402604948205     0.000536954506    12.000000000000
         C            3.491158754997     0.994337051795    -0.001404045494    12.000000000000
         C            2.224665754997     1.566804051795    -0.002229045494    12.000000000000
         H           -1.256735245003    -0.536729948205    -2.142625045494     1.007825032230
         H           -1.255495245003    -0.528878948205     2.144085954506     1.007825032230
         H           -3.521402245003     0.528885051795    -2.153063045494     1.007825032230
         H           -3.520138245003     0.536779051795     2.151932954506     1.007825032230
         H            2.434268754997    -2.245727948205     0.003069954506     1.007825032230
         H           -4.647241245003     1.062482051795    -0.001206045494     1.007825032230
         H            4.558019754997    -0.892255948205     0.001240954506     1.007825032230
         H            4.377707754997     1.620962051795    -0.002252045494     1.007825032230
         H            2.097793754997     2.647740051795    -0.003735045494     1.007825032230

  Basis Set: AUG-CC-PVTZ
    Blend: AUG-CC-PVTZ
  Basis Set: (AUG-CC-PVTZ AUX)
    Blend: AUG-CC-PVTZ-JKFIT
	 Reference Energy          =    -551.2242041577393366 [Eh]
	 Singles Energy            =      -0.0000000000000000 [Eh]
	 Same-Spin Energy          =      -0.6023300493288823 [Eh]
	 Opposite-Spin Energy      =      -1.8276298683639767 [Eh]
	 Correlation Energy        =      -2.4299599176928588 [Eh]
	 Total Energy              =    -553.6541640754321634 [Eh]

	 ================> DF-SCS-MP2 Energies <==================
	-----------------------------------------------------------
	 SCS Same-Spin Scale       =       0.3333333333333333 [-]
	 SCS Opposite-Spin Scale   =       1.2000000000000000 [-]
	 SCS Same-Spin Energy      =      -0.2007766831096274 [Eh]
	 SCS Opposite-Spin Energy  =      -2.1931558420367718 [Eh]
	 SCS Correlation Energy    =      -2.3939325251463992 [Eh]
	 SCS Total Energy          =    -553.6181366828857335 [Eh]
	-----------------------------------------------------------

  Dipole Moment: [D]
     X:     3.0557      Y:    -0.0040      Z:     0.0002     Total:     3.0557

*** Psi4 exiting successfully. Buy a developer a beer!
