                               Psi4 1.3.2 release

  ==> Input File <==

--------------------------------------------------------------------------
#psi4
#
memory 32 gb

molecule  {
0 1
  O        0.0894740    -1.2706490     0.0016280
  N        1.0961490     0.8320480    -0.0012430
  C       -1.0240859    -0.6458710    -0.0767057
  C       -1.7504730    -0.3080250    -1.2153360
  C       -1.7497660    -0.3035760     1.2162340
  C        1.2195230    -0.4906020     0.0005970
  C       -3.0144240     0.2837480    -1.2099290
  C       -3.0137120     0.2881830     1.2093930
  C       -3.6464470     0.5845060    -0.0006310
  C        2.4408500    -1.1790020     0.0015830
  C        3.6030640    -0.4211020     0.0005590
  C        3.5068820     0.9758400    -0.0013820
  C        2.2403890     1.5483070    -0.0022070
  H       -1.2410120    -0.5552270    -2.1426030
  H       -1.2397720    -0.5473760     2.1441080
  H       -3.5056790     0.5103880    -2.1530410
  H       -3.5044150     0.5182820     2.1519550
  H        2.4499920    -2.2642250     0.0030920
  H       -4.6315180     1.0439850    -0.0011840
  H        4.5737430    -0.9107530     0.0012630
  H        4.3934310     1.6024650    -0.0022300
  H        2.1135170     2.6292430    -0.0037130
units angstrom
no_reorient  #important for SAPT in psi4, default
symmetry c1  #important for SAPT in psi4, default
}

set PROPERTIES_ORIGIN ["COM"]
properties('MP2/aug-cc-pvtz', properties = ['dipole'])
--------------------------------------------------------------------------

    Molecular point group: c1
  Charge       = 0
  Multiplicity = 1
  Basis Set: AUG-CC-PVTZ
    Blend: AUG-CC-PVTZ
  Basis Set: (AUG-CC-PVTZ AUX)
    Blend: AUG-CC-PVTZ-JKFIT

    Orbital Energies [Eh]
    ---------------------

    Doubly Occupied:

       1A    -20.615896     2A    -15.573756     3A    -11.355215
       4A    -11.302502     5A    -11.290073     6A    -11.272651
       7A    -11.249595     8A    -11.244800     9A    -11.236536
      10A    -11.234084    11A    -11.231822    12A    -11.227090
      13A    -11.226375    14A     -1.486598    15A     -1.266268
      16A     -1.130718    17A     -1.100074    18A     -1.051795
      19A     -1.007830    20A     -0.984911    21A     -0.893318
      22A     -0.873467    23A     -0.827610    24A     -0.805163
      25A     -0.750499    26A     -0.716038    27A     -0.681443
      28A     -0.677604    29A     -0.671245    30A     -0.634594
      31A     -0.624181    32A     -0.601929    33A     -0.582656
      34A     -0.579693    35A     -0.571486    36A     -0.544447
      37A     -0.525529    38A     -0.515923    39A     -0.481906
      40A     -0.455027    41A     -0.438329    42A     -0.395710
      43A     -0.341156    44A     -0.332350    45A     -0.306829

  @DF-RHF Final Energy:  -551.25709627912420

   => Energetics <=

    Nuclear Repulsion Energy =            709.6159510698275881
    One-Electron Energy =               -2155.9126542356025311
    Two-Electron Energy =                 895.0396068866507449
    Total Energy =                       -551.2570962791241982
  Basis Set: (AUG-CC-PVTZ AUX)
    Blend: AUG-CC-PVTZ-RI
    Molecular point group: c1

    Geometry (in Angstrom), charge = 0, multiplicity = 1:

       Center              X                  Y                   Z               Mass
    ------------   -----------------  -----------------  -----------------  -----------------
         O            0.078216266675    -1.255209686264     0.007050590244    15.994914619570
         N            1.084891266675     0.847487313736     0.004179590244    14.003074004430
         C           -1.035343633325    -0.630431686264    -0.071283109756    12.000000000000
         C           -1.761730733325    -0.292585686264    -1.209913409756    12.000000000000
         C           -1.761023733325    -0.288136686264     1.221656590244    12.000000000000
         C            1.208265266675    -0.475162686264     0.006019590244    12.000000000000
         C           -3.025681733325     0.299187313736    -1.204506409756    12.000000000000
         C           -3.024969733325     0.303622313736     1.214815590244    12.000000000000
         C           -3.657704733325     0.599945313736     0.004791590244    12.000000000000
         C            2.429592266675    -1.163562686264     0.007005590244    12.000000000000
         C            3.591806266675    -0.405662686264     0.005981590244    12.000000000000
         C            3.495624266675     0.991279313736     0.004040590244    12.000000000000
         C            2.229131266675     1.563746313736     0.003215590244    12.000000000000
         H           -1.252269733325    -0.539787686264    -2.137180409756     1.007825032230
         H           -1.251029733325    -0.531936686264     2.149530590244     1.007825032230
         H           -3.516936733325     0.525827313736    -2.147618409756     1.007825032230
         H           -3.515672733325     0.533721313736     2.157377590244     1.007825032230
         H            2.438734266675    -2.248785686264     0.008514590244     1.007825032230
         H           -4.642775733325     1.059424313736     0.004238590244     1.007825032230
         H            4.562485266675    -0.895313686264     0.006685590244     1.007825032230
         H            4.382173266675     1.617904313736     0.003192590244     1.007825032230
         H            2.102259266675     2.644682313736     0.001709590244     1.007825032230

  Basis Set: AUG-CC-PVTZ
    Blend: AUG-CC-PVTZ
  Basis Set: (AUG-CC-PVTZ AUX)
    Blend: AUG-CC-PVTZ-JKFIT
	 Reference Energy          =    -551.2570962791241982 [Eh]
	 Singles Energy            =      -0.0000000000000000 [Eh]
	 Same-Spin Energy          =      -0.6005621297424615 [Eh]
	 Opposite-Spin Energy      =      -1.8260629096087753 [Eh]
	 Correlation Energy        =      -2.4266250393512365 [Eh]
	 Total Energy              =    -553.6837213184754773 [Eh]

	 ================> DF-SCS-MP2 Energies <==================
	-----------------------------------------------------------
	 SCS Same-Spin Scale       =       0.3333333333333333 [-]
	 SCS Opposite-Spin Scale   =       1.2000000000000000 [-]
	 SCS Same-Spin Energy      =      -0.2001873765808205 [Eh]
	 SCS Opposite-Spin Energy  =      -2.1912754915305301 [Eh]
	 SCS Correlation Energy    =      -2.3914628681113506 [Eh]
	 SCS Total Energy          =    -553.6485591472355736 [Eh]
	-----------------------------------------------------------

  Dipole Moment: [D]
     X:     2.3681      Y:     0.0954      Z:    -0.0494     Total:     2.3705

*** Psi4 exiting successfully. Buy a developer a beer!
