                               Psi4 1.3.2 release

  ==> Input File <==

--------------------------------------------------------------------------
#psi4
#
memory 32 gb

molecule  {
0 1
  O        0.0894740    -1.2706490     0.0016280
  N        1.0961490     0.8320480    -0.0012430
  C       -1.1354060    -0.5925990     0.0007920
  C       -1.7504730    -0.3080250    -1.2153360
  C       -1.7497660    -0.3035760     1.2162340
  C        1.2195230    -0.4906020     0.0005970
  C       -3.0144240     0.2837480    -1.2099290
  C       -3.0137120     0.2881830     1.2093930
  C       -3.6464470     0.5845060    -0.0006310
  C        2.4408500    -1.1790020     0.0015830
  C        3.6030640    -0.4211020     0.0005590
  C        3.5068820     0.9758400    -0.0013820
  C        2.0708633     1.4421891    -0.0020642
  H       -1.2410120    -0.5552270    -2.1426030
  H       -1.2397720    -0.5473760     2.1441080
  H       -3.5056790     0.5103880    -2.1530410
  H       -3.5044150     0.5182820     2.1519550
  H        2.4499920    -2.2642250     0.0030920
  H       -4.6315180     1.0439850    -0.0011840
  H        4.5737430    -0.9107530     0.0012630
  H        4.3934310     1.6024650    -0.0022300
  H        2.1135170     2.6292430    -0.0037130
units angstrom
no_reorient  #important for SAPT in psi4, default
symmetry c1  #important for SAPT in psi4, default
}

set PROPERTIES_ORIGIN ["COM"]
properties('MP2/aug-cc-pvtz', properties = ['dipole'])
--------------------------------------------------------------------------

    Molecular point group: c1
  Charge       = 0
  Multiplicity = 1
  Basis Set: AUG-CC-PVTZ
    Blend: AUG-CC-PVTZ
  Basis Set: (AUG-CC-PVTZ AUX)
    Blend: AUG-CC-PVTZ-JKFIT

    Orbital Energies [Eh]
    ---------------------

    Doubly Occupied:

       1A    -20.602647     2A    -15.559834     3A    -11.349915
       4A    -11.299293     5A    -11.285791     6A    -11.259992
       7A    -11.241892     8A    -11.241789     9A    -11.241054
      10A    -11.236832    11A    -11.236824    12A    -11.236315
      13A    -11.235742    14A     -1.438215    15A     -1.329953
      16A     -1.151773    17A     -1.100328    18A     -1.032564
      19A     -1.020377    20A     -0.989109    21A     -0.883959
      22A     -0.862683    23A     -0.839045    24A     -0.810040
      25A     -0.744560    26A     -0.707144    27A     -0.684759
      28A     -0.669460    29A     -0.663430    30A     -0.627630
      31A     -0.602021    32A     -0.601789    33A     -0.592600
      34A     -0.590624    35A     -0.573468    36A     -0.547255
      37A     -0.533293    38A     -0.516066    39A     -0.498785
      40A     -0.489659    41A     -0.413040    42A     -0.405001
      43A     -0.340999    44A     -0.330765    45A     -0.312870

  @DF-RHF Final Energy:  -551.22513477191194

   => Energetics <=

    Nuclear Repulsion Energy =            712.7921898423321636
    One-Electron Energy =               -2162.1722809216930727
    Two-Electron Energy =                 898.1549563074489697
    Total Energy =                       -551.2251347719119394
  Basis Set: (AUG-CC-PVTZ AUX)
    Blend: AUG-CC-PVTZ-RI
    Molecular point group: c1

    Geometry (in Angstrom), charge = 0, multiplicity = 1:

       Center              X                  Y                   Z               Mass
    ------------   -----------------  -----------------  -----------------  -----------------
         O            0.097916862026    -1.251502685156     0.001604313057    15.994914619570
         N            1.104591862026     0.851194314844    -0.001266686943    14.003074004430
         C           -1.126963137974    -0.573452685156     0.000768313057    12.000000000000
         C           -1.742030137974    -0.288878685156    -1.215359686943    12.000000000000
         C           -1.741323137974    -0.284429685156     1.216210313057    12.000000000000
         C            1.227965862026    -0.471455685156     0.000573313057    12.000000000000
         C           -3.005981137974     0.302894314844    -1.209952686943    12.000000000000
         C           -3.005269137974     0.307329314844     1.209369313057    12.000000000000
         C           -3.638004137974     0.603652314844    -0.000654686943    12.000000000000
         C            2.449292862026    -1.159855685156     0.001559313057    12.000000000000
         C            3.611506862026    -0.401955685156     0.000535313057    12.000000000000
         C            3.515324862026     0.994986314844    -0.001405686943    12.000000000000
         C            2.079306162026     1.461335414844    -0.002087886943    12.000000000000
         H           -1.232569137974    -0.536080685156    -2.142626686943     1.007825032230
         H           -1.231329137974    -0.528229685156     2.144084313057     1.007825032230
         H           -3.497236137974     0.529534314844    -2.153064686943     1.007825032230
         H           -3.495972137974     0.537428314844     2.151931313057     1.007825032230
         H            2.458434862026    -2.245078685156     0.003068313057     1.007825032230
         H           -4.623075137974     1.063131314844    -0.001207686943     1.007825032230
         H            4.582185862026    -0.891606685156     0.001239313057     1.007825032230
         H            4.401873862026     1.621611314844    -0.002253686943     1.007825032230
         H            2.121959862026     2.648389314844    -0.003736686943     1.007825032230

  Basis Set: AUG-CC-PVTZ
    Blend: AUG-CC-PVTZ
  Basis Set: (AUG-CC-PVTZ AUX)
    Blend: AUG-CC-PVTZ-JKFIT
	 Reference Energy          =    -551.2251347719119394 [Eh]
	 Singles Energy            =      -0.0000000000000000 [Eh]
	 Same-Spin Energy          =      -0.5984560423781178 [Eh]
	 Opposite-Spin Energy      =      -1.8233109497021820 [Eh]
	 Correlation Energy        =      -2.4217669920802996 [Eh]
	 Total Energy              =    -553.6469017639922185 [Eh]

	 ================> DF-SCS-MP2 Energies <==================
	-----------------------------------------------------------
	 SCS Same-Spin Scale       =       0.3333333333333333 [-]
	 SCS Opposite-Spin Scale   =       1.2000000000000000 [-]
	 SCS Same-Spin Energy      =      -0.1994853474593726 [Eh]
	 SCS Opposite-Spin Energy  =      -2.1879731396426183 [Eh]
	 SCS Correlation Energy    =      -2.3874584871019908 [Eh]
	 SCS Total Energy          =    -553.6125932590139200 [Eh]
	-----------------------------------------------------------

  Dipole Moment: [D]
     X:     0.9305      Y:     0.0968      Z:     0.0001     Total:     0.9355

*** Psi4 exiting successfully. Buy a developer a beer!
