                               Psi4 1.3.2 release

  ==> Input File <==

--------------------------------------------------------------------------
#psi4
#
memory 32 gb

molecule  {
0 1
  O        0.0378134    -1.1899207     0.0015155
  N        1.0961490     0.8320480    -0.0012430
  C       -1.1354060    -0.5925990     0.0007920
  C       -1.7504730    -0.3080250    -1.2153360
  C       -1.7497660    -0.3035760     1.2162340
  C        1.2195230    -0.4906020     0.0005970
  C       -3.0144240     0.2837480    -1.2099290
  C       -3.0137120     0.2881830     1.2093930
  C       -3.6464470     0.5845060    -0.0006310
  C        2.4408500    -1.1790020     0.0015830
  C        3.6030640    -0.4211020     0.0005590
  C        3.5068820     0.9758400    -0.0013820
  C        2.2403890     1.5483070    -0.0022070
  H       -1.2410120    -0.5552270    -2.1426030
  H       -1.2397720    -0.5473760     2.1441080
  H       -3.5056790     0.5103880    -2.1530410
  H       -3.5044150     0.5182820     2.1519550
  H        2.4499920    -2.2642250     0.0030920
  H       -4.6315180     1.0439850    -0.0011840
  H        4.5737430    -0.9107530     0.0012630
  H        4.3934310     1.6024650    -0.0022300
  H        2.1135170     2.6292430    -0.0037130
units angstrom
no_reorient  #important for SAPT in psi4, default
symmetry c1  #important for SAPT in psi4, default
}

set PROPERTIES_ORIGIN ["COM"]
properties('MP2/aug-cc-pvtz', properties = ['dipole'])
--------------------------------------------------------------------------

    Molecular point group: c1
  Charge       = 0
  Multiplicity = 1
  Basis Set: AUG-CC-PVTZ
    Blend: AUG-CC-PVTZ
  Basis Set: (AUG-CC-PVTZ AUX)
    Blend: AUG-CC-PVTZ-JKFIT

    Orbital Energies [Eh]
    ---------------------

    Doubly Occupied:

       1A    -20.596924     2A    -15.567243     3A    -11.351600
       4A    -11.290101     5A    -11.286296     6A    -11.270895
       7A    -11.247787     8A    -11.240981     9A    -11.235149
      10A    -11.235066    11A    -11.227625    12A    -11.227013
      13A    -11.226984    14A     -1.458172    15A     -1.260477
      16A     -1.143084    17A     -1.096746    18A     -1.048076
      19A     -1.013598    20A     -0.993171    21A     -0.884662
      22A     -0.870117    23A     -0.836126    24A     -0.805730
      25A     -0.748108    26A     -0.709162    27A     -0.679409
      28A     -0.672646    29A     -0.666217    30A     -0.629992
      31A     -0.616979    32A     -0.599216    33A     -0.587216
      34A     -0.577378    35A     -0.575706    36A     -0.538878
      37A     -0.519373    38A     -0.512701    39A     -0.487730
      40A     -0.476419    41A     -0.435684    42A     -0.392204
      43A     -0.337795    44A     -0.331760    45A     -0.319408

  @DF-RHF Final Energy:  -551.27978110825734

   => Energetics <=

    Nuclear Repulsion Energy =            711.3934969535085884
    One-Electron Energy =               -2159.6913502861452798
    Two-Electron Energy =                 897.0180722243794662
    Total Energy =                       -551.2797811082573389
  Basis Set: (AUG-CC-PVTZ AUX)
    Blend: AUG-CC-PVTZ-RI
    Molecular point group: c1

    Geometry (in Angstrom), charge = 0, multiplicity = 1:

       Center              X                  Y                   Z               Mass
    ------------   -----------------  -----------------  -----------------  -----------------
         O            0.039194750867    -1.185766381674     0.001512348864    15.994914619570
         N            1.097530350867     0.836202318326    -0.001246151136    14.003074004430
         C           -1.134024649133    -0.588444681674     0.000788848864    12.000000000000
         C           -1.749091649133    -0.303870681674    -1.215339151136    12.000000000000
         C           -1.748384649133    -0.299421681674     1.216230848864    12.000000000000
         C            1.220904350867    -0.486447681674     0.000593848864    12.000000000000
         C           -3.013042649133     0.287902318326    -1.209932151136    12.000000000000
         C           -3.012330649133     0.292337318326     1.209389848864    12.000000000000
         C           -3.645065649133     0.588660318326    -0.000634151136    12.000000000000
         C            2.442231350867    -1.174847681674     0.001579848864    12.000000000000
         C            3.604445350867    -0.416947681674     0.000555848864    12.000000000000
         C            3.508263350867     0.979994318326    -0.001385151136    12.000000000000
         C            2.241770350867     1.552461318326    -0.002210151136    12.000000000000
         H           -1.239630649133    -0.551072681674    -2.142606151136     1.007825032230
         H           -1.238390649133    -0.543221681674     2.144104848864     1.007825032230
         H           -3.504297649133     0.514542318326    -2.153044151136     1.007825032230
         H           -3.503033649133     0.522436318326     2.151951848864     1.007825032230
         H            2.451373350867    -2.260070681674     0.003088848864     1.007825032230
         H           -4.630136649133     1.048139318326    -0.001187151136     1.007825032230
         H            4.575124350867    -0.906598681674     0.001259848864     1.007825032230
         H            4.394812350867     1.606619318326    -0.002233151136     1.007825032230
         H            2.114898350867     2.633397318326    -0.003716151136     1.007825032230

  Basis Set: AUG-CC-PVTZ
    Blend: AUG-CC-PVTZ
  Basis Set: (AUG-CC-PVTZ AUX)
    Blend: AUG-CC-PVTZ-JKFIT
	 Reference Energy          =    -551.2797811082573389 [Eh]
	 Singles Energy            =      -0.0000000000000000 [Eh]
	 Same-Spin Energy          =      -0.5994595104393690 [Eh]
	 Opposite-Spin Energy      =      -1.8227235602421863 [Eh]
	 Correlation Energy        =      -2.4221830706815553 [Eh]
	 Total Energy              =    -553.7019641789388515 [Eh]

	 ================> DF-SCS-MP2 Energies <==================
	-----------------------------------------------------------
	 SCS Same-Spin Scale       =       0.3333333333333333 [-]
	 SCS Opposite-Spin Scale   =       1.2000000000000000 [-]
	 SCS Same-Spin Energy      =      -0.1998198368131230 [Eh]
	 SCS Opposite-Spin Energy  =      -2.1872682722906234 [Eh]
	 SCS Correlation Energy    =      -2.3870881091037464 [Eh]
	 SCS Total Energy          =    -553.6668692173610680 [Eh]
	-----------------------------------------------------------

  Dipole Moment: [D]
     X:     1.9420      Y:     0.0732      Z:     0.0001     Total:     1.9434

*** Psi4 exiting successfully. Buy a developer a beer!
