                               Psi4 1.3.2 release

  ==> Input File <==

--------------------------------------------------------------------------
#psi4
#
memory 32 gb

molecule  {
0 1
  O        0.0894740    -1.2706490     0.0016280
  N        1.0961490     0.8320480    -0.0012430
  C       -1.1354060    -0.5925990     0.0007920
  C       -1.7504730    -0.3080250    -1.2153360
  C       -1.7497660    -0.3035760     1.2162340
  C        1.2195230    -0.4906020     0.0005970
  C       -3.0144240     0.2837480    -1.2099290
  C       -3.0137120     0.2881830     1.2093930
  C       -3.6464470     0.5845060    -0.0006310
  C        2.5279647    -1.2281041     0.0016533
  C        3.6030640    -0.4211020     0.0005590
  C        3.5068820     0.9758400    -0.0013820
  C        2.2403890     1.5483070    -0.0022070
  H       -1.2410120    -0.5552270    -2.1426030
  H       -1.2397720    -0.5473760     2.1441080
  H       -3.5056790     0.5103880    -2.1530410
  H       -3.5044150     0.5182820     2.1519550
  H        2.4499920    -2.2642250     0.0030920
  H       -4.6315180     1.0439850    -0.0011840
  H        4.5737430    -0.9107530     0.0012630
  H        4.3934310     1.6024650    -0.0022300
  H        2.1135170     2.6292430    -0.0037130
units angstrom
no_reorient  #important for SAPT in psi4, default
symmetry c1  #important for SAPT in psi4, default
}

set PROPERTIES_ORIGIN ["COM"]
properties('MP2/aug-cc-pvtz', properties = ['dipole'])
--------------------------------------------------------------------------

    Molecular point group: c1
  Charge       = 0
  Multiplicity = 1
  Basis Set: AUG-CC-PVTZ
    Blend: AUG-CC-PVTZ
  Basis Set: (AUG-CC-PVTZ AUX)
    Blend: AUG-CC-PVTZ-JKFIT

    Orbital Energies [Eh]
    ---------------------

    Doubly Occupied:

       1A    -20.606043     2A    -15.564542     3A    -11.357651
       4A    -11.298324     5A    -11.282677     6A    -11.259395
       7A    -11.245599     8A    -11.239959     9A    -11.239852
      10A    -11.235284    11A    -11.235277    12A    -11.235268
      13A    -11.234041    14A     -1.436023    15A     -1.252696
      16A     -1.149029    17A     -1.097508    18A     -1.034028
      19A     -1.018521    20A     -0.996694    21A     -0.871594
      22A     -0.866486    23A     -0.837301    24A     -0.802889
      25A     -0.738278    26A     -0.708846    27A     -0.680997
      28A     -0.678689    29A     -0.659929    30A     -0.624917
      31A     -0.611298    32A     -0.594985    33A     -0.592066
      34A     -0.578511    35A     -0.570664    36A     -0.541673
      37A     -0.517588    38A     -0.514945    39A     -0.496699
      40A     -0.484732    41A     -0.426327    42A     -0.397972
      43A     -0.339185    44A     -0.329321    45A     -0.323703

  @DF-RHF Final Energy:  -551.27199454121546

   => Energetics <=

    Nuclear Repulsion Energy =            707.4138668136895376
    One-Electron Energy =               -2151.7557149796998601
    Two-Electron Energy =                 893.0698536247948596
    Total Energy =                       -551.2719945412154630
  Basis Set: (AUG-CC-PVTZ AUX)
    Blend: AUG-CC-PVTZ-RI
    Molecular point group: c1

    Geometry (in Angstrom), charge = 0, multiplicity = 1:

       Center              X                  Y                   Z               Mass
    ------------   -----------------  -----------------  -----------------  -----------------
         O            0.079914211920    -1.255502193799     0.001609398742    15.994914619570
         N            1.086589211920     0.847194806201    -0.001261601258    14.003074004430
         C           -1.144965788080    -0.577452193799     0.000773398742    12.000000000000
         C           -1.760032788080    -0.292878193799    -1.215354601258    12.000000000000
         C           -1.759325788080    -0.288429193799     1.216215398742    12.000000000000
         C            1.209963211920    -0.475455193799     0.000578398742    12.000000000000
         C           -3.023983788080     0.298894806201    -1.209947601258    12.000000000000
         C           -3.023271788080     0.303329806201     1.209374398742    12.000000000000
         C           -3.656006788080     0.599652806201    -0.000649601258    12.000000000000
         C            2.518404911920    -1.212957293799     0.001634698742    12.000000000000
         C            3.593504211920    -0.405955193799     0.000540398742    12.000000000000
         C            3.497322211920     0.990986806201    -0.001400601258    12.000000000000
         C            2.230829211920     1.563453806201    -0.002225601258    12.000000000000
         H           -1.250571788080    -0.540080193799    -2.142621601258     1.007825032230
         H           -1.249331788080    -0.532229193799     2.144089398742     1.007825032230
         H           -3.515238788080     0.525534806201    -2.153059601258     1.007825032230
         H           -3.513974788080     0.533428806201     2.151936398742     1.007825032230
         H            2.440432211920    -2.249078193799     0.003073398742     1.007825032230
         H           -4.641077788080     1.059131806201    -0.001202601258     1.007825032230
         H            4.564183211920    -0.895606193799     0.001244398742     1.007825032230
         H            4.383871211920     1.617611806201    -0.002248601258     1.007825032230
         H            2.103957211920     2.644389806201    -0.003731601258     1.007825032230

  Basis Set: AUG-CC-PVTZ
    Blend: AUG-CC-PVTZ
  Basis Set: (AUG-CC-PVTZ AUX)
    Blend: AUG-CC-PVTZ-JKFIT
	 Reference Energy          =    -551.2719945412154630 [Eh]
	 Singles Energy            =      -0.0000000000000000 [Eh]
	 Same-Spin Energy          =      -0.5988898357949087 [Eh]
	 Opposite-Spin Energy      =      -1.8249435242670331 [Eh]
	 Correlation Energy        =      -2.4238333600619417 [Eh]
	 Total Energy              =    -553.6958279012774256 [Eh]

	 ================> DF-SCS-MP2 Energies <==================
	-----------------------------------------------------------
	 SCS Same-Spin Scale       =       0.3333333333333333 [-]
	 SCS Opposite-Spin Scale   =       1.2000000000000000 [-]
	 SCS Same-Spin Energy      =      -0.1996299452649696 [Eh]
	 SCS Opposite-Spin Energy  =      -2.1899322291204397 [Eh]
	 SCS Correlation Energy    =      -2.3895621743854094 [Eh]
	 SCS Total Energy          =    -553.6615567156009092 [Eh]
	-----------------------------------------------------------

  Dipole Moment: [D]
     X:     1.2130      Y:     0.1237      Z:     0.0001     Total:     1.2193

*** Psi4 exiting successfully. Buy a developer a beer!
