                               Psi4 1.4a3.dev225

  ==> Input File <==

--------------------------------------------------------------------------
#psi4
#
memory 32 gb

molecule  {
0 1
  O        0.0894740    -1.2706490     0.0016280
  N        1.0961490     0.8320480    -0.0012430
  C       -1.1179081    -0.6022852     0.0008039
  C       -1.7504730    -0.3080250    -1.2153360
  C       -1.7497660    -0.3035760     1.2162340
  C        1.2195230    -0.4906020     0.0005970
  C       -3.0144240     0.2837480    -1.2099290
  C       -3.0137120     0.2881830     1.2093930
  C       -3.6464470     0.5845060    -0.0006310
  C        2.4408500    -1.1790020     0.0015830
  C        3.6030640    -0.4211020     0.0005590
  C        3.5068820     0.9758400    -0.0013820
  C        2.2403890     1.5483070    -0.0022070
  H       -1.2410120    -0.5552270    -2.1426030
  H       -1.2397720    -0.5473760     2.1441080
  H       -3.5056790     0.5103880    -2.1530410
  H       -3.5044150     0.5182820     2.1519550
  H        2.4499920    -2.2642250     0.0030920
  H       -4.6315180     1.0439850    -0.0011840
  H        4.5737430    -0.9107530     0.0012630
  H        4.3934310     1.6024650    -0.0022300
  H        2.1135170     2.6292430    -0.0037130
units angstrom
no_reorient  #important for SAPT in psi4, default
symmetry c1  #important for SAPT in psi4, default
}

set PROPERTIES_ORIGIN ["COM"]
properties('MP2/aug-cc-pvtz', properties = ['dipole'])
--------------------------------------------------------------------------

    Molecular point group: c1
  Charge       = 0
  Multiplicity = 1
  Basis Set: AUG-CC-PVTZ
    Blend: AUG-CC-PVTZ
  Basis Set: (AUG-CC-PVTZ AUX)
    Blend: AUG-CC-PVTZ-JKFIT

    Orbital Energies [Eh]
    ---------------------

    Doubly Occupied:

       1A    -20.603107     2A    -15.566941     3A    -11.347134
       4A    -11.297207     5A    -11.285179     6A    -11.267736
       7A    -11.243072     8A    -11.239023     9A    -11.237957
      10A    -11.237851    11A    -11.233546    12A    -11.233539
      13A    -11.231996    14A     -1.440872    15A     -1.257217
      16A     -1.144839    17A     -1.094413    18A     -1.041801
      19A     -1.015086    20A     -0.995083    21A     -0.880588
      22A     -0.862742    23A     -0.834163    24A     -0.805603
      25A     -0.741803    26A     -0.707196    27A     -0.679511
      28A     -0.670399    29A     -0.660542    30A     -0.628679
      31A     -0.615739    32A     -0.596489    33A     -0.588333
      34A     -0.580278    35A     -0.571949    36A     -0.537742
      37A     -0.518419    38A     -0.514629    39A     -0.493171
      40A     -0.480089    41A     -0.433325    42A     -0.390778
      43A     -0.338048    44A     -0.331383    45A     -0.325029

  @DF-RHF Final Energy:  -551.28225493528794

   => Energetics <=

    Nuclear Repulsion Energy =            709.1336986216437026
    One-Electron Energy =               -2155.2314524006255851
    Two-Electron Energy =                 894.8154988436938311
    Total Energy =                       -551.2822549352879378
  Basis Set: (AUG-CC-PVTZ AUX)
    Blend: AUG-CC-PVTZ-RI
    Molecular point group: c1

    Geometry (in Angstrom), charge = 0, multiplicity = 1:

       Center              X                  Y                   Z               Mass
    ------------   -----------------  -----------------  -----------------  -----------------
         O            0.084797647622    -1.258267115675     0.001613495349    15.994914619570
         N            1.091472647622     0.844429884325    -0.001257504651    14.003074004430
         C           -1.122584452378    -0.589903315675     0.000789395349    12.000000000000
         C           -1.755149352378    -0.295643115675    -1.215350504651    12.000000000000
         C           -1.754442352378    -0.291194115675     1.216219495349    12.000000000000
         C            1.214846647622    -0.478220115675     0.000582495349    12.000000000000
         C           -3.019100352378     0.296129884325    -1.209943504651    12.000000000000
         C           -3.018388352378     0.300564884325     1.209378495349    12.000000000000
         C           -3.651123352378     0.596887884325    -0.000645504651    12.000000000000
         C            2.436173647622    -1.166620115675     0.001568495349    12.000000000000
         C            3.598387647622    -0.408720115675     0.000544495349    12.000000000000
         C            3.502205647622     0.988221884325    -0.001396504651    12.000000000000
         C            2.235712647622     1.560688884325    -0.002221504651    12.000000000000
         H           -1.245688352378    -0.542845115675    -2.142617504651     1.007825032230
         H           -1.244448352378    -0.534994115675     2.144093495349     1.007825032230
         H           -3.510355352378     0.522769884325    -2.153055504651     1.007825032230
         H           -3.509091352378     0.530663884325     2.151940495349     1.007825032230
         H            2.445315647622    -2.251843115675     0.003077495349     1.007825032230
         H           -4.636194352378     1.056366884325    -0.001198504651     1.007825032230
         H            4.569066647622    -0.898371115675     0.001248495349     1.007825032230
         H            4.388754647622     1.614846884325    -0.002244504651     1.007825032230
         H            2.108840647622     2.641624884325    -0.003727504651     1.007825032230

  Basis Set: AUG-CC-PVTZ
    Blend: AUG-CC-PVTZ
  Basis Set: (AUG-CC-PVTZ AUX)
    Blend: AUG-CC-PVTZ-JKFIT
	 Reference Energy          =    -551.2822549352879378 [Eh]
	 Singles Energy            =      -0.0000000000000000 [Eh]
	 Same-Spin Energy          =      -0.5996876945108576 [Eh]
	 Opposite-Spin Energy      =      -1.8247525384179153 [Eh]
	 Correlation Energy        =      -2.4244402329287729 [Eh]
	 Total Energy              =    -553.7066951682166973 [Eh]

	 ================> DF-SCS-MP2 Energies <==================
	-----------------------------------------------------------
	 SCS Same-Spin Scale       =       0.3333333333333333 [-]
	 SCS Opposite-Spin Scale   =       1.2000000000000000 [-]
	 SCS Same-Spin Energy      =      -0.1998958981702859 [Eh]
	 SCS Opposite-Spin Energy  =      -2.1897030461014984 [Eh]
	 SCS Correlation Energy    =      -2.3895989442717842 [Eh]
	 SCS Total Energy          =    -553.6718538795597624 [Eh]
	-----------------------------------------------------------

  Dipole Moment: [D]
     X:     1.5567      Y:     0.1989      Z:    -0.0001     Total:     1.5694

*** Psi4 exiting successfully. Buy a developer a beer!
