                               Psi4 1.3.2 release

  ==> Input File <==

--------------------------------------------------------------------------
#psi4
#
memory 32 gb

molecule  {
0 1
  O        0.0894740    -1.2706490     0.0016280
  N        1.0961490     0.8320480    -0.0012430
  C       -1.1995716    -0.7243481     0.0009627
  C       -1.7504730    -0.3080250    -1.2153360
  C       -1.7497660    -0.3035760     1.2162340
  C        1.2195230    -0.4906020     0.0005970
  C       -3.0144240     0.2837480    -1.2099290
  C       -3.0137120     0.2881830     1.2093930
  C       -3.6464470     0.5845060    -0.0006310
  C        2.4408500    -1.1790020     0.0015830
  C        3.6030640    -0.4211020     0.0005590
  C        3.5068820     0.9758400    -0.0013820
  C        2.2403890     1.5483070    -0.0022070
  H       -1.2410120    -0.5552270    -2.1426030
  H       -1.2397720    -0.5473760     2.1441080
  H       -3.5056790     0.5103880    -2.1530410
  H       -3.5044150     0.5182820     2.1519550
  H        2.4499920    -2.2642250     0.0030920
  H       -4.6315180     1.0439850    -0.0011840
  H        4.5737430    -0.9107530     0.0012630
  H        4.3934310     1.6024650    -0.0022300
  H        2.1135170     2.6292430    -0.0037130
units angstrom
no_reorient  #important for SAPT in psi4, default
symmetry c1  #important for SAPT in psi4, default
}

set PROPERTIES_ORIGIN ["COM"]
properties('MP2/aug-cc-pvtz', properties = ['dipole'])
--------------------------------------------------------------------------

    Molecular point group: c1
  Charge       = 0
  Multiplicity = 1
  Basis Set: AUG-CC-PVTZ
    Blend: AUG-CC-PVTZ
  Basis Set: (AUG-CC-PVTZ AUX)
    Blend: AUG-CC-PVTZ-JKFIT

    Orbital Energies [Eh]
    ---------------------

    Doubly Occupied:

       1A    -20.594559     2A    -15.564598     3A    -11.346437
       4A    -11.298842     5A    -11.283224     6A    -11.266041
       7A    -11.241375     8A    -11.239411     9A    -11.239265
      10A    -11.237074    11A    -11.236909    12A    -11.236887
      13A    -11.235164    14A     -1.426809    15A     -1.254495
      16A     -1.148274    17A     -1.092320    18A     -1.040940
      19A     -1.018037    20A     -0.995704    21A     -0.877850
      22A     -0.861577    23A     -0.835316    24A     -0.805635
      25A     -0.741531    26A     -0.702862    27A     -0.679888
      28A     -0.669003    29A     -0.657115    30A     -0.627510
      31A     -0.613494    32A     -0.592828    33A     -0.591799
      34A     -0.579408    35A     -0.567320    36A     -0.535733
      37A     -0.517125    38A     -0.515938    39A     -0.492092
      40A     -0.481748    41A     -0.430538    42A     -0.388638
      43A     -0.337371    44A     -0.330592    45A     -0.329388

  @DF-RHF Final Energy:  -551.27617237196523

   => Energetics <=

    Nuclear Repulsion Energy =            707.9130924411820160
    One-Electron Energy =               -2152.8612022796437486
    Two-Electron Energy =                 893.6719374664965017
    Total Energy =                       -551.2761723719652309
  Basis Set: (AUG-CC-PVTZ AUX)
    Blend: AUG-CC-PVTZ-RI
    Molecular point group: c1

    Geometry (in Angstrom), charge = 0, multiplicity = 1:

       Center              X                  Y                   Z               Mass
    ------------   -----------------  -----------------  -----------------  -----------------
         O            0.090526127693    -1.249704723785     0.001602355946    15.994914619570
         N            1.097201127693     0.852992276215    -0.001268644054    14.003074004430
         C           -1.198519472307    -0.703403823785     0.000937055946    12.000000000000
         C           -1.749420872307    -0.287080723785    -1.215361644054    12.000000000000
         C           -1.748713872307    -0.282631723785     1.216208355946    12.000000000000
         C            1.220575127693    -0.469657723785     0.000571355946    12.000000000000
         C           -3.013371872307     0.304692276215    -1.209954644054    12.000000000000
         C           -3.012659872307     0.309127276215     1.209367355946    12.000000000000
         C           -3.645394872307     0.605450276215    -0.000656644054    12.000000000000
         C            2.441902127693    -1.158057723785     0.001557355946    12.000000000000
         C            3.604116127693    -0.400157723785     0.000533355946    12.000000000000
         C            3.507934127693     0.996784276215    -0.001407644054    12.000000000000
         C            2.241441127693     1.569251276215    -0.002232644054    12.000000000000
         H           -1.239959872307    -0.534282723785    -2.142628644054     1.007825032230
         H           -1.238719872307    -0.526431723785     2.144082355946     1.007825032230
         H           -3.504626872307     0.531332276215    -2.153066644054     1.007825032230
         H           -3.503362872307     0.539226276215     2.151929355946     1.007825032230
         H            2.451044127693    -2.243280723785     0.003066355946     1.007825032230
         H           -4.630465872307     1.064929276215    -0.001209644054     1.007825032230
         H            4.574795127693    -0.889808723785     0.001237355946     1.007825032230
         H            4.394483127693     1.623409276215    -0.002255644054     1.007825032230
         H            2.114569127693     2.650187276215    -0.003738644054     1.007825032230

  Basis Set: AUG-CC-PVTZ
    Blend: AUG-CC-PVTZ
  Basis Set: (AUG-CC-PVTZ AUX)
    Blend: AUG-CC-PVTZ-JKFIT
	 Reference Energy          =    -551.2761723719652309 [Eh]
	 Singles Energy            =      -0.0000000000000000 [Eh]
	 Same-Spin Energy          =      -0.5994012396231241 [Eh]
	 Opposite-Spin Energy      =      -1.8244512952951868 [Eh]
	 Correlation Energy        =      -2.4238525349183107 [Eh]
	 Total Energy              =    -553.7000249068835274 [Eh]

	 ================> DF-SCS-MP2 Energies <==================
	-----------------------------------------------------------
	 SCS Same-Spin Scale       =       0.3333333333333333 [-]
	 SCS Opposite-Spin Scale   =       1.2000000000000000 [-]
	 SCS Same-Spin Energy      =      -0.1998004132077080 [Eh]
	 SCS Opposite-Spin Energy  =      -2.1893415543542241 [Eh]
	 SCS Correlation Energy    =      -2.3891419675619323 [Eh]
	 SCS Total Energy          =    -553.6653143395271854 [Eh]
	-----------------------------------------------------------

  Dipole Moment: [D]
     X:     1.2529      Y:     0.2240      Z:    -0.0001     Total:     1.2727

*** Psi4 exiting successfully. Buy a developer a beer!
