                               Psi4 1.4a3.dev225

  ==> Input File <==

--------------------------------------------------------------------------
#psi4
#
memory 32 gb

molecule  {
0 1
  O        0.0894740    -1.2706490     0.0016280
  N        1.0961490     0.8320480    -0.0012430
  C       -1.1354060    -0.5925990     0.0007920
  C       -1.7504730    -0.3080250    -1.2153360
  C       -1.7497660    -0.3035760     1.2162340
  C        1.2195230    -0.4906020     0.0005970
  C       -3.0144240     0.2837480    -1.2099290
  C       -3.0137120     0.2881830     1.2093930
  C       -3.6464470     0.5845060    -0.0006310
  C        2.3972926    -1.1544509     0.0015478
  C        3.6030640    -0.4211020     0.0005590
  C        3.5068820     0.9758400    -0.0013820
  C        2.2403890     1.5483070    -0.0022070
  H       -1.2410120    -0.5552270    -2.1426030
  H       -1.2397720    -0.5473760     2.1441080
  H       -3.5056790     0.5103880    -2.1530410
  H       -3.5044150     0.5182820     2.1519550
  H        2.4499920    -2.2642250     0.0030920
  H       -4.6315180     1.0439850    -0.0011840
  H        4.5737430    -0.9107530     0.0012630
  H        4.3934310     1.6024650    -0.0022300
  H        2.1135170     2.6292430    -0.0037130
units angstrom
no_reorient  #important for SAPT in psi4, default
symmetry c1  #important for SAPT in psi4, default
}

set PROPERTIES_ORIGIN ["COM"]
properties('MP2/aug-cc-pvtz', properties = ['dipole'])
--------------------------------------------------------------------------

    Molecular point group: c1
  Charge       = 0
  Multiplicity = 1
  Basis Set: AUG-CC-PVTZ
    Blend: AUG-CC-PVTZ
  Basis Set: (AUG-CC-PVTZ AUX)
    Blend: AUG-CC-PVTZ-JKFIT

    Orbital Energies [Eh]
    ---------------------

    Doubly Occupied:

       1A    -20.597451     2A    -15.566200     3A    -11.337820
       4A    -11.295308     5A    -11.285452     6A    -11.270908
       7A    -11.239800     8A    -11.239605     9A    -11.238162
      10A    -11.238056    11A    -11.232884    12A    -11.232880
      13A    -11.232118    14A     -1.431669    15A     -1.257196
      16A     -1.147225    17A     -1.091602    18A     -1.044697
      19A     -1.016491    20A     -0.996239    21A     -0.882953
      22A     -0.857103    23A     -0.835118    24A     -0.806960
      25A     -0.740410    26A     -0.704641    27A     -0.679813
      28A     -0.664702    29A     -0.658208    30A     -0.630600
      31A     -0.615325    32A     -0.594935    33A     -0.591004
      34A     -0.580862    35A     -0.568800    36A     -0.531040
      37A     -0.517175    38A     -0.512734    39A     -0.494592
      40A     -0.482421    41A     -0.434202    42A     -0.386146
      43A     -0.339750    44A     -0.333892    45A     -0.326962

  @DF-RHF Final Energy:  -551.27921141755769

   => Energetics <=

    Nuclear Repulsion Energy =            709.9666006514012224
    One-Electron Energy =               -2156.9674014209576853
    Two-Electron Energy =                 895.7215893519987731
    Total Energy =                       -551.2792114175576899
  Basis Set: (AUG-CC-PVTZ AUX)
    Blend: AUG-CC-PVTZ-RI
    Molecular point group: c1

    Geometry (in Angstrom), charge = 0, multiplicity = 1:

       Center              X                  Y                   Z               Mass
    ------------   -----------------  -----------------  -----------------  -----------------
         O            0.089080516582    -1.260668772361     0.001616799290    15.994914619570
         N            1.095755516582     0.842028227639    -0.001254200710    14.003074004430
         C           -1.135799483418    -0.582618772361     0.000780799290    12.000000000000
         C           -1.750866483418    -0.298044772361    -1.215347200710    12.000000000000
         C           -1.750159483418    -0.293595772361     1.216222799290    12.000000000000
         C            1.219129516582    -0.480621772361     0.000585799290    12.000000000000
         C           -3.014817483418     0.293728227639    -1.209940200710    12.000000000000
         C           -3.014105483418     0.298163227639     1.209381799290    12.000000000000
         C           -3.646840483418     0.594486227639    -0.000642200710    12.000000000000
         C            2.396899116582    -1.144470672361     0.001536599290    12.000000000000
         C            3.602670516582    -0.411121772361     0.000547799290    12.000000000000
         C            3.506488516582     0.985820227639    -0.001393200710    12.000000000000
         C            2.239995516582     1.558287227639    -0.002218200710    12.000000000000
         H           -1.241405483418    -0.545246772361    -2.142614200710     1.007825032230
         H           -1.240165483418    -0.537395772361     2.144096799290     1.007825032230
         H           -3.506072483418     0.520368227639    -2.153052200710     1.007825032230
         H           -3.504808483418     0.528262227639     2.151943799290     1.007825032230
         H            2.449598516582    -2.254244772361     0.003080799290     1.007825032230
         H           -4.631911483418     1.053965227639    -0.001195200710     1.007825032230
         H            4.573349516582    -0.900772772361     0.001251799290     1.007825032230
         H            4.393037516582     1.612445227639    -0.002241200710     1.007825032230
         H            2.113123516582     2.639223227639    -0.003724200710     1.007825032230

  Basis Set: AUG-CC-PVTZ
    Blend: AUG-CC-PVTZ
  Basis Set: (AUG-CC-PVTZ AUX)
    Blend: AUG-CC-PVTZ-JKFIT
	 Reference Energy          =    -551.2792114175576899 [Eh]
	 Singles Energy            =      -0.0000000000000000 [Eh]
	 Same-Spin Energy          =      -0.5999423281624064 [Eh]
	 Opposite-Spin Energy      =      -1.8250314549407345 [Eh]
	 Correlation Energy        =      -2.4249737831031410 [Eh]
	 Total Energy              =    -553.7041852006608451 [Eh]

	 ================> DF-SCS-MP2 Energies <==================
	-----------------------------------------------------------
	 SCS Same-Spin Scale       =       0.3333333333333333 [-]
	 SCS Opposite-Spin Scale   =       1.2000000000000000 [-]
	 SCS Same-Spin Energy      =      -0.1999807760541355 [Eh]
	 SCS Opposite-Spin Energy  =      -2.1900377459288811 [Eh]
	 SCS Correlation Energy    =      -2.3900185219830168 [Eh]
	 SCS Total Energy          =    -553.6692299395407417 [Eh]
	-----------------------------------------------------------

  Dipole Moment: [D]
     X:     1.5246      Y:     0.2731      Z:    -0.0002     Total:     1.5489

*** Psi4 exiting successfully. Buy a developer a beer!
