                               Psi4 1.4a3.dev225

  ==> Input File <==

--------------------------------------------------------------------------
#psi4
#
memory 32 gb

molecule  {
0 1
  O        0.0894740    -1.2706490     0.0016280
  N        1.0961490     0.8320480    -0.0012430
  C       -1.1354060    -0.5925990     0.0007920
  C       -1.7504730    -0.3080250    -1.2153360
  C       -1.7497660    -0.3035760     1.2162340
  C        1.2195230    -0.4906020     0.0005970
  C       -3.0144240     0.2837480    -1.2099290
  C       -3.0137120     0.2881830     1.2093930
  C       -3.6464470     0.5845060    -0.0006310
  C        2.4234271    -1.1691816     0.0015689
  C        3.6030640    -0.4211020     0.0005590
  C        3.5068820     0.9758400    -0.0013820
  C        2.2403890     1.5483070    -0.0022070
  H       -1.2410120    -0.5552270    -2.1426030
  H       -1.2397720    -0.5473760     2.1441080
  H       -3.5056790     0.5103880    -2.1530410
  H       -3.5044150     0.5182820     2.1519550
  H        2.4499920    -2.2642250     0.0030920
  H       -4.6315180     1.0439850    -0.0011840
  H        4.5737430    -0.9107530     0.0012630
  H        4.3934310     1.6024650    -0.0022300
  H        2.1135170     2.6292430    -0.0037130
units angstrom
no_reorient  #important for SAPT in psi4, default
symmetry c1  #important for SAPT in psi4, default
}

set PROPERTIES_ORIGIN ["COM"]
properties('MP2/aug-cc-pvtz', properties = ['dipole'])
--------------------------------------------------------------------------

    Molecular point group: c1
  Charge       = 0
  Multiplicity = 1
  Basis Set: AUG-CC-PVTZ
    Blend: AUG-CC-PVTZ
  Basis Set: (AUG-CC-PVTZ AUX)
    Blend: AUG-CC-PVTZ-JKFIT

    Orbital Energies [Eh]
    ---------------------

    Doubly Occupied:

       1A    -20.599406     2A    -15.565919     3A    -11.342643
       4A    -11.296022     5A    -11.284733     6A    -11.268451
       7A    -11.241083     8A    -11.238613     9A    -11.238580
      10A    -11.238474    11A    -11.233443    12A    -11.233438
      13A    -11.232568    14A     -1.432658    15A     -1.256186
      16A     -1.147635    17A     -1.092644    18A     -1.041929
      19A     -1.016965    20A     -0.996345    21A     -0.880271
      22A     -0.859241    23A     -0.835626    24A     -0.806226
      25A     -0.740092    26A     -0.705516    27A     -0.679553
      28A     -0.666995    29A     -0.658593    30A     -0.629202
      31A     -0.615000    32A     -0.594916    33A     -0.591181
      34A     -0.580340    35A     -0.569560    36A     -0.534538
      37A     -0.517311    38A     -0.513456    39A     -0.495121
      40A     -0.482935    41A     -0.433143    42A     -0.388361
      43A     -0.338826    44A     -0.332145    45A     -0.327519

  @DF-RHF Final Energy:  -551.28209402068831

   => Energetics <=

    Nuclear Repulsion Energy =            709.4285209451168157
    One-Electron Energy =               -2155.8744336480040147
    Two-Electron Energy =                 895.1638186821988938
    Total Energy =                       -551.2820940206883051
  Basis Set: (AUG-CC-PVTZ AUX)
    Blend: AUG-CC-PVTZ-RI
    Molecular point group: c1

    Geometry (in Angstrom), charge = 0, multiplicity = 1:

       Center              X                  Y                   Z               Mass
    ------------   -----------------  -----------------  -----------------  -----------------
         O            0.087247250038    -1.259635452440     0.001615319180    15.994914619570
         N            1.093922250038     0.843061547560    -0.001255680820    14.003074004430
         C           -1.137632749962    -0.581585452440     0.000779319180    12.000000000000
         C           -1.752699749962    -0.297011452440    -1.215348680820    12.000000000000
         C           -1.751992749962    -0.292562452440     1.216221319180    12.000000000000
         C            1.217296250038    -0.479588452440     0.000584319180    12.000000000000
         C           -3.016650749962     0.294761547560    -1.209941680820    12.000000000000
         C           -3.015938749962     0.299196547560     1.209380319180    12.000000000000
         C           -3.648673749962     0.595519547560    -0.000643680820    12.000000000000
         C            2.421200350038    -1.158168052440     0.001556219180    12.000000000000
         C            3.600837250038    -0.410088452440     0.000546319180    12.000000000000
         C            3.504655250038     0.986853547560    -0.001394680820    12.000000000000
         C            2.238162250038     1.559320547560    -0.002219680820    12.000000000000
         H           -1.243238749962    -0.544213452440    -2.142615680820     1.007825032230
         H           -1.241998749962    -0.536362452440     2.144095319180     1.007825032230
         H           -3.507905749962     0.521401547560    -2.153053680820     1.007825032230
         H           -3.506641749962     0.529295547560     2.151942319180     1.007825032230
         H            2.447765250038    -2.253211452440     0.003079319180     1.007825032230
         H           -4.633744749962     1.054998547560    -0.001196680820     1.007825032230
         H            4.571516250038    -0.899739452440     0.001250319180     1.007825032230
         H            4.391204250038     1.613478547560    -0.002242680820     1.007825032230
         H            2.111290250038     2.640256547560    -0.003725680820     1.007825032230

  Basis Set: AUG-CC-PVTZ
    Blend: AUG-CC-PVTZ
  Basis Set: (AUG-CC-PVTZ AUX)
    Blend: AUG-CC-PVTZ-JKFIT
	 Reference Energy          =    -551.2820940206883051 [Eh]
	 Singles Energy            =      -0.0000000000000000 [Eh]
	 Same-Spin Energy          =      -0.5997525573356767 [Eh]
	 Opposite-Spin Energy      =      -1.8248495457920690 [Eh]
	 Correlation Energy        =      -2.4246021031277456 [Eh]
	 Total Energy              =    -553.7066961238160729 [Eh]

	 ================> DF-SCS-MP2 Energies <==================
	-----------------------------------------------------------
	 SCS Same-Spin Scale       =       0.3333333333333333 [-]
	 SCS Opposite-Spin Scale   =       1.2000000000000000 [-]
	 SCS Same-Spin Energy      =      -0.1999175191118922 [Eh]
	 SCS Opposite-Spin Energy  =      -2.1898194549504826 [Eh]
	 SCS Correlation Energy    =      -2.3897369740623748 [Eh]
	 SCS Total Energy          =    -553.6718309947507350 [Eh]
	-----------------------------------------------------------

  Dipole Moment: [D]
     X:     1.4557      Y:     0.2382      Z:    -0.0001     Total:     1.4750

*** Psi4 exiting successfully. Buy a developer a beer!
