                               Psi4 1.3.2 release

  ==> Input File <==

--------------------------------------------------------------------------
#psi4
#
memory 32 gb

molecule  {
0 1
  O        0.0897504    -1.2696793     0.0260420
  N        1.0961490     0.8320480    -0.0012430
  C       -1.1354060    -0.5925990     0.0007920
  C       -1.7504730    -0.3080250    -1.2153360
  C       -1.7497660    -0.3035760     1.2162340
  C        1.2195230    -0.4906020     0.0005970
  C       -3.0144240     0.2837480    -1.2099290
  C       -3.0137120     0.2881830     1.2093930
  C       -3.6464470     0.5845060    -0.0006310
  C        2.4408500    -1.1790020     0.0015830
  C        3.6030640    -0.4211020     0.0005590
  C        3.5068820     0.9758400    -0.0013820
  C        2.2403890     1.5483070    -0.0022070
  H       -1.2410120    -0.5552270    -2.1426030
  H       -1.2397720    -0.5473760     2.1441080
  H       -3.5056790     0.5103880    -2.1530410
  H       -3.5044150     0.5182820     2.1519550
  H        2.4499920    -2.2642250     0.0030920
  H       -4.6315180     1.0439850    -0.0011840
  H        4.5737430    -0.9107530     0.0012630
  H        4.3934310     1.6024650    -0.0022300
  H        2.1135170     2.6292430    -0.0037130
units angstrom
no_reorient  #important for SAPT in psi4, default
symmetry c1  #important for SAPT in psi4, default
}

set PROPERTIES_ORIGIN ["COM"]
properties('MP2/aug-cc-pvtz', properties = ['dipole'])
--------------------------------------------------------------------------

    Molecular point group: c1
  Charge       = 0
  Multiplicity = 1
  Basis Set: AUG-CC-PVTZ
    Blend: AUG-CC-PVTZ
  Basis Set: (AUG-CC-PVTZ AUX)
    Blend: AUG-CC-PVTZ-JKFIT

    Orbital Energies [Eh]
    ---------------------

    Doubly Occupied:

       1A    -20.600647     2A    -15.565657     3A    -11.345581
       4A    -11.296511     5A    -11.284266     6A    -11.266817
       7A    -11.241858     8A    -11.239034     9A    -11.238574
      10A    -11.237949    11A    -11.234333    12A    -11.233294
      13A    -11.232858    14A     -1.433493    15A     -1.255504
      16A     -1.147926    17A     -1.093360    18A     -1.040296
      19A     -1.017278    20A     -0.996411    21A     -0.878587
      22A     -0.860645    23A     -0.835954    24A     -0.805700
      25A     -0.739903    26A     -0.706087    27A     -0.679442
      28A     -0.668828    29A     -0.658900    30A     -0.628214
      31A     -0.614683    32A     -0.594921    33A     -0.591334
      34A     -0.580068    35A     -0.569928    36A     -0.536484
      37A     -0.517380    38A     -0.513859    39A     -0.495465
      40A     -0.483268    41A     -0.432274    42A     -0.389858
      43A     -0.338672    44A     -0.330732    45A     -0.327790

  @DF-RHF Final Energy:  -551.28262802288862

   => Energetics <=

    Nuclear Repulsion Energy =            709.0968524984083388
    One-Electron Energy =               -2155.1977034745273158
    Two-Electron Energy =                 894.8182229532304746
    Total Energy =                       -551.2826280228886162
  Basis Set: (AUG-CC-PVTZ AUX)
    Blend: AUG-CC-PVTZ-RI
    Molecular point group: c1

    Geometry (in Angstrom), charge = 0, multiplicity = 1:

       Center              X                  Y                   Z               Mass
    ------------   -----------------  -----------------  -----------------  -----------------
         O            0.086275635927    -1.258067544220     0.023745618545    15.994914619570
         N            1.092674235927     0.843659755780    -0.003539381455    14.003074004430
         C           -1.138880764073    -0.580987244220    -0.001504381455    12.000000000000
         C           -1.753947764073    -0.296413244220    -1.217632381455    12.000000000000
         C           -1.753240764073    -0.291964244220     1.213937618545    12.000000000000
         C            1.216048235927    -0.478990244220    -0.001699381455    12.000000000000
         C           -3.017898764073     0.295359755780    -1.212225381455    12.000000000000
         C           -3.017186764073     0.299794755780     1.207096618545    12.000000000000
         C           -3.649921764073     0.596117755780    -0.002927381455    12.000000000000
         C            2.437375235927    -1.167390244220    -0.000713381455    12.000000000000
         C            3.599589235927    -0.409490244220    -0.001737381455    12.000000000000
         C            3.503407235927     0.987451755780    -0.003678381455    12.000000000000
         C            2.236914235927     1.559918755780    -0.004503381455    12.000000000000
         H           -1.244486764073    -0.543615244220    -2.144899381455     1.007825032230
         H           -1.243246764073    -0.535764244220     2.141811618545     1.007825032230
         H           -3.509153764073     0.521999755780    -2.155337381455     1.007825032230
         H           -3.507889764073     0.529893755780     2.149658618545     1.007825032230
         H            2.446517235927    -2.252613244220     0.000795618545     1.007825032230
         H           -4.634992764073     1.055596755780    -0.003480381455     1.007825032230
         H            4.570268235927    -0.899141244220    -0.001033381455     1.007825032230
         H            4.389956235927     1.614076755780    -0.004526381455     1.007825032230
         H            2.110042235927     2.640854755780    -0.006009381455     1.007825032230

  Basis Set: AUG-CC-PVTZ
    Blend: AUG-CC-PVTZ
  Basis Set: (AUG-CC-PVTZ AUX)
    Blend: AUG-CC-PVTZ-JKFIT
	 Reference Energy          =    -551.2826280228886162 [Eh]
	 Singles Energy            =      -0.0000000000000000 [Eh]
	 Same-Spin Energy          =      -0.5996133788421038 [Eh]
	 Opposite-Spin Energy      =      -1.8247607515221533 [Eh]
	 Correlation Energy        =      -2.4243741303642570 [Eh]
	 Total Energy              =    -553.7070021532529154 [Eh]

	 ================> DF-SCS-MP2 Energies <==================
	-----------------------------------------------------------
	 SCS Same-Spin Scale       =       0.3333333333333333 [-]
	 SCS Opposite-Spin Scale   =       1.2000000000000000 [-]
	 SCS Same-Spin Energy      =      -0.1998711262807013 [Eh]
	 SCS Opposite-Spin Energy  =      -2.1897129018265837 [Eh]
	 SCS Correlation Energy    =      -2.3895840281072851 [Eh]
	 SCS Total Energy          =    -553.6722120509958813 [Eh]
	-----------------------------------------------------------

  Dipole Moment: [D]
     X:     1.4091      Y:     0.2146      Z:    -0.0264     Total:     1.4256

*** Psi4 exiting successfully. Buy a developer a beer!
