                               Psi4 1.3.2 release

  ==> Input File <==

--------------------------------------------------------------------------
#psi4
#
memory 32 gb

molecule  {
0 1
  O        0.0894740    -1.2706490     0.0016280
  N        1.0961490     0.8320480    -0.0012430
  C       -1.1797207    -0.6796939     0.0009049
  C       -1.7504730    -0.3080250    -1.2153360
  C       -1.7497660    -0.3035760     1.2162340
  C        1.2195230    -0.4906020     0.0005970
  C       -3.0144240     0.2837480    -1.2099290
  C       -3.0137120     0.2881830     1.2093930
  C       -3.6464470     0.5845060    -0.0006310
  C        2.4408500    -1.1790020     0.0015830
  C        3.6030640    -0.4211020     0.0005590
  C        3.5068820     0.9758400    -0.0013820
  C        2.2403890     1.5483070    -0.0022070
  H       -1.2410120    -0.5552270    -2.1426030
  H       -1.2397720    -0.5473760     2.1441080
  H       -3.5056790     0.5103880    -2.1530410
  H       -3.5044150     0.5182820     2.1519550
  H        2.4499920    -2.2642250     0.0030920
  H       -4.6315180     1.0439850    -0.0011840
  H        4.5737430    -0.9107530     0.0012630
  H        4.3934310     1.6024650    -0.0022300
  H        2.1135170     2.6292430    -0.0037130
units angstrom
no_reorient  #important for SAPT in psi4, default
symmetry c1  #important for SAPT in psi4, default
}

set PROPERTIES_ORIGIN ["COM"]
properties('MP2/aug-cc-pvtz', properties = ['dipole'])
--------------------------------------------------------------------------

    Molecular point group: c1
  Charge       = 0
  Multiplicity = 1
  Basis Set: AUG-CC-PVTZ
    Blend: AUG-CC-PVTZ
  Basis Set: (AUG-CC-PVTZ AUX)
    Blend: AUG-CC-PVTZ-JKFIT

    Orbital Energies [Eh]
    ---------------------

    Doubly Occupied:

       1A    -20.596708     2A    -15.564940     3A    -11.346140
       4A    -11.297637     5A    -11.283554     6A    -11.266300
       7A    -11.241558     8A    -11.239289     9A    -11.239165
      10A    -11.237367    11A    -11.235443    12A    -11.235432
      13A    -11.234168    14A     -1.428999    15A     -1.254828
      16A     -1.148529    17A     -1.092657    18A     -1.040777
      19A     -1.018000    20A     -0.996187    21A     -0.878046
      22A     -0.861273    23A     -0.836004    24A     -0.805686
      25A     -0.741240    26A     -0.703896    27A     -0.679663
      28A     -0.668940    29A     -0.657897    30A     -0.627718
      31A     -0.613882    32A     -0.593623    33A     -0.591956
      34A     -0.579672    35A     -0.568309    36A     -0.536004
      37A     -0.517223    38A     -0.515045    39A     -0.493733
      40A     -0.482688    41A     -0.431068    42A     -0.389032
      43A     -0.337962    44A     -0.330755    45A     -0.329120

  @DF-RHF Final Energy:  -551.28026117826801

   => Energetics <=

    Nuclear Repulsion Energy =            708.3605837657787561
    One-Electron Energy =               -2153.7454670548263493
    Two-Electron Energy =                 894.1046221107795873
    Total Energy =                       -551.2802611782680060
  Basis Set: (AUG-CC-PVTZ AUX)
    Blend: AUG-CC-PVTZ-RI
    Molecular point group: c1

    Geometry (in Angstrom), charge = 0, multiplicity = 1:

       Center              X                  Y                   Z               Mass
    ------------   -----------------  -----------------  -----------------  -----------------
         O            0.089133639188    -1.252837098650     0.001606410464    15.994914619570
         N            1.095808639188     0.849859901350    -0.001264589536    14.003074004430
         C           -1.180061060812    -0.661881998650     0.000883310464    12.000000000000
         C           -1.750813360812    -0.290213098650    -1.215357589536    12.000000000000
         C           -1.750106360812    -0.285764098650     1.216212410464    12.000000000000
         C            1.219182639188    -0.472790098650     0.000575410464    12.000000000000
         C           -3.014764360812     0.301559901350    -1.209950589536    12.000000000000
         C           -3.014052360812     0.305994901350     1.209371410464    12.000000000000
         C           -3.646787360812     0.602317901350    -0.000652589536    12.000000000000
         C            2.440509639188    -1.161190098650     0.001561410464    12.000000000000
         C            3.602723639188    -0.403290098650     0.000537410464    12.000000000000
         C            3.506541639188     0.993651901350    -0.001403589536    12.000000000000
         C            2.240048639188     1.566118901350    -0.002228589536    12.000000000000
         H           -1.241352360812    -0.537415098650    -2.142624589536     1.007825032230
         H           -1.240112360812    -0.529564098650     2.144086410464     1.007825032230
         H           -3.506019360812     0.528199901350    -2.153062589536     1.007825032230
         H           -3.504755360812     0.536093901350     2.151933410464     1.007825032230
         H            2.449651639188    -2.246413098650     0.003070410464     1.007825032230
         H           -4.631858360812     1.061796901350    -0.001205589536     1.007825032230
         H            4.573402639188    -0.892941098650     0.001241410464     1.007825032230
         H            4.393090639188     1.620276901350    -0.002251589536     1.007825032230
         H            2.113176639188     2.647054901350    -0.003734589536     1.007825032230

  Basis Set: AUG-CC-PVTZ
    Blend: AUG-CC-PVTZ
  Basis Set: (AUG-CC-PVTZ AUX)
    Blend: AUG-CC-PVTZ-JKFIT
	 Reference Energy          =    -551.2802611782680060 [Eh]
	 Singles Energy            =      -0.0000000000000000 [Eh]
	 Same-Spin Energy          =      -0.5993603983534074 [Eh]
	 Opposite-Spin Energy      =      -1.8242310682927061 [Eh]
	 Correlation Energy        =      -2.4235914666461134 [Eh]
	 Total Energy              =    -553.7038526449141500 [Eh]

	 ================> DF-SCS-MP2 Energies <==================
	-----------------------------------------------------------
	 SCS Same-Spin Scale       =       0.3333333333333333 [-]
	 SCS Opposite-Spin Scale   =       1.2000000000000000 [-]
	 SCS Same-Spin Energy      =      -0.1997867994511358 [Eh]
	 SCS Opposite-Spin Energy  =      -2.1890772819512474 [Eh]
	 SCS Correlation Energy    =      -2.3888640814023834 [Eh]
	 SCS Total Energy          =    -553.6691252596704089 [Eh]
	-----------------------------------------------------------

  Dipole Moment: [D]
     X:     1.3066      Y:     0.2181      Z:    -0.0001     Total:     1.3246

*** Psi4 exiting successfully. Buy a developer a beer!
