                               Psi4 1.3.2 release

  ==> Input File <==

--------------------------------------------------------------------------
#psi4
#
memory 32 gb

molecule  {
0 1
  O        0.0894740    -1.2706490     0.0016280
  N        1.0961490     0.8320480    -0.0012430
  C       -1.1354060    -0.5925990     0.0007920
  C       -1.7504730    -0.3080250    -1.2153360
  C       -1.7497660    -0.3035760     1.2162340
  C        1.1732880    -0.4941020     0.0006006
  C       -3.0144240     0.2837480    -1.2099290
  C       -3.0137120     0.2881830     1.2093930
  C       -3.6464470     0.5845060    -0.0006310
  C        2.4408500    -1.1790020     0.0015830
  C        3.6030640    -0.4211020     0.0005590
  C        3.5068820     0.9758400    -0.0013820
  C        2.2403890     1.5483070    -0.0022070
  H       -1.2410120    -0.5552270    -2.1426030
  H       -1.2397720    -0.5473760     2.1441080
  H       -3.5056790     0.5103880    -2.1530410
  H       -3.5044150     0.5182820     2.1519550
  H        2.4499920    -2.2642250     0.0030920
  H       -4.6315180     1.0439850    -0.0011840
  H        4.5737430    -0.9107530     0.0012630
  H        4.3934310     1.6024650    -0.0022300
  H        2.1135170     2.6292430    -0.0037130
units angstrom
no_reorient  #important for SAPT in psi4, default
symmetry c1  #important for SAPT in psi4, default
}

set PROPERTIES_ORIGIN ["COM"]
properties('MP2/aug-cc-pvtz', properties = ['dipole'])
--------------------------------------------------------------------------

    Molecular point group: c1
  Charge       = 0
  Multiplicity = 1
  Basis Set: AUG-CC-PVTZ
    Blend: AUG-CC-PVTZ
  Basis Set: (AUG-CC-PVTZ AUX)
    Blend: AUG-CC-PVTZ-JKFIT

    Orbital Energies [Eh]
    ---------------------

    Doubly Occupied:

       1A    -20.609943     2A    -15.561115     3A    -11.348577
       4A    -11.300390     5A    -11.281318     6A    -11.262869
       7A    -11.241973     8A    -11.241402     9A    -11.241293
      10A    -11.237168    11A    -11.237161    12A    -11.235592
      13A    -11.234297    14A     -1.454355    15A     -1.250362
      16A     -1.151645    17A     -1.087569    18A     -1.038840
      19A     -1.020186    20A     -0.996984    21A     -0.878093
      22A     -0.861349    23A     -0.839451    24A     -0.805553
      25A     -0.744606    26A     -0.707850    27A     -0.681211
      28A     -0.670642    29A     -0.665865    30A     -0.626498
      31A     -0.614722    32A     -0.595324    33A     -0.594470
      34A     -0.583639    35A     -0.569014    36A     -0.535307
      37A     -0.517333    38A     -0.516901    39A     -0.499724
      40A     -0.486901    41A     -0.423404    42A     -0.387580
      43A     -0.340404    44A     -0.331502    45A     -0.323934

  @DF-RHF Final Energy:  -551.28069145722384

   => Energetics <=

    Nuclear Repulsion Energy =            709.3512549650093888
    One-Electron Energy =               -2155.5952564047042870
    Two-Electron Energy =                 894.9633099824709461
    Total Energy =                       -551.2806914572238384
  Basis Set: (AUG-CC-PVTZ AUX)
    Blend: AUG-CC-PVTZ-RI
    Molecular point group: c1

    Geometry (in Angstrom), charge = 0, multiplicity = 1:

       Center              X                  Y                   Z               Mass
    ------------   -----------------  -----------------  -----------------  -----------------
         O            0.089268343190    -1.258701061360     0.001614077572    15.994914619570
         N            1.095943343190     0.843995938640    -0.001256922428    14.003074004430
         C           -1.135611656810    -0.580651061360     0.000778077572    12.000000000000
         C           -1.750678656810    -0.296077061360    -1.215349922428    12.000000000000
         C           -1.749971656810    -0.291628061360     1.216220077572    12.000000000000
         C            1.173082343190    -0.482154061360     0.000586677572    12.000000000000
         C           -3.014629656810     0.295695938640    -1.209942922428    12.000000000000
         C           -3.013917656810     0.300130938640     1.209379077572    12.000000000000
         C           -3.646652656810     0.596453938640    -0.000644922428    12.000000000000
         C            2.440644343190    -1.167054061360     0.001569077572    12.000000000000
         C            3.602858343190    -0.409154061360     0.000545077572    12.000000000000
         C            3.506676343190     0.987787938640    -0.001395922428    12.000000000000
         C            2.240183343190     1.560254938640    -0.002220922428    12.000000000000
         H           -1.241217656810    -0.543279061360    -2.142616922428     1.007825032230
         H           -1.239977656810    -0.535428061360     2.144094077572     1.007825032230
         H           -3.505884656810     0.522335938640    -2.153054922428     1.007825032230
         H           -3.504620656810     0.530229938640     2.151941077572     1.007825032230
         H            2.449786343190    -2.252277061360     0.003078077572     1.007825032230
         H           -4.631723656810     1.055932938640    -0.001197922428     1.007825032230
         H            4.573537343190    -0.898805061360     0.001249077572     1.007825032230
         H            4.393225343190     1.614412938640    -0.002243922428     1.007825032230
         H            2.113311343190     2.641190938640    -0.003726922428     1.007825032230

  Basis Set: AUG-CC-PVTZ
    Blend: AUG-CC-PVTZ
  Basis Set: (AUG-CC-PVTZ AUX)
    Blend: AUG-CC-PVTZ-JKFIT
	 Reference Energy          =    -551.2806914572238384 [Eh]
	 Singles Energy            =      -0.0000000000000000 [Eh]
	 Same-Spin Energy          =      -0.5994223987793235 [Eh]
	 Opposite-Spin Energy      =      -1.8245189059441898 [Eh]
	 Correlation Energy        =      -2.4239413047235132 [Eh]
	 Total Energy              =    -553.7046327619473232 [Eh]

	 ================> DF-SCS-MP2 Energies <==================
	-----------------------------------------------------------
	 SCS Same-Spin Scale       =       0.3333333333333333 [-]
	 SCS Opposite-Spin Scale   =       1.2000000000000000 [-]
	 SCS Same-Spin Energy      =      -0.1998074662597745 [Eh]
	 SCS Opposite-Spin Energy  =      -2.1894226871330278 [Eh]
	 SCS Correlation Energy    =      -2.3892301533928024 [Eh]
	 SCS Total Energy          =    -553.6699216106165977 [Eh]
	-----------------------------------------------------------

  Dipole Moment: [D]
     X:     0.9623      Y:     0.0924      Z:     0.0001     Total:     0.9667

*** Psi4 exiting successfully. Buy a developer a beer!
