                               Psi4 1.3.2 release

  ==> Input File <==

--------------------------------------------------------------------------
#psi4
#
memory 32 gb

molecule  {
0 1
  O        0.0894740    -1.2706490     0.0016280
  N        1.0961490     0.8320480    -0.0012430
  C       -1.3103851    -0.4957368     0.0006726
  C       -1.7504730    -0.3080250    -1.2153360
  C       -1.7497660    -0.3035760     1.2162340
  C        1.2195230    -0.4906020     0.0005970
  C       -3.0144240     0.2837480    -1.2099290
  C       -3.0137120     0.2881830     1.2093930
  C       -3.6464470     0.5845060    -0.0006310
  C        2.4408500    -1.1790020     0.0015830
  C        3.6030640    -0.4211020     0.0005590
  C        3.5068820     0.9758400    -0.0013820
  C        2.2403890     1.5483070    -0.0022070
  H       -1.2410120    -0.5552270    -2.1426030
  H       -1.2397720    -0.5473760     2.1441080
  H       -3.5056790     0.5103880    -2.1530410
  H       -3.5044150     0.5182820     2.1519550
  H        2.4499920    -2.2642250     0.0030920
  H       -4.6315180     1.0439850    -0.0011840
  H        4.5737430    -0.9107530     0.0012630
  H        4.3934310     1.6024650    -0.0022300
  H        2.1135170     2.6292430    -0.0037130
units angstrom
no_reorient  #important for SAPT in psi4, default
symmetry c1  #important for SAPT in psi4, default
}

set PROPERTIES_ORIGIN ["COM"]
properties('MP2/aug-cc-pvtz', properties = ['dipole'])
--------------------------------------------------------------------------

    Molecular point group: c1
  Charge       = 0
  Multiplicity = 1
  Basis Set: AUG-CC-PVTZ
    Blend: AUG-CC-PVTZ
  Basis Set: (AUG-CC-PVTZ AUX)
    Blend: AUG-CC-PVTZ-JKFIT

    Orbital Energies [Eh]
    ---------------------

    Doubly Occupied:

       1A    -20.570770     2A    -15.553547     3A    -11.330129
       4A    -11.297326     5A    -11.275285     6A    -11.257405
       7A    -11.249561     8A    -11.249489     9A    -11.240889
      10A    -11.237908    11A    -11.237862    12A    -11.229767
      13A    -11.227538    14A     -1.373606    15A     -1.239512
      16A     -1.182428    17A     -1.082871    18A     -1.044543
      19A     -1.033058    20A     -1.001395    21A     -0.862873
      22A     -0.855168    23A     -0.841146    24A     -0.809197
      25A     -0.727512    26A     -0.699436    27A     -0.671062
      28A     -0.661603    29A     -0.652671    30A     -0.630527
      31A     -0.616959    32A     -0.601817    33A     -0.580522
      34A     -0.571695    35A     -0.556208    36A     -0.530522
      37A     -0.524847    38A     -0.518052    39A     -0.485350
      40A     -0.482967    41A     -0.421248    42A     -0.380822
      43A     -0.352157    44A     -0.351076    45A     -0.318146

  @DF-RHF Final Energy:  -551.24150370863094

   => Energetics <=

    Nuclear Repulsion Energy =            708.9174774705197706
    One-Electron Energy =               -2155.0810100750036327
    Two-Electron Energy =                 894.9220288958529181
    Total Energy =                       -551.2415037086309439
  Basis Set: (AUG-CC-PVTZ AUX)
    Blend: AUG-CC-PVTZ-RI
    Molecular point group: c1

    Geometry (in Angstrom), charge = 0, multiplicity = 1:

       Center              X                  Y                   Z               Mass
    ------------   -----------------  -----------------  -----------------  -----------------
         O            0.098299403715    -1.265741206132     0.001622705699    15.994914619570
         N            1.104974403715     0.836955793868    -0.001248294301    14.003074004430
         C           -1.301559696285    -0.490829006132     0.000667305699    12.000000000000
         C           -1.741647596285    -0.303117206132    -1.215341294301    12.000000000000
         C           -1.740940596285    -0.298668206132     1.216228705699    12.000000000000
         C            1.228348403715    -0.485694206132     0.000591705699    12.000000000000
         C           -3.005598596285     0.288655793868    -1.209934294301    12.000000000000
         C           -3.004886596285     0.293090793868     1.209387705699    12.000000000000
         C           -3.637621596285     0.589413793868    -0.000636294301    12.000000000000
         C            2.449675403715    -1.174094206132     0.001577705699    12.000000000000
         C            3.611889403715    -0.416194206132     0.000553705699    12.000000000000
         C            3.515707403715     0.980747793868    -0.001387294301    12.000000000000
         C            2.249214403715     1.553214793868    -0.002212294301    12.000000000000
         H           -1.232186596285    -0.550319206132    -2.142608294301     1.007825032230
         H           -1.230946596285    -0.542468206132     2.144102705699     1.007825032230
         H           -3.496853596285     0.515295793868    -2.153046294301     1.007825032230
         H           -3.495589596285     0.523189793868     2.151949705699     1.007825032230
         H            2.458817403715    -2.259317206132     0.003086705699     1.007825032230
         H           -4.622692596285     1.048892793868    -0.001189294301     1.007825032230
         H            4.582568403715    -0.905845206132     0.001257705699     1.007825032230
         H            4.402256403715     1.607372793868    -0.002235294301     1.007825032230
         H            2.122342403715     2.634150793868    -0.003718294301     1.007825032230

  Basis Set: AUG-CC-PVTZ
    Blend: AUG-CC-PVTZ
  Basis Set: (AUG-CC-PVTZ AUX)
    Blend: AUG-CC-PVTZ-JKFIT
	 Reference Energy          =    -551.2415037086309439 [Eh]
	 Singles Energy            =      -0.0000000000000000 [Eh]
	 Same-Spin Energy          =      -0.6010370641134110 [Eh]
	 Opposite-Spin Energy      =      -1.8281565250025844 [Eh]
	 Correlation Energy        =      -2.4291935891159953 [Eh]
	 Total Energy              =    -553.6706972977469832 [Eh]

	 ================> DF-SCS-MP2 Energies <==================
	-----------------------------------------------------------
	 SCS Same-Spin Scale       =       0.3333333333333333 [-]
	 SCS Opposite-Spin Scale   =       1.2000000000000000 [-]
	 SCS Same-Spin Energy      =      -0.2003456880378036 [Eh]
	 SCS Opposite-Spin Energy  =      -2.1937878300031013 [Eh]
	 SCS Correlation Energy    =      -2.3941335180409049 [Eh]
	 SCS Total Energy          =    -553.6356372266718608 [Eh]
	-----------------------------------------------------------

  Dipole Moment: [D]
     X:     0.0073      Y:     0.3751      Z:    -0.0003     Total:     0.3752

*** Psi4 exiting successfully. Buy a developer a beer!
