                               Psi4 1.4a3.dev225

  ==> Input File <==

--------------------------------------------------------------------------
#psi4
#
memory 32 gb

molecule  {
0 1
  O        0.0894740    -1.2706490     0.0016280
  N        1.0961490     0.8320480    -0.0012430
  C       -1.1354060    -0.5925990     0.0007920
  C       -1.7725625    -0.2978048    -1.2590121
  C       -1.7497660    -0.3035760     1.2162340
  C        1.2195230    -0.4906020     0.0005970
  C       -3.0144240     0.2837480    -1.2099290
  C       -3.0137120     0.2881830     1.2093930
  C       -3.6464470     0.5845060    -0.0006310
  C        2.4408500    -1.1790020     0.0015830
  C        3.6030640    -0.4211020     0.0005590
  C        3.5068820     0.9758400    -0.0013820
  C        2.2403890     1.5483070    -0.0022070
  H       -1.2410120    -0.5552270    -2.1426030
  H       -1.2397720    -0.5473760     2.1441080
  H       -3.5056790     0.5103880    -2.1530410
  H       -3.5044150     0.5182820     2.1519550
  H        2.4499920    -2.2642250     0.0030920
  H       -4.6315180     1.0439850    -0.0011840
  H        4.5737430    -0.9107530     0.0012630
  H        4.3934310     1.6024650    -0.0022300
  H        2.1135170     2.6292430    -0.0037130
units angstrom
no_reorient  #important for SAPT in psi4, default
symmetry c1  #important for SAPT in psi4, default
}

set PROPERTIES_ORIGIN ["COM"]
properties('MP2/aug-cc-pvtz', properties = ['dipole'])
--------------------------------------------------------------------------

    Molecular point group: c1
  Charge       = 0
  Multiplicity = 1
  Basis Set: AUG-CC-PVTZ
    Blend: AUG-CC-PVTZ
  Basis Set: (AUG-CC-PVTZ AUX)
    Blend: AUG-CC-PVTZ-JKFIT

    Orbital Energies [Eh]
    ---------------------

    Doubly Occupied:

       1A    -20.601723     2A    -15.565971     3A    -11.345999
       4A    -11.301727     5A    -11.284501     6A    -11.267071
       7A    -11.242196     8A    -11.239243     9A    -11.238233
      10A    -11.236554    11A    -11.234796    12A    -11.232998
      13A    -11.232399    14A     -1.433592    15A     -1.255712
      16A     -1.145666    17A     -1.093637    18A     -1.039511
      19A     -1.020448    20A     -0.992613    21A     -0.879313
      22A     -0.861229    23A     -0.833390    24A     -0.805933
      25A     -0.738861    26A     -0.706203    27A     -0.682340
      28A     -0.669408    29A     -0.658256    30A     -0.628388
      31A     -0.614080    32A     -0.594004    33A     -0.593267
      34A     -0.582120    35A     -0.569594    36A     -0.536667
      37A     -0.521190    38A     -0.514437    39A     -0.494260
      40A     -0.478241    41A     -0.432505    42A     -0.390112
      43A     -0.341969    44A     -0.331436    45A     -0.322328

  @DF-RHF Final Energy:  -551.27915154746859

   => Energetics <=

    Nuclear Repulsion Energy =            708.2831133945436477
    One-Electron Energy =               -2153.5562883021834750
    Two-Electron Energy =                 893.9940233601711270
    Total Energy =                       -551.2791515474685866
  Basis Set: (AUG-CC-PVTZ AUX)
    Blend: AUG-CC-PVTZ-RI
    Molecular point group: c1

    Geometry (in Angstrom), charge = 0, multiplicity = 1:

       Center              X                  Y                   Z               Mass
    ------------   -----------------  -----------------  -----------------  -----------------
         O            0.087574599773    -1.259663497360     0.004678093821    15.994914619570
         N            1.094249599773     0.843033502640     0.001807093821    14.003074004430
         C           -1.137305400227    -0.581613497360     0.003842093821    12.000000000000
         C           -1.774461900227    -0.286819297360    -1.255962006179    12.000000000000
         C           -1.751665400227    -0.292590497360     1.219284093821    12.000000000000
         C            1.217623599773    -0.479616497360     0.003647093821    12.000000000000
         C           -3.016323400227     0.294733502640    -1.206878906179    12.000000000000
         C           -3.015611400227     0.299168502640     1.212443093821    12.000000000000
         C           -3.648346400227     0.595491502640     0.002419093821    12.000000000000
         C            2.438950599773    -1.168016497360     0.004633093821    12.000000000000
         C            3.601164599773    -0.410116497360     0.003609093821    12.000000000000
         C            3.504982599773     0.986825502640     0.001668093821    12.000000000000
         C            2.238489599773     1.559292502640     0.000843093821    12.000000000000
         H           -1.242911400227    -0.544241497360    -2.139552906179     1.007825032230
         H           -1.241671400227    -0.536390497360     2.147158093821     1.007825032230
         H           -3.507578400227     0.521373502640    -2.149990906179     1.007825032230
         H           -3.506314400227     0.529267502640     2.155005093821     1.007825032230
         H            2.448092599773    -2.253239497360     0.006142093821     1.007825032230
         H           -4.633417400227     1.054970502640     0.001866093821     1.007825032230
         H            4.571843599773    -0.899767497360     0.004313093821     1.007825032230
         H            4.391531599773     1.613450502640     0.000820093821     1.007825032230
         H            2.111617599773     2.640228502640    -0.000662906179     1.007825032230

  Basis Set: AUG-CC-PVTZ
    Blend: AUG-CC-PVTZ
  Basis Set: (AUG-CC-PVTZ AUX)
    Blend: AUG-CC-PVTZ-JKFIT
	 Reference Energy          =    -551.2791515474685866 [Eh]
	 Singles Energy            =      -0.0000000000000000 [Eh]
	 Same-Spin Energy          =      -0.5996022324791217 [Eh]
	 Opposite-Spin Energy      =      -1.8251034392183707 [Eh]
	 Correlation Energy        =      -2.4247056716974926 [Eh]
	 Total Energy              =    -553.7038572191660251 [Eh]

	 ================> DF-SCS-MP2 Energies <==================
	-----------------------------------------------------------
	 SCS Same-Spin Scale       =       0.3333333333333333 [-]
	 SCS Opposite-Spin Scale   =       1.2000000000000000 [-]
	 SCS Same-Spin Energy      =      -0.1998674108263739 [Eh]
	 SCS Opposite-Spin Energy  =      -2.1901241270620448 [Eh]
	 SCS Correlation Energy    =      -2.3899915378884189 [Eh]
	 SCS Total Energy          =    -553.6691430853569500 [Eh]
	-----------------------------------------------------------

  Dipole Moment: [D]
     X:     1.4566      Y:     0.2041      Z:     0.0072     Total:     1.4709

*** Psi4 exiting successfully. Buy a developer a beer!
