                               Psi4 1.4a3.dev225

  ==> Input File <==

--------------------------------------------------------------------------
#psi4
#
memory 32 gb

molecule  {
0 1
  O        0.0894740    -1.2706490     0.0016280
  N        1.0961490     0.8320480    -0.0012430
  C       -1.1354060    -0.5925990     0.0007920
  C       -1.7593088    -0.3039369    -1.2328064
  C       -1.7497660    -0.3035760     1.2162340
  C        1.2195230    -0.4906020     0.0005970
  C       -3.0144240     0.2837480    -1.2099290
  C       -3.0137120     0.2881830     1.2093930
  C       -3.6464470     0.5845060    -0.0006310
  C        2.4408500    -1.1790020     0.0015830
  C        3.6030640    -0.4211020     0.0005590
  C        3.5068820     0.9758400    -0.0013820
  C        2.2403890     1.5483070    -0.0022070
  H       -1.2410120    -0.5552270    -2.1426030
  H       -1.2397720    -0.5473760     2.1441080
  H       -3.5056790     0.5103880    -2.1530410
  H       -3.5044150     0.5182820     2.1519550
  H        2.4499920    -2.2642250     0.0030920
  H       -4.6315180     1.0439850    -0.0011840
  H        4.5737430    -0.9107530     0.0012630
  H        4.3934310     1.6024650    -0.0022300
  H        2.1135170     2.6292430    -0.0037130
units angstrom
no_reorient  #important for SAPT in psi4, default
symmetry c1  #important for SAPT in psi4, default
}

set PROPERTIES_ORIGIN ["COM"]
properties('MP2/aug-cc-pvtz', properties = ['dipole'])
--------------------------------------------------------------------------

    Molecular point group: c1
  Charge       = 0
  Multiplicity = 1
  Basis Set: AUG-CC-PVTZ
    Blend: AUG-CC-PVTZ
  Basis Set: (AUG-CC-PVTZ AUX)
    Blend: AUG-CC-PVTZ-JKFIT

    Orbital Energies [Eh]
    ---------------------

    Doubly Occupied:

       1A    -20.601097     2A    -15.565825     3A    -11.345783
       4A    -11.298680     5A    -11.284380     6A    -11.266933
       7A    -11.242016     8A    -11.238960     9A    -11.238088
      10A    -11.237819    11A    -11.234274    12A    -11.233478
      13A    -11.232668    14A     -1.433419    15A     -1.255615
      16A     -1.146940    17A     -1.093489    18A     -1.039907
      19A     -1.018515    20A     -0.994870    21A     -0.878865
      22A     -0.860860    23A     -0.834794    24A     -0.805904
      25A     -0.739468    26A     -0.706131    27A     -0.680501
      28A     -0.669058    29A     -0.658580    30A     -0.628280
      31A     -0.614422    32A     -0.594431    33A     -0.591983
      34A     -0.581131    35A     -0.569879    36A     -0.536577
      37A     -0.518493    38A     -0.514597    39A     -0.494938
      40A     -0.481472    41A     -0.432393    42A     -0.389979
      43A     -0.339845    44A     -0.331024    45A     -0.325632

  @DF-RHF Final Energy:  -551.28196358325579

   => Energetics <=

    Nuclear Repulsion Energy =            708.7561647578908151
    One-Electron Energy =               -2154.5122732961344809
    Two-Electron Energy =                 894.4741449549877643
    Total Energy =                       -551.2819635832557879
  Basis Set: (AUG-CC-PVTZ AUX)
    Blend: AUG-CC-PVTZ-RI
    Molecular point group: c1

    Geometry (in Angstrom), charge = 0, multiplicity = 1:

       Center              X                  Y                   Z               Mass
    ------------   -----------------  -----------------  -----------------  -----------------
         O            0.086644887523    -1.259233346648     0.002839832784    15.994914619570
         N            1.093319887523     0.843463653352    -0.000031167216    14.003074004430
         C           -1.138235112477    -0.581183346648     0.002003832784    12.000000000000
         C           -1.762137912477    -0.292521246648    -1.231594567216    12.000000000000
         C           -1.752595112477    -0.292160346648     1.217445832784    12.000000000000
         C            1.216693887523    -0.479186346648     0.001808832784    12.000000000000
         C           -3.017253112477     0.295163653352    -1.208717167216    12.000000000000
         C           -3.016541112477     0.299598653352     1.210604832784    12.000000000000
         C           -3.649276112477     0.595921653352     0.000580832784    12.000000000000
         C            2.438020887523    -1.167586346648     0.002794832784    12.000000000000
         C            3.600234887523    -0.409686346648     0.001770832784    12.000000000000
         C            3.504052887523     0.987255653352    -0.000170167216    12.000000000000
         C            2.237559887523     1.559722653352    -0.000995167216    12.000000000000
         H           -1.243841112477    -0.543811346648    -2.141391167216     1.007825032230
         H           -1.242601112477    -0.535960346648     2.145319832784     1.007825032230
         H           -3.508508112477     0.521803653352    -2.151829167216     1.007825032230
         H           -3.507244112477     0.529697653352     2.153166832784     1.007825032230
         H            2.447162887523    -2.252809346648     0.004303832784     1.007825032230
         H           -4.634347112477     1.055400653352     0.000027832784     1.007825032230
         H            4.570913887523    -0.899337346648     0.002474832784     1.007825032230
         H            4.390601887523     1.613880653352    -0.001018167216     1.007825032230
         H            2.110687887523     2.640658653352    -0.002501167216     1.007825032230

  Basis Set: AUG-CC-PVTZ
    Blend: AUG-CC-PVTZ
  Basis Set: (AUG-CC-PVTZ AUX)
    Blend: AUG-CC-PVTZ-JKFIT
	 Reference Energy          =    -551.2819635832557879 [Eh]
	 Singles Energy            =      -0.0000000000000000 [Eh]
	 Same-Spin Energy          =      -0.5996199035494714 [Eh]
	 Opposite-Spin Energy      =      -1.8248741107989552 [Eh]
	 Correlation Energy        =      -2.4244940143484266 [Eh]
	 Total Energy              =    -553.7064575976041851 [Eh]

	 ================> DF-SCS-MP2 Energies <==================
	-----------------------------------------------------------
	 SCS Same-Spin Scale       =       0.3333333333333333 [-]
	 SCS Opposite-Spin Scale   =       1.2000000000000000 [-]
	 SCS Same-Spin Energy      =      -0.1998733011831571 [Eh]
	 SCS Opposite-Spin Energy  =      -2.1898489329587463 [Eh]
	 SCS Correlation Energy    =      -2.3897222341419035 [Eh]
	 SCS Total Energy          =    -553.6716858173977016 [Eh]
	-----------------------------------------------------------

  Dipole Moment: [D]
     X:     1.4307      Y:     0.2113      Z:     0.0030     Total:     1.4462

*** Psi4 exiting successfully. Buy a developer a beer!
