                               Psi4 1.3.2 release

  ==> Input File <==

--------------------------------------------------------------------------
#psi4
#
memory 32 gb

molecule  {
0 1
  O        0.0894740    -1.2706490     0.0016280
  N        1.0961490     0.8320480    -0.0012430
  C       -1.1354060    -0.5925990     0.0007920
  C       -1.7504730    -0.3080250    -1.2153360
  C       -1.7497660    -0.3035760     1.2162340
  C        1.3571018    -0.4704603     0.0005727
  C       -3.0144240     0.2837480    -1.2099290
  C       -3.0137120     0.2881830     1.2093930
  C       -3.6464470     0.5845060    -0.0006310
  C        2.4408500    -1.1790020     0.0015830
  C        3.6030640    -0.4211020     0.0005590
  C        3.5068820     0.9758400    -0.0013820
  C        2.2403890     1.5483070    -0.0022070
  H       -1.2410120    -0.5552270    -2.1426030
  H       -1.2397720    -0.5473760     2.1441080
  H       -3.5056790     0.5103880    -2.1530410
  H       -3.5044150     0.5182820     2.1519550
  H        2.4499920    -2.2642250     0.0030920
  H       -4.6315180     1.0439850    -0.0011840
  H        4.5737430    -0.9107530     0.0012630
  H        4.3934310     1.6024650    -0.0022300
  H        2.1135170     2.6292430    -0.0037130
units angstrom
no_reorient  #important for SAPT in psi4, default
symmetry c1  #important for SAPT in psi4, default
}

set PROPERTIES_ORIGIN ["COM"]
properties('MP2/aug-cc-pvtz', properties = ['dipole'])
--------------------------------------------------------------------------

    Molecular point group: c1
  Charge       = 0
  Multiplicity = 1
  Basis Set: AUG-CC-PVTZ
    Blend: AUG-CC-PVTZ
  Basis Set: (AUG-CC-PVTZ AUX)
    Blend: AUG-CC-PVTZ-JKFIT

    Orbital Energies [Eh]
    ---------------------

    Doubly Occupied:

       1A    -20.572512     2A    -15.579488     3A    -11.339218
       4A    -11.293885     5A    -11.284727     6A    -11.278872
       7A    -11.248311     8A    -11.240809     9A    -11.231450
      10A    -11.231353    11A    -11.224868    12A    -11.223995
      13A    -11.223967    14A     -1.380661    15A     -1.270787
      16A     -1.137597    17A     -1.116018    18A     -1.050580
      19A     -1.008815    20A     -0.988589    21A     -0.890695
      22A     -0.856117    23A     -0.826094    24A     -0.800782
      25A     -0.733315    26A     -0.702123    27A     -0.680190
      28A     -0.661320    29A     -0.641978    30A     -0.638395
      31A     -0.605369    32A     -0.593441    33A     -0.584943
      34A     -0.577658    35A     -0.566741    36A     -0.534712
      37A     -0.511291    38A     -0.504133    39A     -0.480106
      40A     -0.469528    41A     -0.455250    42A     -0.398601
      43A     -0.354624    44A     -0.329522    45A     -0.316378

  @DF-RHF Final Energy:  -551.25662505743219

   => Energetics <=

    Nuclear Repulsion Energy =            708.5682051449732626
    One-Electron Energy =               -2154.3700469186960618
    Two-Electron Energy =                 894.5452167162906107
    Total Energy =                       -551.2566250574321884
  Basis Set: (AUG-CC-PVTZ AUX)
    Blend: AUG-CC-PVTZ-RI
    Molecular point group: c1

    Geometry (in Angstrom), charge = 0, multiplicity = 1:

       Center              X                  Y                   Z               Mass
    ------------   -----------------  -----------------  -----------------  -----------------
         O            0.076374287826    -1.260359464530     0.001616034684    15.994914619570
         N            1.083049287826     0.842337535470    -0.001254965316    14.003074004430
         C           -1.148505712174    -0.582309464530     0.000780034684    12.000000000000
         C           -1.763572712174    -0.297735464530    -1.215347965316    12.000000000000
         C           -1.762865712174    -0.293286464530     1.216222034684    12.000000000000
         C            1.344002087826    -0.460170764530     0.000560734684    12.000000000000
         C           -3.027523712174     0.294037535470    -1.209940965316    12.000000000000
         C           -3.026811712174     0.298472535470     1.209381034684    12.000000000000
         C           -3.659546712174     0.594795535470    -0.000642965316    12.000000000000
         C            2.427750287826    -1.168712464530     0.001571034684    12.000000000000
         C            3.589964287826    -0.410812464530     0.000547034684    12.000000000000
         C            3.493782287826     0.986129535470    -0.001393965316    12.000000000000
         C            2.227289287826     1.558596535470    -0.002218965316    12.000000000000
         H           -1.254111712174    -0.544937464530    -2.142614965316     1.007825032230
         H           -1.252871712174    -0.537086464530     2.144096034684     1.007825032230
         H           -3.518778712174     0.520677535470    -2.153052965316     1.007825032230
         H           -3.517514712174     0.528571535470     2.151943034684     1.007825032230
         H            2.436892287826    -2.253935464530     0.003080034684     1.007825032230
         H           -4.644617712174     1.054274535470    -0.001195965316     1.007825032230
         H            4.560643287826    -0.900463464530     0.001251034684     1.007825032230
         H            4.380331287826     1.612754535470    -0.002241965316     1.007825032230
         H            2.100417287826     2.639532535470    -0.003724965316     1.007825032230

  Basis Set: AUG-CC-PVTZ
    Blend: AUG-CC-PVTZ
  Basis Set: (AUG-CC-PVTZ AUX)
    Blend: AUG-CC-PVTZ-JKFIT
	 Reference Energy          =    -551.2566250574321884 [Eh]
	 Singles Energy            =      -0.0000000000000000 [Eh]
	 Same-Spin Energy          =      -0.6007994226799609 [Eh]
	 Opposite-Spin Energy      =      -1.8272482258336491 [Eh]
	 Correlation Energy        =      -2.4280476485136102 [Eh]
	 Total Energy              =    -553.6846727059457862 [Eh]

	 ================> DF-SCS-MP2 Energies <==================
	-----------------------------------------------------------
	 SCS Same-Spin Scale       =       0.3333333333333333 [-]
	 SCS Opposite-Spin Scale   =       1.2000000000000000 [-]
	 SCS Same-Spin Energy      =      -0.2002664742266536 [Eh]
	 SCS Opposite-Spin Energy  =      -2.1926978710003788 [Eh]
	 SCS Correlation Energy    =      -2.3929643452270324 [Eh]
	 SCS Total Energy          =    -553.6495894026592168 [Eh]
	-----------------------------------------------------------

  Dipole Moment: [D]
     X:     2.7004      Y:     0.5786      Z:    -0.0006     Total:     2.7616

*** Psi4 exiting successfully. Buy a developer a beer!
