                               Psi4 1.3.2 release

  ==> Input File <==

--------------------------------------------------------------------------
#psi4
#
memory 32 gb

molecule  {
0 1
  O        0.0894740    -1.2706490     0.0016280
  N        1.0961490     0.8320480    -0.0012430
  C       -1.1354060    -0.5925990     0.0007920
  C       -1.7504730    -0.3080250    -1.2153360
  C       -1.7497660    -0.3035760     1.2162340
  C        1.2009481    -0.2914666     0.0003200
  C       -3.0144240     0.2837480    -1.2099290
  C       -3.0137120     0.2881830     1.2093930
  C       -3.6464470     0.5845060    -0.0006310
  C        2.4408500    -1.1790020     0.0015830
  C        3.6030640    -0.4211020     0.0005590
  C        3.5068820     0.9758400    -0.0013820
  C        2.2403890     1.5483070    -0.0022070
  H       -1.2410120    -0.5552270    -2.1426030
  H       -1.2397720    -0.5473760     2.1441080
  H       -3.5056790     0.5103880    -2.1530410
  H       -3.5044150     0.5182820     2.1519550
  H        2.4499920    -2.2642250     0.0030920
  H       -4.6315180     1.0439850    -0.0011840
  H        4.5737430    -0.9107530     0.0012630
  H        4.3934310     1.6024650    -0.0022300
  H        2.1135170     2.6292430    -0.0037130
units angstrom
no_reorient  #important for SAPT in psi4, default
symmetry c1  #important for SAPT in psi4, default
}

set PROPERTIES_ORIGIN ["COM"]
properties('MP2/aug-cc-pvtz', properties = ['dipole'])
--------------------------------------------------------------------------

    Molecular point group: c1
  Charge       = 0
  Multiplicity = 1
  Basis Set: AUG-CC-PVTZ
    Blend: AUG-CC-PVTZ
  Basis Set: (AUG-CC-PVTZ AUX)
    Blend: AUG-CC-PVTZ-JKFIT

    Orbital Energies [Eh]
    ---------------------

    Doubly Occupied:

       1A    -20.581438     2A    -15.561040     3A    -11.336369
       4A    -11.291161     5A    -11.285386     6A    -11.263471
       7A    -11.258905     8A    -11.249347     9A    -11.235086
      10A    -11.234992    11A    -11.228323    12A    -11.227769
      13A    -11.227737    14A     -1.405132    15A     -1.326848
      16A     -1.140575    17A     -1.109312    18A     -1.028774
      19A     -1.012649    20A     -0.991500    21A     -0.892922
      22A     -0.850878    23A     -0.830422    24A     -0.796781
      25A     -0.732631    26A     -0.715588    27A     -0.677546
      28A     -0.665154    29A     -0.651195    30A     -0.627285
      31A     -0.607107    32A     -0.602003    33A     -0.595638
      34A     -0.584096    35A     -0.567044    36A     -0.547704
      37A     -0.516874    38A     -0.507069    39A     -0.488557
      40A     -0.473214    41A     -0.432696    42A     -0.418680
      43A     -0.335301    44A     -0.331347    45A     -0.322074

  @DF-RHF Final Energy:  -551.22186535249409

   => Energetics <=

    Nuclear Repulsion Energy =            710.6184448366092283
    One-Electron Energy =               -2158.1493818435724279
    Two-Electron Energy =                 896.3090716544689940
    Total Energy =                       -551.2218653524940919
  Basis Set: (AUG-CC-PVTZ AUX)
    Blend: AUG-CC-PVTZ-RI
    Molecular point group: c1

    Geometry (in Angstrom), charge = 0, multiplicity = 1:

       Center              X                  Y                   Z               Mass
    ------------   -----------------  -----------------  -----------------  -----------------
         O            0.087328059812    -1.272915402537     0.001633760925    15.994914619570
         N            1.094003059812     0.829781597463    -0.001237239075    14.003074004430
         C           -1.137551940188    -0.594865402537     0.000797760925    12.000000000000
         C           -1.752618940188    -0.310291402537    -1.215330239075    12.000000000000
         C           -1.751911940188    -0.305842402537     1.216239760925    12.000000000000
         C            1.198802159812    -0.293733002537     0.000325760925    12.000000000000
         C           -3.016569940188     0.281481597463    -1.209923239075    12.000000000000
         C           -3.015857940188     0.285916597463     1.209398760925    12.000000000000
         C           -3.648592940188     0.582239597463    -0.000625239075    12.000000000000
         C            2.438704059812    -1.181268402537     0.001588760925    12.000000000000
         C            3.600918059812    -0.423368402537     0.000564760925    12.000000000000
         C            3.504736059812     0.973573597463    -0.001376239075    12.000000000000
         C            2.238243059812     1.546040597463    -0.002201239075    12.000000000000
         H           -1.243157940188    -0.557493402537    -2.142597239075     1.007825032230
         H           -1.241917940188    -0.549642402537     2.144113760925     1.007825032230
         H           -3.507824940188     0.508121597463    -2.153035239075     1.007825032230
         H           -3.506560940188     0.516015597463     2.151960760925     1.007825032230
         H            2.447846059812    -2.266491402537     0.003097760925     1.007825032230
         H           -4.633663940188     1.041718597463    -0.001178239075     1.007825032230
         H            4.571597059812    -0.913019402537     0.001268760925     1.007825032230
         H            4.391285059812     1.600198597463    -0.002224239075     1.007825032230
         H            2.111371059812     2.626976597463    -0.003707239075     1.007825032230

  Basis Set: AUG-CC-PVTZ
    Blend: AUG-CC-PVTZ
  Basis Set: (AUG-CC-PVTZ AUX)
    Blend: AUG-CC-PVTZ-JKFIT
	 Reference Energy          =    -551.2218653524940919 [Eh]
	 Singles Energy            =      -0.0000000000000000 [Eh]
	 Same-Spin Energy          =      -0.5977054017756096 [Eh]
	 Opposite-Spin Energy      =      -1.8252992643254644 [Eh]
	 Correlation Energy        =      -2.4230046661010740 [Eh]
	 Total Energy              =    -553.6448700185951566 [Eh]

	 ================> DF-SCS-MP2 Energies <==================
	-----------------------------------------------------------
	 SCS Same-Spin Scale       =       0.3333333333333333 [-]
	 SCS Opposite-Spin Scale   =       1.2000000000000000 [-]
	 SCS Same-Spin Energy      =      -0.1992351339252032 [Eh]
	 SCS Opposite-Spin Energy  =      -2.1903591171905572 [Eh]
	 SCS Correlation Energy    =      -2.3895942511157604 [Eh]
	 SCS Total Energy          =    -553.6114596036098874 [Eh]
	-----------------------------------------------------------

  Dipole Moment: [D]
     X:     2.1103      Y:     0.7127      Z:    -0.0008     Total:     2.2274

*** Psi4 exiting successfully. Buy a developer a beer!
