                               Psi4 1.4a3.dev225

  ==> Input File <==

--------------------------------------------------------------------------
#psi4
#
memory 32 gb

molecule  {
0 1
  O        0.0894740    -1.2706490     0.0016280
  N        1.0961490     0.8320480    -0.0012430
  C       -1.1354060    -0.5925990     0.0007920
  C       -1.7504730    -0.3080250    -1.2153360
  C       -1.7497660    -0.3035760     1.2162340
  C        1.2195230    -0.4906020     0.0005970
  C       -3.0144240     0.2837480    -1.2099290
  C       -3.0137120     0.2881830     1.2093930
  C       -3.6464470     0.5845060    -0.0006310
  C        2.4408500    -1.1790020     0.0015830
  C        3.6030640    -0.4211020     0.0005590
  C        3.5068820     0.9758400    -0.0013820
  C        2.2827704     1.5748365    -0.0022427
  H       -1.2410120    -0.5552270    -2.1426030
  H       -1.2397720    -0.5473760     2.1441080
  H       -3.5056790     0.5103880    -2.1530410
  H       -3.5044150     0.5182820     2.1519550
  H        2.4499920    -2.2642250     0.0030920
  H       -4.6315180     1.0439850    -0.0011840
  H        4.5737430    -0.9107530     0.0012630
  H        4.3934310     1.6024650    -0.0022300
  H        2.1135170     2.6292430    -0.0037130
units angstrom
no_reorient  #important for SAPT in psi4, default
symmetry c1  #important for SAPT in psi4, default
}

set PROPERTIES_ORIGIN ["COM"]
properties('MP2/aug-cc-pvtz', properties = ['dipole'])
--------------------------------------------------------------------------

    Molecular point group: c1
  Charge       = 0
  Multiplicity = 1
  Basis Set: AUG-CC-PVTZ
    Blend: AUG-CC-PVTZ
  Basis Set: (AUG-CC-PVTZ AUX)
    Blend: AUG-CC-PVTZ-JKFIT

    Orbital Energies [Eh]
    ---------------------

    Doubly Occupied:

       1A    -20.600289     2A    -15.566013     3A    -11.344736
       4A    -11.295956     5A    -11.282735     6A    -11.268204
       7A    -11.243910     8A    -11.238262     9A    -11.238155
      10A    -11.237155    11A    -11.233232    12A    -11.233227
      13A    -11.232304    14A     -1.432585    15A     -1.242926
      16A     -1.147141    17A     -1.091895    18A     -1.042948
      19A     -1.016674    20A     -0.997977    21A     -0.882173
      22A     -0.856405    23A     -0.835362    24A     -0.803981
      25A     -0.739809    26A     -0.704880    27A     -0.678142
      28A     -0.668076    29A     -0.658126    30A     -0.632553
      31A     -0.616170    32A     -0.595172    33A     -0.590493
      34A     -0.578031    35A     -0.569947    36A     -0.533625
      37A     -0.515256    38A     -0.513253    39A     -0.494528
      40A     -0.482495    41A     -0.432795    42A     -0.384495
      43A     -0.340162    44A     -0.334106    45A     -0.327246

  @DF-RHF Final Energy:  -551.27869050060553

   => Energetics <=

    Nuclear Repulsion Energy =            708.2939305454111718
    One-Electron Energy =               -2153.6380284573274366
    Two-Electron Energy =                 894.0654074113108436
    Total Energy =                       -551.2786905006055349
  Basis Set: (AUG-CC-PVTZ AUX)
    Blend: AUG-CC-PVTZ-RI
    Molecular point group: c1

    Geometry (in Angstrom), charge = 0, multiplicity = 1:

       Center              X                  Y                   Z               Mass
    ------------   -----------------  -----------------  -----------------  -----------------
         O            0.083052135442    -1.260807551925     0.001616834364    15.994914619570
         N            1.089727135442     0.841889448075    -0.001254165636    14.003074004430
         C           -1.141827864558    -0.582757551925     0.000780834364    12.000000000000
         C           -1.756894864558    -0.298183551925    -1.215347165636    12.000000000000
         C           -1.756187864558    -0.293734551925     1.216222834364    12.000000000000
         C            1.213101135442    -0.480760551925     0.000585834364    12.000000000000
         C           -3.020845864558     0.293589448075    -1.209940165636    12.000000000000
         C           -3.020133864558     0.298024448075     1.209381834364    12.000000000000
         C           -3.652868864558     0.594347448075    -0.000642165636    12.000000000000
         C            2.434428135442    -1.169160551925     0.001571834364    12.000000000000
         C            3.596642135442    -0.411260551925     0.000547834364    12.000000000000
         C            3.500460135442     0.985681448075    -0.001393165636    12.000000000000
         C            2.276348535442     1.584677948075    -0.002253865636    12.000000000000
         H           -1.247433864558    -0.545385551925    -2.142614165636     1.007825032230
         H           -1.246193864558    -0.537534551925     2.144096834364     1.007825032230
         H           -3.512100864558     0.520229448075    -2.153052165636     1.007825032230
         H           -3.510836864558     0.528123448075     2.151943834364     1.007825032230
         H            2.443570135442    -2.254383551925     0.003080834364     1.007825032230
         H           -4.637939864558     1.053826448075    -0.001195165636     1.007825032230
         H            4.567321135442    -0.900911551925     0.001251834364     1.007825032230
         H            4.387009135442     1.612306448075    -0.002241165636     1.007825032230
         H            2.107095135442     2.639084448075    -0.003724165636     1.007825032230

  Basis Set: AUG-CC-PVTZ
    Blend: AUG-CC-PVTZ
  Basis Set: (AUG-CC-PVTZ AUX)
    Blend: AUG-CC-PVTZ-JKFIT
	 Reference Energy          =    -551.2786905006055349 [Eh]
	 Singles Energy            =      -0.0000000000000000 [Eh]
	 Same-Spin Energy          =      -0.5996422772021914 [Eh]
	 Opposite-Spin Energy      =      -1.8257512416315729 [Eh]
	 Correlation Energy        =      -2.4253935188337641 [Eh]
	 Total Energy              =    -553.7040840194392786 [Eh]

	 ================> DF-SCS-MP2 Energies <==================
	-----------------------------------------------------------
	 SCS Same-Spin Scale       =       0.3333333333333333 [-]
	 SCS Opposite-Spin Scale   =       1.2000000000000000 [-]
	 SCS Same-Spin Energy      =      -0.1998807590673971 [Eh]
	 SCS Opposite-Spin Energy  =      -2.1909014899578874 [Eh]
	 SCS Correlation Energy    =      -2.3907822490252846 [Eh]
	 SCS Total Energy          =    -553.6694727496308133 [Eh]
	-----------------------------------------------------------

  Dipole Moment: [D]
     X:     1.4898      Y:     0.2274      Z:    -0.0001     Total:     1.5070

*** Psi4 exiting successfully. Buy a developer a beer!
