                               Psi4 1.3.2 release

  ==> Input File <==

--------------------------------------------------------------------------
#psi4
#
memory 32 gb

molecule  {
0 1
  O        0.0878021    -1.2719685    -0.0471933
  N        1.0961490     0.8320480    -0.0012430
  C       -1.1354060    -0.5925990     0.0007920
  C       -1.7504730    -0.3080250    -1.2153360
  C       -1.7497660    -0.3035760     1.2162340
  C        1.2195230    -0.4906020     0.0005970
  C       -3.0144240     0.2837480    -1.2099290
  C       -3.0137120     0.2881830     1.2093930
  C       -3.6464470     0.5845060    -0.0006310
  C        2.4408500    -1.1790020     0.0015830
  C        3.6030640    -0.4211020     0.0005590
  C        3.5068820     0.9758400    -0.0013820
  C        2.2403890     1.5483070    -0.0022070
  H       -1.2410120    -0.5552270    -2.1426030
  H       -1.2397720    -0.5473760     2.1441080
  H       -3.5056790     0.5103880    -2.1530410
  H       -3.5044150     0.5182820     2.1519550
  H        2.4499920    -2.2642250     0.0030920
  H       -4.6315180     1.0439850    -0.0011840
  H        4.5737430    -0.9107530     0.0012630
  H        4.3934310     1.6024650    -0.0022300
  H        2.1135170     2.6292430    -0.0037130
units angstrom
no_reorient  #important for SAPT in psi4, default
symmetry c1  #important for SAPT in psi4, default
}

set PROPERTIES_ORIGIN ["COM"]
properties('MP2/aug-cc-pvtz', properties = ['dipole'])
--------------------------------------------------------------------------

    Molecular point group: c1
  Charge       = 0
  Multiplicity = 1
  Basis Set: AUG-CC-PVTZ
    Blend: AUG-CC-PVTZ
  Basis Set: (AUG-CC-PVTZ AUX)
    Blend: AUG-CC-PVTZ-JKFIT

    Orbital Energies [Eh]
    ---------------------

    Doubly Occupied:

       1A    -20.600559     2A    -15.566062     3A    -11.345797
       4A    -11.296231     5A    -11.284468     6A    -11.266991
       7A    -11.242165     8A    -11.239107     9A    -11.238274
      10A    -11.238205    11A    -11.234658    12A    -11.232733
      13A    -11.232529    14A     -1.432248    15A     -1.255780
      16A     -1.147677    17A     -1.093563    18A     -1.040220
      19A     -1.017111    20A     -0.996328    21A     -0.878444
      22A     -0.860574    23A     -0.835736    24A     -0.805673
      25A     -0.739446    26A     -0.706063    27A     -0.679308
      28A     -0.668749    29A     -0.658527    30A     -0.628323
      31A     -0.614635    32A     -0.594985    33A     -0.591108
      34A     -0.579795    35A     -0.569992    36A     -0.536669
      37A     -0.517440    38A     -0.513660    39A     -0.495280
      40A     -0.483028    41A     -0.432456    42A     -0.390031
      43A     -0.338673    44A     -0.331215    45A     -0.327367

  @DF-RHF Final Energy:  -551.28212562481360

   => Energetics <=

    Nuclear Repulsion Energy =            709.0113275019357388
    One-Electron Energy =               -2155.0311390272272547
    Two-Electron Energy =                 894.7376859004779135
    Total Energy =                       -551.2821256248136024
  Basis Set: (AUG-CC-PVTZ AUX)
    Blend: AUG-CC-PVTZ-RI
    Molecular point group: c1

    Geometry (in Angstrom), charge = 0, multiplicity = 1:

       Center              X                  Y                   Z               Mass
    ------------   -----------------  -----------------  -----------------  -----------------
         O            0.084509502181    -1.260142703780    -0.042642173234    15.994914619570
         N            1.092856402181     0.843873796220     0.003308126766    14.003074004430
         C           -1.138698597819    -0.580773203780     0.005343126766    12.000000000000
         C           -1.753765597819    -0.296199203780    -1.210784873234    12.000000000000
         C           -1.753058597819    -0.291750203780     1.220785126766    12.000000000000
         C            1.216230402181    -0.478776203780     0.005148126766    12.000000000000
         C           -3.017716597819     0.295573796220    -1.205377873234    12.000000000000
         C           -3.017004597819     0.300008796220     1.213944126766    12.000000000000
         C           -3.649739597819     0.596331796220     0.003920126766    12.000000000000
         C            2.437557402181    -1.167176203780     0.006134126766    12.000000000000
         C            3.599771402181    -0.409276203780     0.005110126766    12.000000000000
         C            3.503589402181     0.987665796220     0.003169126766    12.000000000000
         C            2.237096402181     1.560132796220     0.002344126766    12.000000000000
         H           -1.244304597819    -0.543401203780    -2.138051873234     1.007825032230
         H           -1.243064597819    -0.535550203780     2.148659126766     1.007825032230
         H           -3.508971597819     0.522213796220    -2.148489873234     1.007825032230
         H           -3.507707597819     0.530107796220     2.156506126766     1.007825032230
         H            2.446699402181    -2.252399203780     0.007643126766     1.007825032230
         H           -4.634810597819     1.055810796220     0.003367126766     1.007825032230
         H            4.570450402181    -0.898927203780     0.005814126766     1.007825032230
         H            4.390138402181     1.614290796220     0.002321126766     1.007825032230
         H            2.110224402181     2.641068796220     0.000838126766     1.007825032230

  Basis Set: AUG-CC-PVTZ
    Blend: AUG-CC-PVTZ
  Basis Set: (AUG-CC-PVTZ AUX)
    Blend: AUG-CC-PVTZ-JKFIT
	 Reference Energy          =    -551.2821256248136024 [Eh]
	 Singles Energy            =      -0.0000000000000000 [Eh]
	 Same-Spin Energy          =      -0.5996702116447711 [Eh]
	 Opposite-Spin Energy      =      -1.8249067544444844 [Eh]
	 Correlation Energy        =      -2.4245769660892553 [Eh]
	 Total Energy              =    -553.7067025909028644 [Eh]

	 ================> DF-SCS-MP2 Energies <==================
	-----------------------------------------------------------
	 SCS Same-Spin Scale       =       0.3333333333333333 [-]
	 SCS Opposite-Spin Scale   =       1.2000000000000000 [-]
	 SCS Same-Spin Energy      =      -0.1998900705482570 [Eh]
	 SCS Opposite-Spin Energy  =      -2.1898881053333810 [Eh]
	 SCS Correlation Energy    =      -2.3897781758816379 [Eh]
	 SCS Total Energy          =    -553.6719038006951905 [Eh]
	-----------------------------------------------------------

  Dipole Moment: [D]
     X:     1.4386      Y:     0.2239      Z:     0.0527     Total:     1.4569

*** Psi4 exiting successfully. Buy a developer a beer!
