                               Psi4 1.3.2 release

  ==> Input File <==

--------------------------------------------------------------------------
#psi4
#
memory 32 gb

molecule  {
0 1
  N       -0.4697210     1.1445100    -0.2216410
  N        1.7892250     1.2839290     0.3484630
  C       -1.6240620     0.3182020    -0.0704420
  C        0.7850350     0.5381570    -0.1399480
  C       -0.5952140     2.4946130     0.3294290
  C        1.0287375    -0.6993593    -0.8139858
  C        3.3308620    -0.5454650    -0.0717700
  C       -1.7342750    -0.5947120     0.9884560
  C       -2.6794440     0.4585720    -0.9790390
  C        2.2640650    -1.3032160    -0.5830550
  C        3.0220600     0.7400440     0.3662130
  C       -2.8869950    -1.3690860     1.1220740
  C       -3.8377830    -0.3053550    -0.8293160
  C       -3.9434210    -1.2230030     0.2186750
  C        4.7300730    -1.0916580    -0.0030050
  H        0.1601300    -1.3363870    -1.0489480
  H       -0.4605330     2.5122530     1.4190480
  H       -1.5934070     2.8602250     0.0818210
  H        0.1591150     3.1409490    -0.1188450
  H       -0.9140430    -0.6937920     1.6961740
  H       -2.5719260     1.1603340    -1.8029750
  H        2.4420680    -2.3104690    -0.9583480
  H        3.8063450     1.3842980     0.7658560
  H       -2.9675220    -2.0774950     1.9434440
  H       -4.6536710    -0.1926670    -1.5394220
  H        5.0860610    -1.3967900    -0.9923270
  H        5.4219950    -0.3393960     0.3861000
  H        4.7833880    -1.9677830     0.6515600
  H       -4.8424050    -1.8242580     0.3291710
units angstrom
no_reorient  #important for SAPT in psi4, default
symmetry c1  #important for SAPT in psi4, default
}

set PROPERTIES_ORIGIN ["COM"]
properties('MP2/aug-cc-pvtz', properties = ['dipole'])
--------------------------------------------------------------------------

    Molecular point group: c1
  Charge       = 0
  Multiplicity = 1
  Basis Set: AUG-CC-PVTZ
    Blend: AUG-CC-PVTZ
  Basis Set: (AUG-CC-PVTZ AUX)
    Blend: AUG-CC-PVTZ-JKFIT

    Orbital Energies [Eh]
    ---------------------

    Doubly Occupied:

       1A    -15.573058     2A    -15.549308     3A    -11.310863
       4A    -11.275987     5A    -11.267210     6A    -11.252343
       7A    -11.245287     8A    -11.242576     9A    -11.242228
      10A    -11.238448    11A    -11.238266    12A    -11.236993
      13A    -11.231738    14A    -11.230657    15A    -11.225473
      16A     -1.289969    17A     -1.217768    18A     -1.142657
      19A     -1.089628    20A     -1.035666    21A     -1.019115
      22A     -1.008894    23A     -0.948993    24A     -0.907852
      25A     -0.844963    26A     -0.839500    27A     -0.829598
      28A     -0.784736    29A     -0.723865    30A     -0.685416
      31A     -0.672133    32A     -0.649117    33A     -0.636904
      34A     -0.618654    35A     -0.608026    36A     -0.594495
      37A     -0.588545    38A     -0.582746    39A     -0.577449
      40A     -0.561275    41A     -0.543391    42A     -0.533108
      43A     -0.523266    44A     -0.513250    45A     -0.507494
      46A     -0.500236    47A     -0.498315    48A     -0.416859
      49A     -0.410230    50A     -0.372951    51A     -0.343181
      52A     -0.338720    53A     -0.287563

  @DF-RHF Final Energy:  -609.52229113826218

   => Energetics <=

    Nuclear Repulsion Energy =            918.5491642240849615
    One-Electron Energy =               -2648.9289900356288854
    Two-Electron Energy =                1120.8575346732816342
    Total Energy =                       -609.5222911382622897
  Basis Set: (AUG-CC-PVTZ AUX)
    Blend: AUG-CC-PVTZ-RI
    Molecular point group: c1

    Geometry (in Angstrom), charge = 0, multiplicity = 1:

       Center              X                  Y                   Z               Mass
    ------------   -----------------  -----------------  -----------------  -----------------
         N           -0.452955742580     1.134773372567    -0.206528606445    14.003074004430
         N            1.805990257420     1.274192372567     0.363575393555    14.003074004430
         C           -1.607296742580     0.308465372567    -0.055329606445    12.000000000000
         C            0.801800257420     0.528420372567    -0.124835606445    12.000000000000
         C           -0.578448742580     2.484876372567     0.344541393555    12.000000000000
         C            1.045502757420    -0.709095927433    -0.798873406445    12.000000000000
         C            3.347627257420    -0.555201627433    -0.056657606445    12.000000000000
         C           -1.717509742580    -0.604448627433     1.003568393555    12.000000000000
         C           -2.662678742580     0.448835372567    -0.963926606445    12.000000000000
         C            2.280830257420    -1.312952627433    -0.567942606445    12.000000000000
         C            3.038825257420     0.730307372567     0.381325393555    12.000000000000
         C           -2.870229742580    -1.378822627433     1.137186393555    12.000000000000
         C           -3.821017742580    -0.315091627433    -0.814203606445    12.000000000000
         C           -3.926655742580    -1.232739627433     0.233787393555    12.000000000000
         C            4.746838257420    -1.101394627433     0.012107393555    12.000000000000
         H            0.176895257420    -1.346123627433    -1.033835606445     1.007825032230
         H           -0.443767742580     2.502516372567     1.434160393555     1.007825032230
         H           -1.576641742580     2.850488372567     0.096933393555     1.007825032230
         H            0.175880257420     3.131212372567    -0.103732606445     1.007825032230
         H           -0.897277742580    -0.703528627433     1.711286393555     1.007825032230
         H           -2.555160742580     1.150597372567    -1.787862606445     1.007825032230
         H            2.458833257420    -2.320205627433    -0.943235606445     1.007825032230
         H            3.823110257420     1.374561372567     0.780968393555     1.007825032230
         H           -2.950756742580    -2.087231627433     1.958556393555     1.007825032230
         H           -4.636905742580    -0.202403627433    -1.524309606445     1.007825032230
         H            5.102826257420    -1.406526627433    -0.977214606445     1.007825032230
         H            5.438760257420    -0.349132627433     0.401212393555     1.007825032230
         H            4.800153257420    -1.977519627433     0.666672393555     1.007825032230
         H           -4.825639742580    -1.833994627433     0.344283393555     1.007825032230

  Basis Set: AUG-CC-PVTZ
    Blend: AUG-CC-PVTZ
  Basis Set: (AUG-CC-PVTZ AUX)
    Blend: AUG-CC-PVTZ-JKFIT
	 Reference Energy          =    -609.5222911382621760 [Eh]
	 Singles Energy            =      -0.0000000000000000 [Eh]
	 Same-Spin Energy          =      -0.6813668032984278 [Eh]
	 Opposite-Spin Energy      =      -2.1319056041103472 [Eh]
	 Correlation Energy        =      -2.8132724074087752 [Eh]
	 Total Energy              =    -612.3355635456709933 [Eh]

	 ================> DF-SCS-MP2 Energies <==================
	-----------------------------------------------------------
	 SCS Same-Spin Scale       =       0.3333333333333333 [-]
	 SCS Opposite-Spin Scale   =       1.2000000000000000 [-]
	 SCS Same-Spin Energy      =      -0.2271222677661426 [Eh]
	 SCS Opposite-Spin Energy  =      -2.5582867249324166 [Eh]
	 SCS Correlation Energy    =      -2.7854089926985592 [Eh]
	 SCS Total Energy          =    -612.3077001309607112 [Eh]
	-----------------------------------------------------------

  Dipole Moment: [D]
     X:    -0.4620      Y:    -1.4418      Z:    -0.0595     Total:     1.5152

*** Psi4 exiting successfully. Buy a developer a beer!
