                               Psi4 1.3.2 release

  ==> Input File <==

--------------------------------------------------------------------------
#psi4
#
memory 32 gb

molecule  {
0 1
  N       -0.4697210     1.1445100    -0.2216410
  N        1.7892250     1.2839290     0.3484630
  C       -1.6240620     0.3182020    -0.0704420
  C        0.7850350     0.5381570    -0.1399480
  C       -0.5952140     2.4946130     0.3294290
  C        0.9974929    -0.7524208    -0.6772077
  C        3.3308620    -0.5454650    -0.0717700
  C       -1.7342750    -0.5947120     0.9884560
  C       -2.6794440     0.4585720    -0.9790390
  C        2.2640650    -1.3032160    -0.5830550
  C        3.0220600     0.7400440     0.3662130
  C       -2.8869950    -1.3690860     1.1220740
  C       -3.8377830    -0.3053550    -0.8293160
  C       -3.9434210    -1.2230030     0.2186750
  C        4.7300730    -1.0916580    -0.0030050
  H        0.1601300    -1.3363870    -1.0489480
  H       -0.4605330     2.5122530     1.4190480
  H       -1.5934070     2.8602250     0.0818210
  H        0.1591150     3.1409490    -0.1188450
  H       -0.9140430    -0.6937920     1.6961740
  H       -2.5719260     1.1603340    -1.8029750
  H        2.4420680    -2.3104690    -0.9583480
  H        3.8063450     1.3842980     0.7658560
  H       -2.9675220    -2.0774950     1.9434440
  H       -4.6536710    -0.1926670    -1.5394220
  H        5.0860610    -1.3967900    -0.9923270
  H        5.4219950    -0.3393960     0.3861000
  H        4.7833880    -1.9677830     0.6515600
  H       -4.8424050    -1.8242580     0.3291710
units angstrom
no_reorient  #important for SAPT in psi4, default
symmetry c1  #important for SAPT in psi4, default
}

set PROPERTIES_ORIGIN ["COM"]
properties('MP2/aug-cc-pvtz', properties = ['dipole'])
--------------------------------------------------------------------------

    Molecular point group: c1
  Charge       = 0
  Multiplicity = 1
  Basis Set: AUG-CC-PVTZ
    Blend: AUG-CC-PVTZ
  Basis Set: (AUG-CC-PVTZ AUX)
    Blend: AUG-CC-PVTZ-JKFIT

    Orbital Energies [Eh]
    ---------------------

    Doubly Occupied:

       1A    -15.572737     2A    -15.549122     3A    -11.308658
       4A    -11.275529     5A    -11.265561     6A    -11.250182
       7A    -11.245163     8A    -11.242209     9A    -11.241958
      10A    -11.238201    11A    -11.237885    12A    -11.236898
      13A    -11.230486    14A    -11.229143    15A    -11.225216
      16A     -1.290103    17A     -1.217453    18A     -1.142379
      19A     -1.090002    20A     -1.037816    21A     -1.018834
      22A     -1.008855    23A     -0.949363    24A     -0.907529
      25A     -0.846721    26A     -0.839317    27A     -0.829381
      28A     -0.785539    29A     -0.724467    30A     -0.685492
      31A     -0.674229    32A     -0.648498    33A     -0.638281
      34A     -0.622525    35A     -0.609329    36A     -0.594021
      37A     -0.588264    38A     -0.583558    39A     -0.576807
      40A     -0.561627    41A     -0.543289    42A     -0.533965
      43A     -0.523554    44A     -0.514443    45A     -0.507883
      46A     -0.500076    47A     -0.498891    48A     -0.417502
      49A     -0.410782    50A     -0.373638    51A     -0.342974
      52A     -0.338966    53A     -0.286677

  @DF-RHF Final Energy:  -609.53305341519172

   => Energetics <=

    Nuclear Repulsion Energy =            919.4305170895305537
    One-Electron Energy =               -2650.7031937282408762
    Two-Electron Energy =                1121.7396232235187199
    Total Energy =                       -609.5330534151917163
  Basis Set: (AUG-CC-PVTZ AUX)
    Blend: AUG-CC-PVTZ-RI
    Molecular point group: c1

    Geometry (in Angstrom), charge = 0, multiplicity = 1:

       Center              X                  Y                   Z               Mass
    ------------   -----------------  -----------------  -----------------  -----------------
         N           -0.451063236317     1.137987343014    -0.214813347194    14.003074004430
         N            1.807882763683     1.277406343014     0.355290652806    14.003074004430
         C           -1.605404236317     0.311679343014    -0.063614347194    12.000000000000
         C            0.803692763683     0.531634343014    -0.133120347194    12.000000000000
         C           -0.576556236317     2.488090343014     0.336256652806    12.000000000000
         C            1.016150663683    -0.758943456986    -0.670380047194    12.000000000000
         C            3.349519763683    -0.551987656986    -0.064942347194    12.000000000000
         C           -1.715617236317    -0.601234656986     0.995283652806    12.000000000000
         C           -2.660786236317     0.452049343014    -0.972211347194    12.000000000000
         C            2.282722763683    -1.309738656986    -0.576227347194    12.000000000000
         C            3.040717763683     0.733521343014     0.373040652806    12.000000000000
         C           -2.868337236317    -1.375608656986     1.128901652806    12.000000000000
         C           -3.819125236317    -0.311877656986    -0.822488347194    12.000000000000
         C           -3.924763236317    -1.229525656986     0.225502652806    12.000000000000
         C            4.748730763683    -1.098180656986     0.003822652806    12.000000000000
         H            0.178787763683    -1.342909656986    -1.042120347194     1.007825032230
         H           -0.441875236317     2.505730343014     1.425875652806     1.007825032230
         H           -1.574749236317     2.853702343014     0.088648652806     1.007825032230
         H            0.177772763683     3.134426343014    -0.112017347194     1.007825032230
         H           -0.895385236317    -0.700314656986     1.703001652806     1.007825032230
         H           -2.553268236317     1.153811343014    -1.796147347194     1.007825032230
         H            2.460725763683    -2.316991656986    -0.951520347194     1.007825032230
         H            3.825002763683     1.377775343014     0.772683652806     1.007825032230
         H           -2.948864236317    -2.084017656986     1.950271652806     1.007825032230
         H           -4.635013236317    -0.199189656986    -1.532594347194     1.007825032230
         H            5.104718763683    -1.403312656986    -0.985499347194     1.007825032230
         H            5.440652763683    -0.345918656986     0.392927652806     1.007825032230
         H            4.802045763683    -1.974305656986     0.658387652806     1.007825032230
         H           -4.823747236317    -1.830780656986     0.335998652806     1.007825032230

  Basis Set: AUG-CC-PVTZ
    Blend: AUG-CC-PVTZ
  Basis Set: (AUG-CC-PVTZ AUX)
    Blend: AUG-CC-PVTZ-JKFIT
	 Reference Energy          =    -609.5330534151917163 [Eh]
	 Singles Energy            =      -0.0000000000000000 [Eh]
	 Same-Spin Energy          =      -0.6811063991377789 [Eh]
	 Opposite-Spin Energy      =      -2.1307637240376116 [Eh]
	 Correlation Energy        =      -2.8118701231753906 [Eh]
	 Total Energy              =    -612.3449235383670839 [Eh]

	 ================> DF-SCS-MP2 Energies <==================
	-----------------------------------------------------------
	 SCS Same-Spin Scale       =       0.3333333333333333 [-]
	 SCS Opposite-Spin Scale   =       1.2000000000000000 [-]
	 SCS Same-Spin Energy      =      -0.2270354663792596 [Eh]
	 SCS Opposite-Spin Energy  =      -2.5569164688451340 [Eh]
	 SCS Correlation Energy    =      -2.7839519352243935 [Eh]
	 SCS Total Energy          =    -612.3170053504161388 [Eh]
	-----------------------------------------------------------

  Dipole Moment: [D]
     X:    -0.4928      Y:    -1.4681      Z:    -0.1467     Total:     1.5555

*** Psi4 exiting successfully. Buy a developer a beer!
