                               Psi4 1.3.2 release

  ==> Input File <==

--------------------------------------------------------------------------
#psi4
#
memory 32 gb

molecule  {
0 1
  N       -0.4697210     1.1445100    -0.2216410
  N        1.7892250     1.2839290     0.3484630
  C       -1.6240620     0.3182020    -0.0704420
  C        0.7850350     0.5381570    -0.1399480
  C       -0.5952140     2.4946130     0.3294290
  C        1.0079078    -0.7347336    -0.7228004
  C        3.3308620    -0.5454650    -0.0717700
  C       -1.7342750    -0.5947120     0.9884560
  C       -2.6794440     0.4585720    -0.9790390
  C        2.2640650    -1.3032160    -0.5830550
  C        3.0220600     0.7400440     0.3662130
  C       -2.8869950    -1.3690860     1.1220740
  C       -3.8377830    -0.3053550    -0.8293160
  C       -3.9434210    -1.2230030     0.2186750
  C        4.7300730    -1.0916580    -0.0030050
  H        0.1601300    -1.3363870    -1.0489480
  H       -0.4605330     2.5122530     1.4190480
  H       -1.5934070     2.8602250     0.0818210
  H        0.1591150     3.1409490    -0.1188450
  H       -0.9140430    -0.6937920     1.6961740
  H       -2.5719260     1.1603340    -1.8029750
  H        2.4420680    -2.3104690    -0.9583480
  H        3.8063450     1.3842980     0.7658560
  H       -2.9675220    -2.0774950     1.9434440
  H       -4.6536710    -0.1926670    -1.5394220
  H        5.0860610    -1.3967900    -0.9923270
  H        5.4219950    -0.3393960     0.3861000
  H        4.7833880    -1.9677830     0.6515600
  H       -4.8424050    -1.8242580     0.3291710
units angstrom
no_reorient  #important for SAPT in psi4, default
symmetry c1  #important for SAPT in psi4, default
}

set PROPERTIES_ORIGIN ["COM"]
properties('MP2/aug-cc-pvtz', properties = ['dipole'])
--------------------------------------------------------------------------

    Molecular point group: c1
  Charge       = 0
  Multiplicity = 1
  Basis Set: AUG-CC-PVTZ
    Blend: AUG-CC-PVTZ
  Basis Set: (AUG-CC-PVTZ AUX)
    Blend: AUG-CC-PVTZ-JKFIT

    Orbital Energies [Eh]
    ---------------------

    Doubly Occupied:

       1A    -15.572742     2A    -15.549205     3A    -11.309056
       4A    -11.275679     5A    -11.265823     6A    -11.250505
       7A    -11.245169     8A    -11.242350     9A    -11.242067
      10A    -11.238283    11A    -11.238034    12A    -11.236938
      13A    -11.230560    14A    -11.229698    15A    -11.225275
      16A     -1.290039    17A     -1.217521    18A     -1.142476
      19A     -1.089966    20A     -1.037375    21A     -1.018951
      22A     -1.008880    23A     -0.949285    24A     -0.907591
      25A     -0.846285    26A     -0.839393    27A     -0.829487
      28A     -0.785373    29A     -0.724301    30A     -0.685489
      31A     -0.673804    32A     -0.648718    33A     -0.637975
      34A     -0.621810    35A     -0.608966    36A     -0.594196
      37A     -0.588402    38A     -0.583291    39A     -0.576978
      40A     -0.561575    41A     -0.543317    42A     -0.533689
      43A     -0.523600    44A     -0.514147    45A     -0.507843
      46A     -0.500123    47A     -0.498861    48A     -0.417081
      49A     -0.410942    50A     -0.373516    51A     -0.343069
      52A     -0.338919    53A     -0.286899

  @DF-RHF Final Energy:  -609.53093498058934

   => Energetics <=

    Nuclear Repulsion Energy =            919.1952621588503689
    One-Electron Energy =               -2650.2293630079389004
    Two-Electron Energy =                1121.5031658684993090
    Total Energy =                       -609.5309349805893362
  Basis Set: (AUG-CC-PVTZ AUX)
    Blend: AUG-CC-PVTZ-RI
    Molecular point group: c1

    Geometry (in Angstrom), charge = 0, multiplicity = 1:

       Center              X                  Y                   Z               Mass
    ------------   -----------------  -----------------  -----------------  -----------------
         N           -0.451694073757     1.136916017513    -0.212051766944    14.003074004430
         N            1.807251926243     1.276335017513     0.358052233056    14.003074004430
         C           -1.606035073757     0.310608017513    -0.060852766944    12.000000000000
         C            0.803061926243     0.530563017513    -0.130358766944    12.000000000000
         C           -0.577187073757     2.487019017513     0.339018233056    12.000000000000
         C            1.025934726243    -0.742327582487    -0.713211166944    12.000000000000
         C            3.348888926243    -0.553058982487    -0.062180766944    12.000000000000
         C           -1.716248073757    -0.602305982487     0.998045233056    12.000000000000
         C           -2.661417073757     0.450978017513    -0.969449766944    12.000000000000
         C            2.282091926243    -1.310809982487    -0.573465766944    12.000000000000
         C            3.040086926243     0.732450017513     0.375802233056    12.000000000000
         C           -2.868968073757    -1.376679982487     1.131663233056    12.000000000000
         C           -3.819756073757    -0.312948982487    -0.819726766944    12.000000000000
         C           -3.925394073757    -1.230596982487     0.228264233056    12.000000000000
         C            4.748099926243    -1.099251982487     0.006584233056    12.000000000000
         H            0.178156926243    -1.343980982487    -1.039358766944     1.007825032230
         H           -0.442506073757     2.504659017513     1.428637233056     1.007825032230
         H           -1.575380073757     2.852631017513     0.091410233056     1.007825032230
         H            0.177141926243     3.133355017513    -0.109255766944     1.007825032230
         H           -0.896016073757    -0.701385982487     1.705763233056     1.007825032230
         H           -2.553899073757     1.152740017513    -1.793385766944     1.007825032230
         H            2.460094926243    -2.318062982487    -0.948758766944     1.007825032230
         H            3.824371926243     1.376704017513     0.775445233056     1.007825032230
         H           -2.949495073757    -2.085088982487     1.953033233056     1.007825032230
         H           -4.635644073757    -0.200260982487    -1.529832766944     1.007825032230
         H            5.104087926243    -1.404383982487    -0.982737766944     1.007825032230
         H            5.440021926243    -0.346989982487     0.395689233056     1.007825032230
         H            4.801414926243    -1.975376982487     0.661149233056     1.007825032230
         H           -4.824378073757    -1.831851982487     0.338760233056     1.007825032230

  Basis Set: AUG-CC-PVTZ
    Blend: AUG-CC-PVTZ
  Basis Set: (AUG-CC-PVTZ AUX)
    Blend: AUG-CC-PVTZ-JKFIT
	 Reference Energy          =    -609.5309349805893362 [Eh]
	 Singles Energy            =      -0.0000000000000000 [Eh]
	 Same-Spin Energy          =      -0.6811351301212936 [Eh]
	 Opposite-Spin Energy      =      -2.1309435504336611 [Eh]
	 Correlation Energy        =      -2.8120786805549547 [Eh]
	 Total Energy              =    -612.3430136611442549 [Eh]

	 ================> DF-SCS-MP2 Energies <==================
	-----------------------------------------------------------
	 SCS Same-Spin Scale       =       0.3333333333333333 [-]
	 SCS Opposite-Spin Scale   =       1.2000000000000000 [-]
	 SCS Same-Spin Energy      =      -0.2270450433737645 [Eh]
	 SCS Opposite-Spin Energy  =      -2.5571322605203934 [Eh]
	 SCS Correlation Energy    =      -2.7841773038941580 [Eh]
	 SCS Total Energy          =    -612.3151122844834617 [Eh]
	-----------------------------------------------------------

  Dipole Moment: [D]
     X:    -0.4872      Y:    -1.4660      Z:    -0.1225     Total:     1.5497

*** Psi4 exiting successfully. Buy a developer a beer!
