                               Psi4 1.3.2 release

  ==> Input File <==

--------------------------------------------------------------------------
#psi4
#
memory 32 gb

molecule  {
0 1
  N       -0.4697210     1.1445100    -0.2216410
  N        1.7892250     1.2839290     0.3484630
  C       -1.6240620     0.3182020    -0.0704420
  C        0.7850350     0.5381570    -0.1399480
  C       -0.5952140     2.4946130     0.3294290
  C        1.0183226    -0.7170464    -0.7683931
  C        3.3308620    -0.5454650    -0.0717700
  C       -1.7342750    -0.5947120     0.9884560
  C       -2.6794440     0.4585720    -0.9790390
  C        2.2640650    -1.3032160    -0.5830550
  C        3.0220600     0.7400440     0.3662130
  C       -2.8869950    -1.3690860     1.1220740
  C       -3.8377830    -0.3053550    -0.8293160
  C       -3.9434210    -1.2230030     0.2186750
  C        4.7300730    -1.0916580    -0.0030050
  H        0.1601300    -1.3363870    -1.0489480
  H       -0.4605330     2.5122530     1.4190480
  H       -1.5934070     2.8602250     0.0818210
  H        0.1591150     3.1409490    -0.1188450
  H       -0.9140430    -0.6937920     1.6961740
  H       -2.5719260     1.1603340    -1.8029750
  H        2.4420680    -2.3104690    -0.9583480
  H        3.8063450     1.3842980     0.7658560
  H       -2.9675220    -2.0774950     1.9434440
  H       -4.6536710    -0.1926670    -1.5394220
  H        5.0860610    -1.3967900    -0.9923270
  H        5.4219950    -0.3393960     0.3861000
  H        4.7833880    -1.9677830     0.6515600
  H       -4.8424050    -1.8242580     0.3291710
units angstrom
no_reorient  #important for SAPT in psi4, default
symmetry c1  #important for SAPT in psi4, default
}

set PROPERTIES_ORIGIN ["COM"]
properties('MP2/aug-cc-pvtz', properties = ['dipole'])
--------------------------------------------------------------------------

    Molecular point group: c1
  Charge       = 0
  Multiplicity = 1
  Basis Set: AUG-CC-PVTZ
    Blend: AUG-CC-PVTZ
  Basis Set: (AUG-CC-PVTZ AUX)
    Blend: AUG-CC-PVTZ-JKFIT

    Orbital Energies [Eh]
    ---------------------

    Doubly Occupied:

       1A    -15.572848     2A    -15.549265     3A    -11.309797
       4A    -11.275831     5A    -11.266372     6A    -11.251231
       7A    -11.245210     8A    -11.242471     9A    -11.242156
      10A    -11.238361    11A    -11.238162    12A    -11.236969
      13A    -11.230625    14A    -11.230559    15A    -11.225360
      16A     -1.289993    17A     -1.217624    18A     -1.142568
      19A     -1.089838    20A     -1.036660    21A     -1.019044
      22A     -1.008894    23A     -0.949158    24A     -0.907698
      25A     -0.845698    26A     -0.839453    27A     -0.829558
      28A     -0.785098    29A     -0.724093    30A     -0.685458
      31A     -0.673101    32A     -0.648924    33A     -0.637473
      34A     -0.620525    35A     -0.608544    36A     -0.594357
      37A     -0.588496    38A     -0.583018    39A     -0.577193
      40A     -0.561458    41A     -0.543352    42A     -0.533403
      43A     -0.523505    44A     -0.513736    45A     -0.507721
      46A     -0.500177    47A     -0.498680    48A     -0.416866
      49A     -0.410761    50A     -0.373285    51A     -0.343135
      52A     -0.338836    53A     -0.287192

  @DF-RHF Final Energy:  -609.52735568951562

   => Energetics <=

    Nuclear Repulsion Energy =            918.9009975517441262
    One-Electron Energy =               -2649.6371270203053427
    Two-Electron Energy =                1121.2087737790454867
    Total Energy =                       -609.5273556895156162
  Basis Set: (AUG-CC-PVTZ AUX)
    Blend: AUG-CC-PVTZ-RI
    Molecular point group: c1

    Geometry (in Angstrom), charge = 0, multiplicity = 1:

       Center              X                  Y                   Z               Mass
    ------------   -----------------  -----------------  -----------------  -----------------
         N           -0.452324905140     1.135844692011    -0.209290186695    14.003074004430
         N            1.806621094860     1.275263692011     0.360813813305    14.003074004430
         C           -1.606665905140     0.309536692011    -0.058091186695    12.000000000000
         C            0.802431094860     0.529491692011    -0.127597186695    12.000000000000
         C           -0.577817905140     2.485947692011     0.341779813305    12.000000000000
         C            1.035718694860    -0.725711707989    -0.756042286695    12.000000000000
         C            3.348258094860    -0.554130307989    -0.059419186695    12.000000000000
         C           -1.716878905140    -0.603377307989     1.000806813305    12.000000000000
         C           -2.662047905140     0.449906692011    -0.966688186695    12.000000000000
         C            2.281461094860    -1.311881307989    -0.570704186695    12.000000000000
         C            3.039456094860     0.731378692011     0.378563813305    12.000000000000
         C           -2.869598905140    -1.377751307989     1.134424813305    12.000000000000
         C           -3.820386905140    -0.314020307989    -0.816965186695    12.000000000000
         C           -3.926024905140    -1.231668307989     0.231025813305    12.000000000000
         C            4.747469094860    -1.100323307989     0.009345813305    12.000000000000
         H            0.177526094860    -1.345052307989    -1.036597186695     1.007825032230
         H           -0.443136905140     2.503587692011     1.431398813305     1.007825032230
         H           -1.576010905140     2.851559692011     0.094171813305     1.007825032230
         H            0.176511094860     3.132283692011    -0.106494186695     1.007825032230
         H           -0.896646905140    -0.702457307989     1.708524813305     1.007825032230
         H           -2.554529905140     1.151668692011    -1.790624186695     1.007825032230
         H            2.459464094860    -2.319134307989    -0.945997186695     1.007825032230
         H            3.823741094860     1.375632692011     0.778206813305     1.007825032230
         H           -2.950125905140    -2.086160307989     1.955794813305     1.007825032230
         H           -4.636274905140    -0.201332307989    -1.527071186695     1.007825032230
         H            5.103457094860    -1.405455307989    -0.979976186695     1.007825032230
         H            5.439391094860    -0.348061307989     0.398450813305     1.007825032230
         H            4.800784094860    -1.976448307989     0.663910813305     1.007825032230
         H           -4.825008905140    -1.832923307989     0.341521813305     1.007825032230

  Basis Set: AUG-CC-PVTZ
    Blend: AUG-CC-PVTZ
  Basis Set: (AUG-CC-PVTZ AUX)
    Blend: AUG-CC-PVTZ-JKFIT
	 Reference Energy          =    -609.5273556895156162 [Eh]
	 Singles Energy            =      -0.0000000000000000 [Eh]
	 Same-Spin Energy          =      -0.6812223239183531 [Eh]
	 Opposite-Spin Energy      =      -2.1313210490455115 [Eh]
	 Correlation Energy        =      -2.8125433729638645 [Eh]
	 Total Energy              =    -612.3398990624795033 [Eh]

	 ================> DF-SCS-MP2 Energies <==================
	-----------------------------------------------------------
	 SCS Same-Spin Scale       =       0.3333333333333333 [-]
	 SCS Opposite-Spin Scale   =       1.2000000000000000 [-]
	 SCS Same-Spin Energy      =      -0.2270741079727844 [Eh]
	 SCS Opposite-Spin Energy  =      -2.5575852588546137 [Eh]
	 SCS Correlation Energy    =      -2.7846593668273982 [Eh]
	 SCS Total Energy          =    -612.3120150563430570 [Eh]
	-----------------------------------------------------------

  Dipole Moment: [D]
     X:    -0.4768      Y:    -1.4572      Z:    -0.0935     Total:     1.5361

*** Psi4 exiting successfully. Buy a developer a beer!
