                               Psi4 1.3.2 release

  ==> Input File <==

--------------------------------------------------------------------------
#psi4
#
memory 32 gb

molecule  {
0 1
  N       -0.4697210     1.1445100    -0.2216410
  N        1.7892250     1.2839290     0.3484630
  C       -1.6240620     0.3182020    -0.0704420
  C        0.7850350     0.5381570    -0.1399480
  C       -0.5952140     2.4946130     0.3294290
  C        1.0391524    -0.6816721    -0.8595785
  C        3.3308620    -0.5454650    -0.0717700
  C       -1.7342750    -0.5947120     0.9884560
  C       -2.6794440     0.4585720    -0.9790390
  C        2.2640650    -1.3032160    -0.5830550
  C        3.0220600     0.7400440     0.3662130
  C       -2.8869950    -1.3690860     1.1220740
  C       -3.8377830    -0.3053550    -0.8293160
  C       -3.9434210    -1.2230030     0.2186750
  C        4.7300730    -1.0916580    -0.0030050
  H        0.1601300    -1.3363870    -1.0489480
  H       -0.4605330     2.5122530     1.4190480
  H       -1.5934070     2.8602250     0.0818210
  H        0.1591150     3.1409490    -0.1188450
  H       -0.9140430    -0.6937920     1.6961740
  H       -2.5719260     1.1603340    -1.8029750
  H        2.4420680    -2.3104690    -0.9583480
  H        3.8063450     1.3842980     0.7658560
  H       -2.9675220    -2.0774950     1.9434440
  H       -4.6536710    -0.1926670    -1.5394220
  H        5.0860610    -1.3967900    -0.9923270
  H        5.4219950    -0.3393960     0.3861000
  H        4.7833880    -1.9677830     0.6515600
  H       -4.8424050    -1.8242580     0.3291710
units angstrom
no_reorient  #important for SAPT in psi4, default
symmetry c1  #important for SAPT in psi4, default
}

set PROPERTIES_ORIGIN ["COM"]
properties('MP2/aug-cc-pvtz', properties = ['dipole'])
--------------------------------------------------------------------------

    Molecular point group: c1
  Charge       = 0
  Multiplicity = 1
  Basis Set: AUG-CC-PVTZ
    Blend: AUG-CC-PVTZ
  Basis Set: (AUG-CC-PVTZ AUX)
    Blend: AUG-CC-PVTZ-JKFIT

    Orbital Energies [Eh]
    ---------------------

    Doubly Occupied:

       1A    -15.573377     2A    -15.549342     3A    -11.312228
       4A    -11.276151     5A    -11.268340     6A    -11.253819
       7A    -11.245400     8A    -11.242668     9A    -11.242284
      10A    -11.238554    11A    -11.238338    12A    -11.237011
      13A    -11.233181    14A    -11.230696    15A    -11.225618
      16A     -1.289971    17A     -1.217957    18A     -1.142746
      19A     -1.089353    20A     -1.034386    21A     -1.019165
      22A     -1.008877    23A     -0.948802    24A     -0.908055
      25A     -0.844080    26A     -0.839541    27A     -0.829615
      28A     -0.784310    29A     -0.723638    30A     -0.685380
      31A     -0.670925    32A     -0.649299    33A     -0.636382
      34A     -0.616291    35A     -0.607325    36A     -0.594601
      37A     -0.588545    38A     -0.582481    39A     -0.577742
      40A     -0.561024    41A     -0.543429    42A     -0.532801
      43A     -0.522878    44A     -0.512750    45A     -0.507142
      46A     -0.500293    47A     -0.497706    48A     -0.416996
      49A     -0.409404    50A     -0.372527    51A     -0.343209
      52A     -0.338575    53A     -0.288018

  @DF-RHF Final Energy:  -609.51571208171390

   => Energetics <=

    Nuclear Repulsion Energy =            918.1417004278251852
    One-Electron Energy =               -2648.1083697466224294
    Two-Electron Energy =                1120.4509572370834576
    Total Energy =                       -609.5157120817139003
  Basis Set: (AUG-CC-PVTZ AUX)
    Blend: AUG-CC-PVTZ-RI
    Molecular point group: c1

    Geometry (in Angstrom), charge = 0, multiplicity = 1:

       Center              X                  Y                   Z               Mass
    ------------   -----------------  -----------------  -----------------  -----------------
         N           -0.453586580019     1.133702047065    -0.203767026196    14.003074004430
         N            1.805359419981     1.273121047065     0.366336973804    14.003074004430
         C           -1.607927580019     0.307394047065    -0.052568026196    12.000000000000
         C            0.801169419981     0.527349047065    -0.122074026196    12.000000000000
         C           -0.579079580019     2.483805047065     0.347302973804    12.000000000000
         C            1.055286819981    -0.692480052935    -0.841704526196    12.000000000000
         C            3.346996419981    -0.556272952935    -0.053896026196    12.000000000000
         C           -1.718140580019    -0.605519952935     1.006329973804    12.000000000000
         C           -2.663309580019     0.447764047065    -0.961165026196    12.000000000000
         C            2.280199419981    -1.314023952935    -0.565181026196    12.000000000000
         C            3.038194419981     0.729236047065     0.384086973804    12.000000000000
         C           -2.870860580019    -1.379893952935     1.139947973804    12.000000000000
         C           -3.821648580019    -0.316162952935    -0.811442026196    12.000000000000
         C           -3.927286580019    -1.233810952935     0.236548973804    12.000000000000
         C            4.746207419981    -1.102465952935     0.014868973804    12.000000000000
         H            0.176264419981    -1.347194952935    -1.031074026196     1.007825032230
         H           -0.444398580019     2.501445047065     1.436921973804     1.007825032230
         H           -1.577272580019     2.849417047065     0.099694973804     1.007825032230
         H            0.175249419981     3.130141047065    -0.100971026196     1.007825032230
         H           -0.897908580019    -0.704599952935     1.714047973804     1.007825032230
         H           -2.555791580019     1.149526047065    -1.785101026196     1.007825032230
         H            2.458202419981    -2.321276952935    -0.940474026196     1.007825032230
         H            3.822479419981     1.373490047065     0.783729973804     1.007825032230
         H           -2.951387580019    -2.088302952935     1.961317973804     1.007825032230
         H           -4.637536580019    -0.203474952935    -1.521548026196     1.007825032230
         H            5.102195419981    -1.407597952935    -0.974453026196     1.007825032230
         H            5.438129419981    -0.350203952935     0.403973973804     1.007825032230
         H            4.799522419981    -1.978590952935     0.669433973804     1.007825032230
         H           -4.826270580019    -1.835065952935     0.347044973804     1.007825032230

  Basis Set: AUG-CC-PVTZ
    Blend: AUG-CC-PVTZ
  Basis Set: (AUG-CC-PVTZ AUX)
    Blend: AUG-CC-PVTZ-JKFIT
	 Reference Energy          =    -609.5157120817139003 [Eh]
	 Singles Energy            =      -0.0000000000000000 [Eh]
	 Same-Spin Energy          =      -0.6815658064062784 [Eh]
	 Opposite-Spin Energy      =      -2.1326922449991694 [Eh]
	 Correlation Energy        =      -2.8142580514054476 [Eh]
	 Total Energy              =    -612.3299701331193319 [Eh]

	 ================> DF-SCS-MP2 Energies <==================
	-----------------------------------------------------------
	 SCS Same-Spin Scale       =       0.3333333333333333 [-]
	 SCS Opposite-Spin Scale   =       1.2000000000000000 [-]
	 SCS Same-Spin Energy      =      -0.2271886021354261 [Eh]
	 SCS Opposite-Spin Energy  =      -2.5592306939990030 [Eh]
	 SCS Correlation Energy    =      -2.7864192961344294 [Eh]
	 SCS Total Energy          =    -612.3021313778483545 [Eh]
	-----------------------------------------------------------

  Dipole Moment: [D]
     X:    -0.4434      Y:    -1.4198      Z:    -0.0202     Total:     1.4875

*** Psi4 exiting successfully. Buy a developer a beer!
