                               Psi4 1.3.2 release

  ==> Input File <==

--------------------------------------------------------------------------
#psi4
#
memory 32 gb

molecule  {
0 1
  O        2.7820080    -0.8809860    -0.0002600
  C       -0.3718440     0.9737870     0.0000910
  C        0.5095440    -0.1275560    -0.0000600
  C       -1.7466600     0.7087270     0.0002000
  C        0.0166350    -1.4400920    -0.0001140
  C        0.1123110     2.4052290     0.0001630
  C       -2.2387310    -0.5972210     0.0001460
  C       -1.3536090    -1.6782430    -0.0000090
  C        1.9816332     0.0523024     0.0498260
  H       -2.4458080     1.5430760     0.0003180
  H        0.7339320    -2.2568560    -0.0002320
  H        0.7165080     2.6337130    -0.8832360
  H       -0.7427470     3.0862090     0.0002150
  H        0.7165360     2.6336080     0.8835710
  H       -3.3126640    -0.7693710     0.0002300
  H       -1.7319890    -2.6973870    -0.0000530
  H        2.3545140     1.0932780    -0.0001810
units angstrom
no_reorient  #important for SAPT in psi4, default
symmetry c1  #important for SAPT in psi4, default
}

set PROPERTIES_ORIGIN ["COM"]
properties('MP2/aug-cc-pvtz', properties = ['dipole'])
--------------------------------------------------------------------------

    Molecular point group: c1
  Charge       = 0
  Multiplicity = 1
  Basis Set: AUG-CC-PVTZ
    Blend: AUG-CC-PVTZ
  Basis Set: (AUG-CC-PVTZ AUX)
    Blend: AUG-CC-PVTZ-JKFIT

    Orbital Energies [Eh]
    ---------------------

    Doubly Occupied:

       1A    -20.552387     2A    -11.335227     3A    -11.270080
       4A    -11.257553     5A    -11.252240     6A    -11.248851
       7A    -11.245640     8A    -11.244337     9A    -11.243767
      10A     -1.376379    11A     -1.171947    12A     -1.065314
      13A     -1.039792    14A     -0.955220    15A     -0.889840
      16A     -0.821792    17A     -0.787005    18A     -0.708382
      19A     -0.673590    20A     -0.644854    21A     -0.618375
      22A     -0.609270    23A     -0.597496    24A     -0.585603
      25A     -0.558558    26A     -0.538186    27A     -0.518740
      28A     -0.502491    29A     -0.491401    30A     -0.425435
      31A     -0.348884    32A     -0.342712

  @DF-RHF Final Energy:  -382.59311903218560

   => Energetics <=

    Nuclear Repulsion Energy =            401.9193287824460299
    One-Electron Energy =               -1315.1821995322050043
    Two-Electron Energy =                 530.6697517175734902
    Total Energy =                       -382.5931190321855411
  Basis Set: (AUG-CC-PVTZ AUX)
    Blend: AUG-CC-PVTZ-RI
    Molecular point group: c1

    Geometry (in Angstrom), charge = 0, multiplicity = 1:

       Center              X                  Y                   Z               Mass
    ------------   -----------------  -----------------  -----------------  -----------------
         O            2.751451241252    -0.837501705628    -0.005252559343    15.994914619570
         C           -0.402400758748     1.017271294372    -0.004901559343    12.000000000000
         C            0.478987241252    -0.084071705628    -0.005052559343    12.000000000000
         C           -1.777216758748     0.752211294372    -0.004792559343    12.000000000000
         C           -0.013921758748    -1.396607705628    -0.005106559343    12.000000000000
         C            0.081754241252     2.448713294372    -0.004829559343    12.000000000000
         C           -2.269287758748    -0.553736705628    -0.004846559343    12.000000000000
         C           -1.384165758748    -1.634758705628    -0.005001559343    12.000000000000
         C            1.951076441252     0.095786694372     0.044833440657    12.000000000000
         H           -2.476364758748     1.586560294372    -0.004674559343     1.007825032230
         H            0.703375241252    -2.213371705628    -0.005224559343     1.007825032230
         H            0.685951241252     2.677197294372    -0.888228559343     1.007825032230
         H           -0.773303758748     3.129693294372    -0.004777559343     1.007825032230
         H            0.685979241252     2.677092294372     0.878578440657     1.007825032230
         H           -3.343220758748    -0.725886705628    -0.004762559343     1.007825032230
         H           -1.762545758748    -2.653902705628    -0.005045559343     1.007825032230
         H            2.323957241252     1.136762294372    -0.005173559343     1.007825032230

  Basis Set: AUG-CC-PVTZ
    Blend: AUG-CC-PVTZ
  Basis Set: (AUG-CC-PVTZ AUX)
    Blend: AUG-CC-PVTZ-JKFIT
	 Reference Energy          =    -382.5931190321855979 [Eh]
	 Singles Energy            =      -0.0000000000000000 [Eh]
	 Same-Spin Energy          =      -0.4085365695578840 [Eh]
	 Opposite-Spin Energy      =      -1.2871599655213668 [Eh]
	 Correlation Energy        =      -1.6956965350792508 [Eh]
	 Total Energy              =    -384.2888155672648622 [Eh]

	 ================> DF-SCS-MP2 Energies <==================
	-----------------------------------------------------------
	 SCS Same-Spin Scale       =       0.3333333333333333 [-]
	 SCS Opposite-Spin Scale   =       1.2000000000000000 [-]
	 SCS Same-Spin Energy      =      -0.1361788565192947 [Eh]
	 SCS Opposite-Spin Energy  =      -1.5445919586256400 [Eh]
	 SCS Correlation Energy    =      -1.6807708151449348 [Eh]
	 SCS Total Energy          =    -384.2738898473305085 [Eh]
	-----------------------------------------------------------

  Dipole Moment: [D]
     X:    -2.7130      Y:     1.8839      Z:     0.0354     Total:     3.3031

*** Psi4 exiting successfully. Buy a developer a beer!
