                               Psi4 1.3.2 release

  ==> Input File <==

--------------------------------------------------------------------------
#psi4
#
memory 32 gb

molecule  {
0 1
  O        2.7820080    -0.8809860    -0.0002600
  C       -0.3718440     0.9737870     0.0000910
  C        0.5095440    -0.1275560    -0.0000600
  C       -1.7466600     0.7087270     0.0002000
  C        0.0166350    -1.4400920    -0.0001140
  C        0.1123110     2.4052290     0.0001630
  C       -2.2387310    -0.5972210     0.0001460
  C       -1.3536090    -1.6782430    -0.0000090
  C        1.9816502     0.0522882     0.2498260
  H       -2.4458080     1.5430760     0.0003180
  H        0.7339320    -2.2568560    -0.0002320
  H        0.7165080     2.6337130    -0.8832360
  H       -0.7427470     3.0862090     0.0002150
  H        0.7165360     2.6336080     0.8835710
  H       -3.3126640    -0.7693710     0.0002300
  H       -1.7319890    -2.6973870    -0.0000530
  H        2.3545140     1.0932780    -0.0001810
units angstrom
no_reorient  #important for SAPT in psi4, default
symmetry c1  #important for SAPT in psi4, default
}

set PROPERTIES_ORIGIN ["COM"]
properties('MP2/aug-cc-pvtz', properties = ['dipole'])
--------------------------------------------------------------------------

    Molecular point group: c1
  Charge       = 0
  Multiplicity = 1
  Basis Set: AUG-CC-PVTZ
    Blend: AUG-CC-PVTZ
  Basis Set: (AUG-CC-PVTZ AUX)
    Blend: AUG-CC-PVTZ-JKFIT

    Orbital Energies [Eh]
    ---------------------

    Doubly Occupied:

       1A    -20.559326     2A    -11.343182     3A    -11.269201
       4A    -11.256830     5A    -11.252218     6A    -11.250959
       7A    -11.245409     8A    -11.244104     9A    -11.243203
      10A     -1.365913    11A     -1.171040    12A     -1.064392
      13A     -1.037883    14A     -0.954222    15A     -0.886498
      16A     -0.821105    17A     -0.784764    18A     -0.703955
      19A     -0.670968    20A     -0.641954    21A     -0.615519
      22A     -0.605429    23A     -0.596413    24A     -0.584770
      25A     -0.557950    26A     -0.533251    27A     -0.517748
      28A     -0.502205    29A     -0.488326    30A     -0.424044
      31A     -0.346658    32A     -0.341920

  @DF-RHF Final Energy:  -382.56571415972934

   => Energetics <=

    Nuclear Repulsion Energy =            401.1463272232093686
    One-Electron Energy =               -1313.6613617020277616
    Two-Electron Energy =                 529.9493203190889972
    Total Energy =                       -382.5657141597293958
  Basis Set: (AUG-CC-PVTZ AUX)
    Blend: AUG-CC-PVTZ-RI
    Molecular point group: c1

    Geometry (in Angstrom), charge = 0, multiplicity = 1:

       Center              X                  Y                   Z               Mass
    ------------   -----------------  -----------------  -----------------  -----------------
         O            2.751449542066    -0.837500286308    -0.025242978122    15.994914619570
         C           -0.402402457934     1.017272713692    -0.024891978122    12.000000000000
         C            0.478985542066    -0.084070286308    -0.025042978122    12.000000000000
         C           -1.777218457934     0.752212713692    -0.024782978122    12.000000000000
         C           -0.013923457934    -1.396606286308    -0.025096978122    12.000000000000
         C            0.081752542066     2.448714713692    -0.024819978122    12.000000000000
         C           -2.269289457934    -0.553735286308    -0.024836978122    12.000000000000
         C           -1.384167457934    -1.634757286308    -0.024991978122    12.000000000000
         C            1.951091742066     0.095773913692     0.224843021878    12.000000000000
         H           -2.476366457934     1.586561713692    -0.024664978122     1.007825032230
         H            0.703373542066    -2.213370286308    -0.025214978122     1.007825032230
         H            0.685949542066     2.677198713692    -0.908218978122     1.007825032230
         H           -0.773305457934     3.129694713692    -0.024767978122     1.007825032230
         H            0.685977542066     2.677093713692     0.858588021878     1.007825032230
         H           -3.343222457934    -0.725885286308    -0.024752978122     1.007825032230
         H           -1.762547457934    -2.653901286308    -0.025035978122     1.007825032230
         H            2.323955542066     1.136763713692    -0.025163978122     1.007825032230

  Basis Set: AUG-CC-PVTZ
    Blend: AUG-CC-PVTZ
  Basis Set: (AUG-CC-PVTZ AUX)
    Blend: AUG-CC-PVTZ-JKFIT
	 Reference Energy          =    -382.5657141597293389 [Eh]
	 Singles Energy            =      -0.0000000000000000 [Eh]
	 Same-Spin Energy          =      -0.4102430077415389 [Eh]
	 Opposite-Spin Energy      =      -1.2916930968281060 [Eh]
	 Correlation Energy        =      -1.7019361045696448 [Eh]
	 Total Energy              =    -384.2676502642989931 [Eh]

	 ================> DF-SCS-MP2 Energies <==================
	-----------------------------------------------------------
	 SCS Same-Spin Scale       =       0.3333333333333333 [-]
	 SCS Opposite-Spin Scale   =       1.2000000000000000 [-]
	 SCS Same-Spin Energy      =      -0.1367476692471796 [Eh]
	 SCS Opposite-Spin Energy  =      -1.5500317161937271 [Eh]
	 SCS Correlation Energy    =      -1.6867793854409068 [Eh]
	 SCS Total Energy          =    -384.2524935451702390 [Eh]
	-----------------------------------------------------------

  Dipole Moment: [D]
     X:    -2.6307      Y:     1.8244      Z:     0.1575     Total:     3.2053

*** Psi4 exiting successfully. Buy a developer a beer!
