                               Psi4 1.3.2 release

  ==> Input File <==

--------------------------------------------------------------------------
#psi4
#
memory 32 gb

molecule  {
0 1
  O        2.7820080    -0.8809860    -0.0002600
  C       -0.3718440     0.9737870     0.0000910
  C        0.5095440    -0.1275560    -0.0000600
  C       -1.7466600     0.7087270     0.0002000
  C        0.0166350    -1.4400920    -0.0001140
  C        0.1123110     2.4052290     0.0001630
  C       -2.2387310    -0.5972210     0.0001460
  C       -1.3536090    -1.6782430    -0.0000090
  C        1.9816375     0.0522989     0.0998260
  H       -2.4458080     1.5430760     0.0003180
  H        0.7339320    -2.2568560    -0.0002320
  H        0.7165080     2.6337130    -0.8832360
  H       -0.7427470     3.0862090     0.0002150
  H        0.7165360     2.6336080     0.8835710
  H       -3.3126640    -0.7693710     0.0002300
  H       -1.7319890    -2.6973870    -0.0000530
  H        2.3545140     1.0932780    -0.0001810
units angstrom
no_reorient  #important for SAPT in psi4, default
symmetry c1  #important for SAPT in psi4, default
}

set PROPERTIES_ORIGIN ["COM"]
properties('MP2/aug-cc-pvtz', properties = ['dipole'])
--------------------------------------------------------------------------

    Molecular point group: c1
  Charge       = 0
  Multiplicity = 1
  Basis Set: AUG-CC-PVTZ
    Blend: AUG-CC-PVTZ
  Basis Set: (AUG-CC-PVTZ AUX)
    Blend: AUG-CC-PVTZ-JKFIT

    Orbital Energies [Eh]
    ---------------------

    Doubly Occupied:

       1A    -20.553249     2A    -11.336276     3A    -11.269967
       4A    -11.257462     5A    -11.252158     6A    -11.249207
       7A    -11.245611     8A    -11.244309     9A    -11.243696
      10A     -1.375020    11A     -1.171830    12A     -1.065193
      13A     -1.039546    14A     -0.955092    15A     -0.889410
      16A     -0.821701    17A     -0.786693    18A     -0.707774
      19A     -0.673264    20A     -0.644489    21A     -0.617985
      22A     -0.608839    23A     -0.597364    24A     -0.585501
      25A     -0.558483    26A     -0.537497    27A     -0.518632
      28A     -0.502459    29A     -0.491010    30A     -0.425243
      31A     -0.348577    32A     -0.342628

  @DF-RHF Final Energy:  -382.58970974960823

   => Energetics <=

    Nuclear Repulsion Energy =            401.8207008620224769
    One-Electron Energy =               -1314.9884896723358452
    Two-Electron Energy =                 530.5780790607051358
    Total Energy =                       -382.5897097496082324
  Basis Set: (AUG-CC-PVTZ AUX)
    Blend: AUG-CC-PVTZ-RI
    Molecular point group: c1

    Geometry (in Angstrom), charge = 0, multiplicity = 1:

       Center              X                  Y                   Z               Mass
    ------------   -----------------  -----------------  -----------------  -----------------
         O            2.751450811458    -0.837501355795    -0.010250164038    15.994914619570
         C           -0.402401188542     1.017271644205    -0.009899164038    12.000000000000
         C            0.478986811458    -0.084071355795    -0.010050164038    12.000000000000
         C           -1.777217188542     0.752211644205    -0.009790164038    12.000000000000
         C           -0.013922188542    -1.396607355795    -0.010104164038    12.000000000000
         C            0.081753811458     2.448713644205    -0.009827164038    12.000000000000
         C           -2.269288188542    -0.553736355795    -0.009844164038    12.000000000000
         C           -1.384166188542    -1.634758355795    -0.009999164038    12.000000000000
         C            1.951080311458     0.095783544205     0.089835835962    12.000000000000
         H           -2.476365188542     1.586560644205    -0.009672164038     1.007825032230
         H            0.703374811458    -2.213371355795    -0.010222164038     1.007825032230
         H            0.685950811458     2.677197644205    -0.893226164038     1.007825032230
         H           -0.773304188542     3.129693644205    -0.009775164038     1.007825032230
         H            0.685978811458     2.677092644205     0.873580835962     1.007825032230
         H           -3.343221188542    -0.725886355795    -0.009760164038     1.007825032230
         H           -1.762546188542    -2.653902355795    -0.010043164038     1.007825032230
         H            2.323956811458     1.136762644205    -0.010171164038     1.007825032230

  Basis Set: AUG-CC-PVTZ
    Blend: AUG-CC-PVTZ
  Basis Set: (AUG-CC-PVTZ AUX)
    Blend: AUG-CC-PVTZ-JKFIT
	 Reference Energy          =    -382.5897097496082324 [Eh]
	 Singles Energy            =      -0.0000000000000000 [Eh]
	 Same-Spin Energy          =      -0.4087493914207999 [Eh]
	 Opposite-Spin Energy      =      -1.2876525688438649 [Eh]
	 Correlation Energy        =      -1.6964019602646649 [Eh]
	 Total Energy              =    -384.2861117098728982 [Eh]

	 ================> DF-SCS-MP2 Energies <==================
	-----------------------------------------------------------
	 SCS Same-Spin Scale       =       0.3333333333333333 [-]
	 SCS Opposite-Spin Scale   =       1.2000000000000000 [-]
	 SCS Same-Spin Energy      =      -0.1362497971402666 [Eh]
	 SCS Opposite-Spin Energy  =      -1.5451830826126378 [Eh]
	 SCS Correlation Energy    =      -1.6814328797529043 [Eh]
	 SCS Total Energy          =    -384.2711426293611225 [Eh]
	-----------------------------------------------------------

  Dipole Moment: [D]
     X:    -2.7026      Y:     1.8764      Z:     0.0695     Total:     3.2908

*** Psi4 exiting successfully. Buy a developer a beer!
