                               Psi4 1.3.2 release

  ==> Input File <==

--------------------------------------------------------------------------
#psi4
#
memory 32 gb

molecule  {
0 1
  O        2.7820080    -0.8809860    -0.0002600
  C       -0.3718440     0.9737870     0.0000910
  C        0.5095440    -0.1275560    -0.0000600
  C       -1.7466600     0.7087270     0.0002000
  C        0.0166350    -1.4400920    -0.0001140
  C        0.1123110     2.4052290     0.0001630
  C       -2.2387310    -0.5972210     0.0001460
  C       -1.3536090    -1.6782430    -0.0000090
  C        1.9816290     0.0523060    -0.0001740
  H       -2.4458080     1.5430760     0.0003180
  H        0.7339320    -2.2568560    -0.0002320
  H        0.7165080     2.6337130    -0.8832360
  H       -0.7427470     3.0862090     0.0002150
  H        0.7165360     2.6336080     0.8835710
  H       -3.3126640    -0.7693710     0.0002300
  H       -1.7319890    -2.6973870    -0.0000530
  H        2.3545059     1.0932803    -0.1001810
units angstrom
no_reorient  #important for SAPT in psi4, default
symmetry c1  #important for SAPT in psi4, default
}

set PROPERTIES_ORIGIN ["COM"]
properties('MP2/aug-cc-pvtz', properties = ['dipole'])
--------------------------------------------------------------------------

    Molecular point group: c1
  Charge       = 0
  Multiplicity = 1
  Basis Set: AUG-CC-PVTZ
    Blend: AUG-CC-PVTZ
  Basis Set: (AUG-CC-PVTZ AUX)
    Blend: AUG-CC-PVTZ-JKFIT

    Orbital Energies [Eh]
    ---------------------

    Doubly Occupied:

       1A    -20.552321     2A    -11.335366     3A    -11.270115
       4A    -11.257585     5A    -11.252310     6A    -11.248848
       7A    -11.245660     8A    -11.244371     9A    -11.243748
      10A     -1.376979    11A     -1.172004    12A     -1.065337
      13A     -1.039897    14A     -0.955241    15A     -0.889673
      16A     -0.821846    17A     -0.786587    18A     -0.708300
      19A     -0.673624    20A     -0.644981    21A     -0.618455
      22A     -0.609423    23A     -0.597425    24A     -0.585631
      25A     -0.558556    26A     -0.538422    27A     -0.518776
      28A     -0.502518    29A     -0.491575    30A     -0.425271
      31A     -0.349019    32A     -0.342744

  @DF-RHF Final Energy:  -382.59368993753992

   => Energetics <=

    Nuclear Repulsion Energy =            401.9336400133893790
    One-Electron Energy =               -1315.2094437819662289
    Two-Electron Energy =                 530.6821138310369861
    Total Energy =                       -382.5936899375399207
  Basis Set: (AUG-CC-PVTZ AUX)
    Blend: AUG-CC-PVTZ-RI
    Molecular point group: c1

    Geometry (in Angstrom), charge = 0, multiplicity = 1:

       Center              X                  Y                   Z               Mass
    ------------   -----------------  -----------------  -----------------  -----------------
         O            2.751451729046    -0.837502084762     0.000584497204    15.994914619570
         C           -0.402400270954     1.017270915238     0.000935497204    12.000000000000
         C            0.478987729046    -0.084072084762     0.000784497204    12.000000000000
         C           -1.777216270954     0.752210915238     0.001044497204    12.000000000000
         C           -0.013921270954    -1.396608084762     0.000730497204    12.000000000000
         C            0.081754729046     2.448712915238     0.001007497204    12.000000000000
         C           -2.269287270954    -0.553737084762     0.000990497204    12.000000000000
         C           -1.384165270954    -1.634759084762     0.000835497204    12.000000000000
         C            1.951072729046     0.095789915238     0.000670497204    12.000000000000
         H           -2.476364270954     1.586559915238     0.001162497204     1.007825032230
         H            0.703375729046    -2.213372084762     0.000612497204     1.007825032230
         H            0.685951729046     2.677196915238    -0.882391502796     1.007825032230
         H           -0.773303270954     3.129692915238     0.001059497204     1.007825032230
         H            0.685979729046     2.677091915238     0.884415497204     1.007825032230
         H           -3.343220270954    -0.725887084762     0.001074497204     1.007825032230
         H           -1.762545270954    -2.653903084762     0.000791497204     1.007825032230
         H            2.323949629046     1.136764215238    -0.099336502796     1.007825032230

  Basis Set: AUG-CC-PVTZ
    Blend: AUG-CC-PVTZ
  Basis Set: (AUG-CC-PVTZ AUX)
    Blend: AUG-CC-PVTZ-JKFIT
	 Reference Energy          =    -382.5936899375399207 [Eh]
	 Singles Energy            =      -0.0000000000000000 [Eh]
	 Same-Spin Energy          =      -0.4085066720600142 [Eh]
	 Opposite-Spin Energy      =      -1.2870814834146374 [Eh]
	 Correlation Energy        =      -1.6955881554746515 [Eh]
	 Total Energy              =    -384.2892780930145591 [Eh]

	 ================> DF-SCS-MP2 Energies <==================
	-----------------------------------------------------------
	 SCS Same-Spin Scale       =       0.3333333333333333 [-]
	 SCS Opposite-Spin Scale   =       1.2000000000000000 [-]
	 SCS Same-Spin Energy      =      -0.1361688906866714 [Eh]
	 SCS Opposite-Spin Energy  =      -1.5444977800975648 [Eh]
	 SCS Correlation Energy    =      -1.6806666707842361 [Eh]
	 SCS Total Energy          =    -384.2743566083241831 [Eh]
	-----------------------------------------------------------

  Dipole Moment: [D]
     X:    -2.7175      Y:     1.8790      Z:    -0.0347     Total:     3.3040

*** Psi4 exiting successfully. Buy a developer a beer!
