                               Psi4 1.3.2 release

  ==> Input File <==

--------------------------------------------------------------------------
#psi4
#
memory 32 gb

molecule  {
0 1
  O        2.7820080    -0.8809860    -0.0002600
  C       -0.3718440     0.9737870     0.0000910
  C        0.5095440    -0.1275560    -0.0000600
  C       -1.7466600     0.7087270     0.0002000
  C        0.0166350    -1.4400920    -0.0001140
  C        0.1123110     2.4052290     0.0001630
  C       -2.2387310    -0.5972210     0.0001460
  C       -1.3536090    -1.6782430    -0.0000090
  C        1.9816290     0.0523060    -0.0001740
  H       -2.4458080     1.5430760     0.0003180
  H        0.7339320    -2.2568560    -0.0002320
  H        0.7165080     2.6337130    -0.8832360
  H       -0.7427470     3.0862090     0.0002150
  H        0.7165360     2.6336080     0.8835710
  H       -3.3126640    -0.7693710     0.0002300
  H       -1.7319890    -2.6973870    -0.0000530
  H        2.3545140     1.0932780    -0.0001810
units angstrom
no_reorient  #important for SAPT in psi4, default
symmetry c1  #important for SAPT in psi4, default
}

set PROPERTIES_ORIGIN ["COM"]
properties('MP2/aug-cc-pvtz', properties = ['dipole'])
--------------------------------------------------------------------------

    Molecular point group: c1
  Charge       = 0
  Multiplicity = 1
  Basis Set: AUG-CC-PVTZ
    Blend: AUG-CC-PVTZ
  Basis Set: (AUG-CC-PVTZ AUX)
    Blend: AUG-CC-PVTZ-JKFIT

    Orbital Energies [Eh]
    ---------------------

    Doubly Occupied:

       1A    -20.552099     2A    -11.334874     3A    -11.270118
       4A    -11.257584     5A    -11.252269     6A    -11.248731
       7A    -11.245650     8A    -11.244347     9A    -11.243791
      10A     -1.376835    11A     -1.171986    12A     -1.065354
      13A     -1.039874    14A     -0.955263    15A     -0.889984
      16A     -0.821822    17A     -0.787111    18A     -0.708588
      19A     -0.673698    20A     -0.644976    21A     -0.618507
      22A     -0.609410    23A     -0.597539    24A     -0.585637
      25A     -0.558583    26A     -0.538420    27A     -0.518776
      28A     -0.502501    29A     -0.491531    30A     -0.425501
      31A     -0.348988    32A     -0.342738

  @DF-RHF Final Energy:  -382.59425422190367

   => Energetics <=

    Nuclear Repulsion Energy =            401.9523167075936954
    One-Electron Energy =               -1315.2469673803229853
    Two-Electron Energy =                 530.7003964508255649
    Total Energy =                       -382.5942542219037250
  Basis Set: (AUG-CC-PVTZ AUX)
    Blend: AUG-CC-PVTZ-RI
    Molecular point group: c1

    Geometry (in Angstrom), charge = 0, multiplicity = 1:

       Center              X                  Y                   Z               Mass
    ------------   -----------------  -----------------  -----------------  -----------------
         O            2.751451661051    -0.837502065455    -0.000254954648    15.994914619570
         C           -0.402400338949     1.017270934545     0.000096045352    12.000000000000
         C            0.478987661051    -0.084072065455    -0.000054954648    12.000000000000
         C           -1.777216338949     0.752210934545     0.000205045352    12.000000000000
         C           -0.013921338949    -1.396608065455    -0.000108954648    12.000000000000
         C            0.081754661051     2.448712934545     0.000168045352    12.000000000000
         C           -2.269287338949    -0.553737065455     0.000151045352    12.000000000000
         C           -1.384165338949    -1.634759065455    -0.000003954648    12.000000000000
         C            1.951072661051     0.095789934545    -0.000168954648    12.000000000000
         H           -2.476364338949     1.586559934545     0.000323045352     1.007825032230
         H            0.703375661051    -2.213372065455    -0.000226954648     1.007825032230
         H            0.685951661051     2.677196934545    -0.883230954648     1.007825032230
         H           -0.773303338949     3.129692934545     0.000220045352     1.007825032230
         H            0.685979661051     2.677091934545     0.883576045352     1.007825032230
         H           -3.343220338949    -0.725887065455     0.000235045352     1.007825032230
         H           -1.762545338949    -2.653903065455    -0.000047954648     1.007825032230
         H            2.323957661051     1.136761934545    -0.000175954648     1.007825032230

  Basis Set: AUG-CC-PVTZ
    Blend: AUG-CC-PVTZ
  Basis Set: (AUG-CC-PVTZ AUX)
    Blend: AUG-CC-PVTZ-JKFIT
	 Reference Energy          =    -382.5942542219036682 [Eh]
	 Singles Energy            =      -0.0000000000000000 [Eh]
	 Same-Spin Energy          =      -0.4084659677950114 [Eh]
	 Opposite-Spin Energy      =      -1.2870134901324275 [Eh]
	 Correlation Energy        =      -1.6954794579274388 [Eh]
	 Total Energy              =    -384.2897336798311017 [Eh]

	 ================> DF-SCS-MP2 Energies <==================
	-----------------------------------------------------------
	 SCS Same-Spin Scale       =       0.3333333333333333 [-]
	 SCS Opposite-Spin Scale   =       1.2000000000000000 [-]
	 SCS Same-Spin Energy      =      -0.1361553225983371 [Eh]
	 SCS Opposite-Spin Energy  =      -1.5444161881589129 [Eh]
	 SCS Correlation Energy    =      -1.6805715107572501 [Eh]
	 SCS Total Energy          =    -384.2748257326609291 [Eh]
	-----------------------------------------------------------

  Dipole Moment: [D]
     X:    -2.7165      Y:     1.8864      Z:     0.0003     Total:     3.3072

*** Psi4 exiting successfully. Buy a developer a beer!
