                               Psi4 1.3.2 release

  ==> Input File <==

--------------------------------------------------------------------------
#psi4
#
memory 32 gb

molecule  {
0 1
  O        2.7820080    -0.8809860    -0.0002600
  C       -0.3718440     0.9737870     0.0000910
  C        0.5095440    -0.1275560    -0.0000600
  C       -1.7466600     0.7087270     0.0002000
  C        0.0166350    -1.4400920    -0.0001140
  C        0.1123110     2.4052290     0.0001630
  C       -2.2387310    -0.5972210     0.0001460
  C       -1.3536090    -1.6782430    -0.0000090
  C        1.9816417     0.0522953     0.1498260
  H       -2.4458080     1.5430760     0.0003180
  H        0.7339320    -2.2568560    -0.0002320
  H        0.7165080     2.6337130    -0.8832360
  H       -0.7427470     3.0862090     0.0002150
  H        0.7165360     2.6336080     0.8835710
  H       -3.3126640    -0.7693710     0.0002300
  H       -1.7319890    -2.6973870    -0.0000530
  H        2.3545140     1.0932780    -0.0001810
units angstrom
no_reorient  #important for SAPT in psi4, default
symmetry c1  #important for SAPT in psi4, default
}

set PROPERTIES_ORIGIN ["COM"]
properties('MP2/aug-cc-pvtz', properties = ['dipole'])
--------------------------------------------------------------------------

    Molecular point group: c1
  Charge       = 0
  Multiplicity = 1
  Basis Set: AUG-CC-PVTZ
    Blend: AUG-CC-PVTZ
  Basis Set: (AUG-CC-PVTZ AUX)
    Blend: AUG-CC-PVTZ-JKFIT

    Orbital Energies [Eh]
    ---------------------

    Doubly Occupied:

       1A    -20.554690     2A    -11.337989     3A    -11.269781
       4A    -11.257310     5A    -11.252037     6A    -11.249776
       7A    -11.245563     8A    -11.244261     9A    -11.243577
      10A     -1.372787    11A     -1.171638    12A     -1.064996
      13A     -1.039141    14A     -0.954880    15A     -0.888702
      16A     -0.821554    17A     -0.786194    18A     -0.706797
      19A     -0.672718    20A     -0.643881    21A     -0.617357
      22A     -0.608086    23A     -0.597145    24A     -0.585329
      25A     -0.558358    26A     -0.536395    27A     -0.518443
      28A     -0.502403    29A     -0.490362    30A     -0.424934
      31A     -0.348083    32A     -0.342481

  @DF-RHF Final Energy:  -382.58401564115246

   => Energetics <=

    Nuclear Repulsion Energy =            401.6576105722069201
    One-Electron Energy =               -1314.6679548427346162
    Two-Electron Energy =                 530.4263286293752344
    Total Energy =                       -382.5840156411524049
  Basis Set: (AUG-CC-PVTZ AUX)
    Blend: AUG-CC-PVTZ-RI
    Molecular point group: c1

    Geometry (in Angstrom), charge = 0, multiplicity = 1:

       Center              X                  Y                   Z               Mass
    ------------   -----------------  -----------------  -----------------  -----------------
         O            2.751450391659    -0.837500995968    -0.015247768733    15.994914619570
         C           -0.402401608341     1.017272004032    -0.014896768733    12.000000000000
         C            0.478986391659    -0.084070995968    -0.015047768733    12.000000000000
         C           -1.777217608341     0.752212004032    -0.014787768733    12.000000000000
         C           -0.013922608341    -1.396606995968    -0.015101768733    12.000000000000
         C            0.081753391659     2.448714004032    -0.014824768733    12.000000000000
         C           -2.269288608341    -0.553735995968    -0.014841768733    12.000000000000
         C           -1.384166608341    -1.634757995968    -0.014996768733    12.000000000000
         C            1.951084091659     0.095780304032     0.134838231267    12.000000000000
         H           -2.476365608341     1.586561004032    -0.014669768733     1.007825032230
         H            0.703374391659    -2.213370995968    -0.015219768733     1.007825032230
         H            0.685950391659     2.677198004032    -0.898223768733     1.007825032230
         H           -0.773304608341     3.129694004032    -0.014772768733     1.007825032230
         H            0.685978391659     2.677093004032     0.868583231267     1.007825032230
         H           -3.343221608341    -0.725885995968    -0.014757768733     1.007825032230
         H           -1.762546608341    -2.653901995968    -0.015040768733     1.007825032230
         H            2.323956391659     1.136763004032    -0.015168768733     1.007825032230

  Basis Set: AUG-CC-PVTZ
    Blend: AUG-CC-PVTZ
  Basis Set: (AUG-CC-PVTZ AUX)
    Blend: AUG-CC-PVTZ-JKFIT
	 Reference Energy          =    -382.5840156411524617 [Eh]
	 Singles Energy            =      -0.0000000000000000 [Eh]
	 Same-Spin Energy          =      -0.4091054270281966 [Eh]
	 Opposite-Spin Energy      =      -1.2885609014393484 [Eh]
	 Correlation Energy        =      -1.6976663284675451 [Eh]
	 Total Energy              =    -384.2816819696200241 [Eh]

	 ================> DF-SCS-MP2 Energies <==================
	-----------------------------------------------------------
	 SCS Same-Spin Scale       =       0.3333333333333333 [-]
	 SCS Opposite-Spin Scale   =       1.2000000000000000 [-]
	 SCS Same-Spin Energy      =      -0.1363684756760655 [Eh]
	 SCS Opposite-Spin Energy  =      -1.5462730817272181 [Eh]
	 SCS Correlation Energy    =      -1.6826415574032836 [Eh]
	 SCS Total Energy          =    -384.2666571985557198 [Eh]
	-----------------------------------------------------------

  Dipole Moment: [D]
     X:    -2.6853      Y:     1.8639      Z:     0.1018     Total:     3.2703

*** Psi4 exiting successfully. Buy a developer a beer!
