                               Psi4 1.3.2 release

  ==> Input File <==

--------------------------------------------------------------------------
#psi4
#
memory 32 gb

molecule  {
0 1
  O        2.7820080    -0.8809860    -0.0002600
  C       -0.3718440     0.9737870     0.0000910
  C        0.5095440    -0.1275560    -0.0000600
  C       -1.7466600     0.7087270     0.0002000
  C        0.0166350    -1.4400920    -0.0001140
  C        0.1123110     2.4052290     0.0001630
  C       -2.2387310    -0.5972210     0.0001460
  C       -1.3536090    -1.6782430    -0.0000090
  C        1.9816290     0.0523060    -0.0001740
  H       -2.4458080     1.5430760     0.0003180
  H        0.7339320    -2.2568560    -0.0002320
  H        0.7165080     2.6337130    -0.8832360
  H       -0.7427470     3.0862090     0.0002150
  H        0.7165360     2.6336080     0.8835710
  H       -3.3126640    -0.7693710     0.0002300
  H       -1.7319890    -2.6973870    -0.0000530
  H        2.3545019     1.0932814    -0.1501810
units angstrom
no_reorient  #important for SAPT in psi4, default
symmetry c1  #important for SAPT in psi4, default
}

set PROPERTIES_ORIGIN ["COM"]
properties('MP2/aug-cc-pvtz', properties = ['dipole'])
--------------------------------------------------------------------------

    Molecular point group: c1
  Charge       = 0
  Multiplicity = 1
  Basis Set: AUG-CC-PVTZ
    Blend: AUG-CC-PVTZ
  Basis Set: (AUG-CC-PVTZ AUX)
    Blend: AUG-CC-PVTZ-JKFIT

    Orbital Energies [Eh]
    ---------------------

    Doubly Occupied:

       1A    -20.552598     2A    -11.335978     3A    -11.270112
       4A    -11.257587     5A    -11.252363     6A    -11.248995
       7A    -11.245672     8A    -11.244401     9A    -11.243693
      10A     -1.377159    11A     -1.172027    12A     -1.065316
      13A     -1.039926    14A     -0.955214    15A     -0.889298
      16A     -0.821875    17A     -0.785947    18A     -0.707944
      19A     -0.673530    20A     -0.644989    21A     -0.618388
      22A     -0.609437    23A     -0.597283    24A     -0.585624
      25A     -0.558521    26A     -0.538425    27A     -0.518776
      28A     -0.502540    29A     -0.491630    30A     -0.424982
      31A     -0.349058    32A     -0.342752

  @DF-RHF Final Energy:  -382.59296217175540

   => Energetics <=

    Nuclear Repulsion Energy =            401.9105208945784966
    One-Electron Energy =               -1315.1628775012641199
    Two-Electron Energy =                 530.6593944349302774
    Total Energy =                       -382.5929621717554028
  Basis Set: (AUG-CC-PVTZ AUX)
    Blend: AUG-CC-PVTZ-RI
    Molecular point group: c1

    Geometry (in Angstrom), charge = 0, multiplicity = 1:

       Center              X                  Y                   Z               Mass
    ------------   -----------------  -----------------  -----------------  -----------------
         O            2.751451762625    -0.837502093996     0.001004223130    15.994914619570
         C           -0.402400237375     1.017270906004     0.001355223130    12.000000000000
         C            0.478987762625    -0.084072093996     0.001204223130    12.000000000000
         C           -1.777216237375     0.752210906004     0.001464223130    12.000000000000
         C           -0.013921237375    -1.396608093996     0.001150223130    12.000000000000
         C            0.081754762625     2.448712906004     0.001427223130    12.000000000000
         C           -2.269287237375    -0.553737093996     0.001410223130    12.000000000000
         C           -1.384165237375    -1.634759093996     0.001255223130    12.000000000000
         C            1.951072762625     0.095789906004     0.001090223130    12.000000000000
         H           -2.476364237375     1.586559906004     0.001582223130     1.007825032230
         H            0.703375762625    -2.213372093996     0.001032223130     1.007825032230
         H            0.685951762625     2.677196906004    -0.881971776870     1.007825032230
         H           -0.773303237375     3.129692906004     0.001479223130     1.007825032230
         H            0.685979762625     2.677091906004     0.884835223130     1.007825032230
         H           -3.343220237375    -0.725887093996     0.001494223130     1.007825032230
         H           -1.762545237375    -2.653903093996     0.001211223130     1.007825032230
         H            2.323945662625     1.136765306004    -0.148916776870     1.007825032230

  Basis Set: AUG-CC-PVTZ
    Blend: AUG-CC-PVTZ
  Basis Set: (AUG-CC-PVTZ AUX)
    Blend: AUG-CC-PVTZ-JKFIT
	 Reference Energy          =    -382.5929621717554028 [Eh]
	 Singles Energy            =      -0.0000000000000000 [Eh]
	 Same-Spin Energy          =      -0.4085575453564946 [Eh]
	 Opposite-Spin Energy      =      -1.2871735262796298 [Eh]
	 Correlation Energy        =      -1.6957310716361245 [Eh]
	 Total Energy              =    -384.2886932433915490 [Eh]

	 ================> DF-SCS-MP2 Energies <==================
	-----------------------------------------------------------
	 SCS Same-Spin Scale       =       0.3333333333333333 [-]
	 SCS Opposite-Spin Scale   =       1.2000000000000000 [-]
	 SCS Same-Spin Energy      =      -0.1361858484521649 [Eh]
	 SCS Opposite-Spin Energy  =      -1.5446082315355556 [Eh]
	 SCS Correlation Energy    =      -1.6807940799877206 [Eh]
	 SCS Total Energy          =    -384.2737562517431229 [Eh]
	-----------------------------------------------------------

  Dipole Moment: [D]
     X:    -2.7189      Y:     1.8697      Z:    -0.0516     Total:     3.3001

*** Psi4 exiting successfully. Buy a developer a beer!
