                               Psi4 1.3.2 release

  ==> Input File <==

--------------------------------------------------------------------------
#psi4
#
memory 32 gb

molecule  {
0 1
  O        2.7820080    -0.8809860    -0.0002600
  C       -0.3718440     0.9737870     0.0000910
  C        0.5095440    -0.1275560    -0.0000600
  C       -1.7466600     0.7087270     0.0002000
  C        0.0166350    -1.4400920    -0.0001140
  C        0.1123110     2.4052290     0.0001630
  C       -2.2387310    -0.5972210     0.0001460
  C       -1.3536090    -1.6782430    -0.0000090
  C        1.9816290     0.0523060    -0.0001740
  H       -2.4458080     1.5430760     0.0003180
  H        0.7339320    -2.2568560    -0.0002320
  H        0.7165080     2.6337130    -0.8832360
  H       -0.7427470     3.0862090     0.0002150
  H        0.7165360     2.6336080     0.8835710
  H       -3.3126640    -0.7693710     0.0002300
  H       -1.7319890    -2.6973870    -0.0000530
  H        2.3544979     1.0932825    -0.2001810
units angstrom
no_reorient  #important for SAPT in psi4, default
symmetry c1  #important for SAPT in psi4, default
}

set PROPERTIES_ORIGIN ["COM"]
properties('MP2/aug-cc-pvtz', properties = ['dipole'])
--------------------------------------------------------------------------

    Molecular point group: c1
  Charge       = 0
  Multiplicity = 1
  Basis Set: AUG-CC-PVTZ
    Blend: AUG-CC-PVTZ
  Basis Set: (AUG-CC-PVTZ AUX)
    Blend: AUG-CC-PVTZ-JKFIT

    Orbital Energies [Eh]
    ---------------------

    Doubly Occupied:

       1A    -20.552986     2A    -11.336827     3A    -11.270108
       4A    -11.257591     5A    -11.252438     6A    -11.249201
       7A    -11.245690     8A    -11.244445     9A    -11.243617
      10A     -1.377412    11A     -1.172061    12A     -1.065288
      13A     -1.039968    14A     -0.955177    15A     -0.888797
      16A     -0.821918    17A     -0.785081    18A     -0.707454
      19A     -0.673396    20A     -0.645001    21A     -0.618293
      22A     -0.609455    23A     -0.597085    24A     -0.585614
      25A     -0.558474    26A     -0.538433    27A     -0.518778
      28A     -0.502572    29A     -0.491709    30A     -0.424573
      31A     -0.349113    32A     -0.342764

  @DF-RHF Final Energy:  -382.59190394330108

   => Energetics <=

    Nuclear Repulsion Energy =            401.8785627709610822
    One-Electron Energy =               -1315.0982945670953086
    Two-Electron Energy =                 530.6278278528332066
    Total Energy =                       -382.5919039433010767
  Basis Set: (AUG-CC-PVTZ AUX)
    Blend: AUG-CC-PVTZ-RI
    Molecular point group: c1

    Geometry (in Angstrom), charge = 0, multiplicity = 1:

       Center              X                  Y                   Z               Mass
    ------------   -----------------  -----------------  -----------------  -----------------
         O            2.751451796203    -0.837502103230     0.001423949056    15.994914619570
         C           -0.402400203797     1.017270896770     0.001774949056    12.000000000000
         C            0.478987796203    -0.084072103230     0.001623949056    12.000000000000
         C           -1.777216203797     0.752210896770     0.001883949056    12.000000000000
         C           -0.013921203797    -1.396608103230     0.001569949056    12.000000000000
         C            0.081754796203     2.448712896770     0.001846949056    12.000000000000
         C           -2.269287203797    -0.553737103230     0.001829949056    12.000000000000
         C           -1.384165203797    -1.634759103230     0.001674949056    12.000000000000
         C            1.951072796203     0.095789896770     0.001509949056    12.000000000000
         H           -2.476364203797     1.586559896770     0.002001949056     1.007825032230
         H            0.703375796203    -2.213372103230     0.001451949056     1.007825032230
         H            0.685951796203     2.677196896770    -0.881552050944     1.007825032230
         H           -0.773303203797     3.129692896770     0.001898949056     1.007825032230
         H            0.685979796203     2.677091896770     0.885254949056     1.007825032230
         H           -3.343220203797    -0.725887103230     0.001913949056     1.007825032230
         H           -1.762545203797    -2.653903103230     0.001630949056     1.007825032230
         H            2.323941696203     1.136766396770    -0.198497050944     1.007825032230

  Basis Set: AUG-CC-PVTZ
    Blend: AUG-CC-PVTZ
  Basis Set: (AUG-CC-PVTZ AUX)
    Blend: AUG-CC-PVTZ-JKFIT
	 Reference Energy          =    -382.5919039433010767 [Eh]
	 Singles Energy            =      -0.0000000000000000 [Eh]
	 Same-Spin Energy          =      -0.4086287126030815 [Eh]
	 Opposite-Spin Energy      =      -1.2873123969798006 [Eh]
	 Correlation Energy        =      -1.6959411095828822 [Eh]
	 Total Energy              =    -384.2878450528839380 [Eh]

	 ================> DF-SCS-MP2 Energies <==================
	-----------------------------------------------------------
	 SCS Same-Spin Scale       =       0.3333333333333333 [-]
	 SCS Opposite-Spin Scale   =       1.2000000000000000 [-]
	 SCS Same-Spin Energy      =      -0.1362095708676938 [Eh]
	 SCS Opposite-Spin Energy  =      -1.5447748763757607 [Eh]
	 SCS Correlation Energy    =      -1.6809844472434545 [Eh]
	 SCS Total Energy          =    -384.2728883905445514 [Eh]
	-----------------------------------------------------------

  Dipole Moment: [D]
     X:    -2.7208      Y:     1.8566      Z:    -0.0678     Total:     3.2946

*** Psi4 exiting successfully. Buy a developer a beer!
