                               Psi4 1.3.2 release

  ==> Input File <==

--------------------------------------------------------------------------
#psi4
#
memory 32 gb

molecule  {
0 1
  O        2.7820080    -0.8809860    -0.0002600
  C       -0.3718440     0.9737870     0.0000910
  C        0.5095440    -0.1275560    -0.0000600
  C       -1.7466600     0.7087270     0.0002000
  C        0.0166350    -1.4400920    -0.0001140
  C        0.1123110     2.4052290     0.0001630
  C       -2.2387310    -0.5972210     0.0001460
  C       -1.3536090    -1.6782430    -0.0000090
  C        1.9816290     0.0523060    -0.0001740
  H       -2.4458080     1.5430760     0.0003180
  H        0.7339320    -2.2568560    -0.0002320
  H        0.7165080     2.6337130    -0.8832360
  H       -0.7427470     3.0862090     0.0002150
  H        0.7165360     2.6336080     0.8835710
  H       -3.3126640    -0.7693710     0.0002300
  H       -1.7319890    -2.6973870    -0.0000530
  H        2.3545100     1.0932791    -0.0501810
units angstrom
no_reorient  #important for SAPT in psi4, default
symmetry c1  #important for SAPT in psi4, default
}

set PROPERTIES_ORIGIN ["COM"]
properties('MP2/aug-cc-pvtz', properties = ['dipole'])
--------------------------------------------------------------------------

    Molecular point group: c1
  Charge       = 0
  Multiplicity = 1
  Basis Set: AUG-CC-PVTZ
    Blend: AUG-CC-PVTZ
  Basis Set: (AUG-CC-PVTZ AUX)
    Blend: AUG-CC-PVTZ-JKFIT

    Orbital Energies [Eh]
    ---------------------

    Doubly Occupied:

       1A    -20.552155     2A    -11.334998     3A    -11.270117
       4A    -11.257584     5A    -11.252279     6A    -11.248760
       7A    -11.245652     8A    -11.244353     9A    -11.243780
      10A     -1.376871    11A     -1.171990    12A     -1.065350
      13A     -1.039880    14A     -0.955258    15A     -0.889905
      16A     -0.821828    17A     -0.786979    18A     -0.708515
      19A     -0.673680    20A     -0.644977    21A     -0.618494
      22A     -0.609414    23A     -0.597511    24A     -0.585636
      25A     -0.558576    26A     -0.538420    27A     -0.518776
      28A     -0.502505    29A     -0.491542    30A     -0.425444
      31A     -0.348996    32A     -0.342740

  @DF-RHF Final Energy:  -382.59411468239784

   => Energetics <=

    Nuclear Repulsion Energy =            401.9476315524447614
    One-Electron Energy =               -1315.2375623141547294
    Two-Electron Energy =                 530.6958160793120669
    Total Energy =                       -382.5941146823978443
  Basis Set: (AUG-CC-PVTZ AUX)
    Blend: AUG-CC-PVTZ-RI
    Molecular point group: c1

    Geometry (in Angstrom), charge = 0, multiplicity = 1:

       Center              X                  Y                   Z               Mass
    ------------   -----------------  -----------------  -----------------  -----------------
         O            2.751451694629    -0.837502074689     0.000164771278    15.994914619570
         C           -0.402400305371     1.017270925311     0.000515771278    12.000000000000
         C            0.478987694629    -0.084072074689     0.000364771278    12.000000000000
         C           -1.777216305371     0.752210925311     0.000624771278    12.000000000000
         C           -0.013921305371    -1.396608074689     0.000310771278    12.000000000000
         C            0.081754694629     2.448712925311     0.000587771278    12.000000000000
         C           -2.269287305371    -0.553737074689     0.000570771278    12.000000000000
         C           -1.384165305371    -1.634759074689     0.000415771278    12.000000000000
         C            1.951072694629     0.095789925311     0.000250771278    12.000000000000
         H           -2.476364305371     1.586559925311     0.000742771278     1.007825032230
         H            0.703375694629    -2.213372074689     0.000192771278     1.007825032230
         H            0.685951694629     2.677196925311    -0.882811228722     1.007825032230
         H           -0.773303305371     3.129692925311     0.000639771278     1.007825032230
         H            0.685979694629     2.677091925311     0.883995771278     1.007825032230
         H           -3.343220305371    -0.725887074689     0.000654771278     1.007825032230
         H           -1.762545305371    -2.653903074689     0.000371771278     1.007825032230
         H            2.323953694629     1.136763025311    -0.049756228722     1.007825032230

  Basis Set: AUG-CC-PVTZ
    Blend: AUG-CC-PVTZ
  Basis Set: (AUG-CC-PVTZ AUX)
    Blend: AUG-CC-PVTZ-JKFIT
	 Reference Energy          =    -382.5941146823978443 [Eh]
	 Singles Energy            =      -0.0000000000000000 [Eh]
	 Same-Spin Energy          =      -0.4084761433027671 [Eh]
	 Opposite-Spin Energy      =      -1.2870299413277899 [Eh]
	 Correlation Energy        =      -1.6955060846305570 [Eh]
	 Total Energy              =    -384.2896207670283957 [Eh]

	 ================> DF-SCS-MP2 Energies <==================
	-----------------------------------------------------------
	 SCS Same-Spin Scale       =       0.3333333333333333 [-]
	 SCS Opposite-Spin Scale   =       1.2000000000000000 [-]
	 SCS Same-Spin Energy      =      -0.1361587144342557 [Eh]
	 SCS Opposite-Spin Energy  =      -1.5444359295933479 [Eh]
	 SCS Correlation Energy    =      -1.6805946440276036 [Eh]
	 SCS Total Energy          =    -384.2747093264254659 [Eh]
	-----------------------------------------------------------

  Dipole Moment: [D]
     X:    -2.7167      Y:     1.8846      Z:    -0.0173     Total:     3.3064

*** Psi4 exiting successfully. Buy a developer a beer!
