                               Psi4 1.3.2 release

  ==> Input File <==

--------------------------------------------------------------------------
#psi4
#
memory 32 gb

molecule  {
0 1
  O        2.7820080    -0.8809860    -0.0002600
  C       -0.3718440     0.9737870     0.0000910
  C        0.5095440    -0.1275560    -0.0000600
  C       -1.7466600     0.7087270     0.0002000
  C        0.0166350    -1.4400920    -0.0001140
  C        0.1123110     2.4052290     0.0001630
  C       -2.2387310    -0.5972210     0.0001460
  C       -1.3536090    -1.6782430    -0.0000090
  C        1.9816290     0.0523060    -0.0001740
  H       -2.4458080     1.5430760     0.0003180
  H        0.7339320    -2.2568560    -0.0002320
  H        0.7165080     2.6337130    -0.8832360
  H       -0.7427470     3.0862090     0.0002150
  H        0.7165360     2.6336080     0.8835710
  H       -3.3126640    -0.7693710     0.0002300
  H       -1.7319890    -2.6973870    -0.0000530
  H        2.3544939     1.0932836    -0.2501810
units angstrom
no_reorient  #important for SAPT in psi4, default
symmetry c1  #important for SAPT in psi4, default
}

set PROPERTIES_ORIGIN ["COM"]
properties('MP2/aug-cc-pvtz', properties = ['dipole'])
--------------------------------------------------------------------------

    Molecular point group: c1
  Charge       = 0
  Multiplicity = 1
  Basis Set: AUG-CC-PVTZ
    Blend: AUG-CC-PVTZ
  Basis Set: (AUG-CC-PVTZ AUX)
    Blend: AUG-CC-PVTZ-JKFIT

    Orbital Energies [Eh]
    ---------------------

    Doubly Occupied:

       1A    -20.553485     2A    -11.337908     3A    -11.270106
       4A    -11.257598     5A    -11.252536     6A    -11.249465
       7A    -11.245715     8A    -11.244501     9A    -11.243520
      10A     -1.377737    11A     -1.172106    12A     -1.065255
      13A     -1.040025    14A     -0.955132    15A     -0.888193
      16A     -0.821973    17A     -0.784014    18A     -0.706837
      19A     -0.673221    20A     -0.645019    21A     -0.618169
      22A     -0.609474    23A     -0.596832    24A     -0.585600
      25A     -0.558414    26A     -0.538447    27A     -0.518782
      28A     -0.502613    29A     -0.491811    30A     -0.424040
      31A     -0.349183    32A     -0.342780

  @DF-RHF Final Energy:  -382.59048121166444

   => Energetics <=

    Nuclear Repulsion Energy =            401.8381517672088421
    One-Electron Energy =               -1315.0162762422683045
    Two-Electron Energy =                 530.5876432633950799
    Total Energy =                       -382.5904812116643825
  Basis Set: (AUG-CC-PVTZ AUX)
    Blend: AUG-CC-PVTZ-RI
    Molecular point group: c1

    Geometry (in Angstrom), charge = 0, multiplicity = 1:

       Center              X                  Y                   Z               Mass
    ------------   -----------------  -----------------  -----------------  -----------------
         O            2.751451829781    -0.837502112464     0.001843674982    15.994914619570
         C           -0.402400170219     1.017270887536     0.002194674982    12.000000000000
         C            0.478987829781    -0.084072112464     0.002043674982    12.000000000000
         C           -1.777216170219     0.752210887536     0.002303674982    12.000000000000
         C           -0.013921170219    -1.396608112464     0.001989674982    12.000000000000
         C            0.081754829781     2.448712887536     0.002266674982    12.000000000000
         C           -2.269287170219    -0.553737112464     0.002249674982    12.000000000000
         C           -1.384165170219    -1.634759112464     0.002094674982    12.000000000000
         C            1.951072829781     0.095789887536     0.001929674982    12.000000000000
         H           -2.476364170219     1.586559887536     0.002421674982     1.007825032230
         H            0.703375829781    -2.213372112464     0.001871674982     1.007825032230
         H            0.685951829781     2.677196887536    -0.881132325018     1.007825032230
         H           -0.773303170219     3.129692887536     0.002318674982     1.007825032230
         H            0.685979829781     2.677091887536     0.885674674982     1.007825032230
         H           -3.343220170219    -0.725887112464     0.002333674982     1.007825032230
         H           -1.762545170219    -2.653903112464     0.002050674982     1.007825032230
         H            2.323937729781     1.136767487536    -0.248077325018     1.007825032230

  Basis Set: AUG-CC-PVTZ
    Blend: AUG-CC-PVTZ
  Basis Set: (AUG-CC-PVTZ AUX)
    Blend: AUG-CC-PVTZ-JKFIT
	 Reference Energy          =    -382.5904812116644393 [Eh]
	 Singles Energy            =      -0.0000000000000000 [Eh]
	 Same-Spin Energy          =      -0.4087200498058532 [Eh]
	 Opposite-Spin Energy      =      -1.2875034920000692 [Eh]
	 Correlation Energy        =      -1.6962235418059224 [Eh]
	 Total Energy              =    -384.2867047534703602 [Eh]

	 ================> DF-SCS-MP2 Energies <==================
	-----------------------------------------------------------
	 SCS Same-Spin Scale       =       0.3333333333333333 [-]
	 SCS Opposite-Spin Scale   =       1.2000000000000000 [-]
	 SCS Same-Spin Energy      =      -0.1362400166019511 [Eh]
	 SCS Opposite-Spin Energy  =      -1.5450041904000831 [Eh]
	 SCS Correlation Energy    =      -1.6812442070020341 [Eh]
	 SCS Total Energy          =    -384.2717254186664491 [Eh]
	-----------------------------------------------------------

  Dipole Moment: [D]
     X:    -2.7235      Y:     1.8397      Z:    -0.0829     Total:     3.2877

*** Psi4 exiting successfully. Buy a developer a beer!
