                               Psi4 1.3.2 release

  ==> Input File <==

--------------------------------------------------------------------------
#psi4
#
memory 32 gb

molecule  {
0 1
  O        2.7820080    -0.8809860    -0.0002600
  C       -0.3718440     0.9737870     0.0000910
  C        0.5095440    -0.1275560    -0.0000600
  C       -1.7466600     0.7087270     0.0002000
  C        0.0166350    -1.4400920    -0.0001140
  C        0.1123110     2.4052290     0.0001630
  C       -2.2387310    -0.5972210     0.0001460
  C       -1.3536090    -1.6782430    -0.0000090
  C        1.9816459     0.0522917     0.1998260
  H       -2.4458080     1.5430760     0.0003180
  H        0.7339320    -2.2568560    -0.0002320
  H        0.7165080     2.6337130    -0.8832360
  H       -0.7427470     3.0862090     0.0002150
  H        0.7165360     2.6336080     0.8835710
  H       -3.3126640    -0.7693710     0.0002300
  H       -1.7319890    -2.6973870    -0.0000530
  H        2.3545140     1.0932780    -0.0001810
units angstrom
no_reorient  #important for SAPT in psi4, default
symmetry c1  #important for SAPT in psi4, default
}

set PROPERTIES_ORIGIN ["COM"]
properties('MP2/aug-cc-pvtz', properties = ['dipole'])
--------------------------------------------------------------------------

    Molecular point group: c1
  Charge       = 0
  Multiplicity = 1
  Basis Set: AUG-CC-PVTZ
    Blend: AUG-CC-PVTZ
  Basis Set: (AUG-CC-PVTZ AUX)
    Blend: AUG-CC-PVTZ-JKFIT

    Orbital Energies [Eh]
    ---------------------

    Doubly Occupied:

       1A    -20.556713     2A    -11.340313     3A    -11.269524
       4A    -11.257099     5A    -11.251942     6A    -11.250480
       7A    -11.245496     8A    -11.244193     9A    -11.243413
      10A     -1.369729    11A     -1.171374    12A     -1.064727
      13A     -1.038584    14A     -0.954589    15A     -0.887726
      16A     -0.821354    17A     -0.785539    18A     -0.705501
      19A     -0.671953    20A     -0.643034    21A     -0.616523
      22A     -0.606966    23A     -0.596832    24A     -0.585087
      25A     -0.558181    26A     -0.534948    27A     -0.518156
      28A     -0.502320    29A     -0.489465    30A     -0.424528
      31A     -0.347428    32A     -0.342254

  @DF-RHF Final Energy:  -382.57602116770829

   => Energetics <=

    Nuclear Repulsion Energy =            401.4319632414636772
    One-Electron Energy =               -1314.2240301207905304
    Two-Electron Energy =                 530.2160457116185626
    Total Energy =                       -382.5760211677082907
  Basis Set: (AUG-CC-PVTZ AUX)
    Blend: AUG-CC-PVTZ-RI
    Molecular point group: c1

    Geometry (in Angstrom), charge = 0, multiplicity = 1:

       Center              X                  Y                   Z               Mass
    ------------   -----------------  -----------------  -----------------  -----------------
         O            2.751449971861    -0.837500636140    -0.020245373428    15.994914619570
         C           -0.402402028139     1.017272363860    -0.019894373428    12.000000000000
         C            0.478985971861    -0.084070636140    -0.020045373428    12.000000000000
         C           -1.777218028139     0.752212363860    -0.019785373428    12.000000000000
         C           -0.013923028139    -1.396606636140    -0.020099373428    12.000000000000
         C            0.081752971861     2.448714363860    -0.019822373428    12.000000000000
         C           -2.269289028139    -0.553735636140    -0.019839373428    12.000000000000
         C           -1.384167028139    -1.634757636140    -0.019994373428    12.000000000000
         C            1.951087871861     0.095777063860     0.179840626572    12.000000000000
         H           -2.476366028139     1.586561363860    -0.019667373428     1.007825032230
         H            0.703373971861    -2.213370636140    -0.020217373428     1.007825032230
         H            0.685949971861     2.677198363860    -0.903221373428     1.007825032230
         H           -0.773305028139     3.129694363860    -0.019770373428     1.007825032230
         H            0.685977971861     2.677093363860     0.863585626572     1.007825032230
         H           -3.343222028139    -0.725885636140    -0.019755373428     1.007825032230
         H           -1.762547028139    -2.653901636140    -0.020038373428     1.007825032230
         H            2.323955971861     1.136763363860    -0.020166373428     1.007825032230

  Basis Set: AUG-CC-PVTZ
    Blend: AUG-CC-PVTZ
  Basis Set: (AUG-CC-PVTZ AUX)
    Blend: AUG-CC-PVTZ-JKFIT
	 Reference Energy          =    -382.5760211677082907 [Eh]
	 Singles Energy            =      -0.0000000000000000 [Eh]
	 Same-Spin Energy          =      -0.4096040566129996 [Eh]
	 Opposite-Spin Energy      =      -1.2899080709240194 [Eh]
	 Correlation Energy        =      -1.6995121275370191 [Eh]
	 Total Energy              =    -384.2755332952452818 [Eh]

	 ================> DF-SCS-MP2 Energies <==================
	-----------------------------------------------------------
	 SCS Same-Spin Scale       =       0.3333333333333333 [-]
	 SCS Opposite-Spin Scale   =       1.2000000000000000 [-]
	 SCS Same-Spin Energy      =      -0.1365346855376665 [Eh]
	 SCS Opposite-Spin Energy  =      -1.5478896851088233 [Eh]
	 SCS Correlation Energy    =      -1.6844243706464899 [Eh]
	 SCS Total Energy          =    -384.2604455383547588 [Eh]
	-----------------------------------------------------------

  Dipole Moment: [D]
     X:    -2.6613      Y:     1.8465      Z:     0.1313     Total:     3.2417

*** Psi4 exiting successfully. Buy a developer a beer!
