                               Psi4 1.3.2 release

  ==> Input File <==

--------------------------------------------------------------------------
#psi4
#
memory 32 gb

molecule  {
0 1
  O        0.4332560    -0.5778250     0.1734540
  O       -0.8408100     1.0912640    -0.7084360
  C        1.6346250     0.1623570    -0.1778450
  C        1.8980320     1.2173290     0.8789650
  C        2.7308080    -0.8763490    -0.2789480
  C       -1.9083251    -0.7897062     0.4137362
  C       -0.7451280     0.0062060    -0.1586260
  C       -3.2456700    -0.1986960     0.0285890
  H        1.4602790     0.6397420    -1.1462310
  H        2.8221420     1.7571320     0.6526510
  H        1.0777360     1.9358120     0.9100720
  H        2.0019030     0.7445150     1.8590670
  H        3.6747750    -0.4011320    -0.5598750
  H        2.4805410    -1.6278800    -1.0306640
  H        2.8646540    -1.3764140     0.6835210
  H       -1.8254340    -1.7987290    -0.3567280
  H       -1.7546250    -1.1827800     1.2758720
  H       -3.3759370     0.0860600    -1.0167370
  H       -4.0604800    -0.8690500     0.3134070
  H       -3.3166340     0.7089420     0.6308410
units angstrom
no_reorient  #important for SAPT in psi4, default
symmetry c1  #important for SAPT in psi4, default
}

set PROPERTIES_ORIGIN ["COM"]
properties('MP2/aug-cc-pvtz', properties = ['dipole'])
--------------------------------------------------------------------------

    Molecular point group: c1
  Charge       = 0
  Multiplicity = 1
  Basis Set: AUG-CC-PVTZ
    Blend: AUG-CC-PVTZ
  Basis Set: (AUG-CC-PVTZ AUX)
    Blend: AUG-CC-PVTZ-JKFIT

    Orbital Energies [Eh]
    ---------------------

    Doubly Occupied:

       1A    -20.594814     2A    -20.540908     3A    -11.380123
       4A    -11.289570     5A    -11.249341     6A    -11.221335
       7A    -11.220446     8A    -11.216600     9A     -1.447807
      10A     -1.349979    11A     -1.081080    12A     -1.047427
      13A     -0.944861    14A     -0.904891    15A     -0.819109
      16A     -0.763032    17A     -0.709329    18A     -0.670393
      19A     -0.650644    20A     -0.613739    21A     -0.607223
      22A     -0.571532    23A     -0.565383    24A     -0.548698
      25A     -0.542860    26A     -0.534416    27A     -0.511451
      28A     -0.505213    29A     -0.483380    30A     -0.461809
      31A     -0.450712    32A     -0.432094

  @DF-RHF Final Energy:  -384.05049495147972

   => Energetics <=

    Nuclear Repulsion Energy =            396.3335605140960070
    One-Electron Energy =               -1308.9077095514317080
    Two-Electron Energy =                 528.5236540858559238
    Total Energy =                       -384.0504949514797772
  Basis Set: (AUG-CC-PVTZ AUX)
    Blend: AUG-CC-PVTZ-RI
    Molecular point group: c1

    Geometry (in Angstrom), charge = 0, multiplicity = 1:

       Center              X                  Y                   Z               Mass
    ------------   -----------------  -----------------  -----------------  -----------------
         O            0.433960110456    -0.587055341169     0.154967404385    15.994914619570
         O           -0.840105889544     1.082033658831    -0.726922595615    15.994914619570
         C            1.635329110456     0.153126658831    -0.196331595615    12.000000000000
         C            1.898736110456     1.208098658831     0.860478404385    12.000000000000
         C            2.731512110456    -0.885579341169    -0.297434595615    12.000000000000
         C           -1.907620989544    -0.798936541169     0.395249604385    12.000000000000
         C           -0.744423889544    -0.003024341169    -0.177112595615    12.000000000000
         C           -3.244965889544    -0.207926341169     0.010102404385    12.000000000000
         H            1.460983110456     0.630511658831    -1.164717595615     1.007825032230
         H            2.822846110456     1.747901658831     0.634164404385     1.007825032230
         H            1.078440110456     1.926581658831     0.891585404385     1.007825032230
         H            2.002607110456     0.735284658831     1.840580404385     1.007825032230
         H            3.675479110456    -0.410362341169    -0.578361595615     1.007825032230
         H            2.481245110456    -1.637110341169    -1.049150595615     1.007825032230
         H            2.865358110456    -1.385644341169     0.665034404385     1.007825032230
         H           -1.824729889544    -1.807959341169    -0.375214595615     1.007825032230
         H           -1.753920889544    -1.192010341169     1.257385404385     1.007825032230
         H           -3.375232889544     0.076829658831    -1.035223595615     1.007825032230
         H           -4.059775889544    -0.878280341169     0.294920404385     1.007825032230
         H           -3.315929889544     0.699711658831     0.612354404385     1.007825032230

  Basis Set: AUG-CC-PVTZ
    Blend: AUG-CC-PVTZ
  Basis Set: (AUG-CC-PVTZ AUX)
    Blend: AUG-CC-PVTZ-JKFIT
	 Reference Energy          =    -384.0504949514797204 [Eh]
	 Singles Energy            =      -0.0000000000000000 [Eh]
	 Same-Spin Energy          =      -0.3847377350412242 [Eh]
	 Opposite-Spin Energy      =      -1.2882826334215249 [Eh]
	 Correlation Energy        =      -1.6730203684627492 [Eh]
	 Total Energy              =    -385.7235153199424644 [Eh]

	 ================> DF-SCS-MP2 Energies <==================
	-----------------------------------------------------------
	 SCS Same-Spin Scale       =       0.3333333333333333 [-]
	 SCS Opposite-Spin Scale   =       1.2000000000000000 [-]
	 SCS Same-Spin Energy      =      -0.1282459116804081 [Eh]
	 SCS Opposite-Spin Energy  =      -1.5459391601058299 [Eh]
	 SCS Correlation Energy    =      -1.6741850717862379 [Eh]
	 SCS Total Energy          =    -385.7246800232659325 [Eh]
	-----------------------------------------------------------

  Dipole Moment: [D]
     X:     0.7600      Y:    -1.2398      Z:     0.7637     Total:     1.6426

*** Psi4 exiting successfully. Buy a developer a beer!
