                               Psi4 1.3.2 release

  ==> Input File <==

--------------------------------------------------------------------------
#psi4
#
memory 32 gb

molecule  {
0 1
  O        0.4332560    -0.5778250     0.1734540
  O       -0.8408100     1.0912640    -0.7084360
  C        1.6346250     0.1623570    -0.1778450
  C        1.8980320     1.2173290     0.8789650
  C        2.7308080    -0.8763490    -0.2789480
  C       -1.9049195    -0.8343511     0.3243201
  C       -0.7451280     0.0062060    -0.1586260
  C       -3.2456700    -0.1986960     0.0285890
  H        1.4602790     0.6397420    -1.1462310
  H        2.8221420     1.7571320     0.6526510
  H        1.0777360     1.9358120     0.9100720
  H        2.0019030     0.7445150     1.8590670
  H        3.6747750    -0.4011320    -0.5598750
  H        2.4805410    -1.6278800    -1.0306640
  H        2.8646540    -1.3764140     0.6835210
  H       -1.8254340    -1.7987290    -0.3567280
  H       -1.7546250    -1.1827800     1.2758720
  H       -3.3759370     0.0860600    -1.0167370
  H       -4.0604800    -0.8690500     0.3134070
  H       -3.3166340     0.7089420     0.6308410
units angstrom
no_reorient  #important for SAPT in psi4, default
symmetry c1  #important for SAPT in psi4, default
}

set PROPERTIES_ORIGIN ["COM"]
properties('MP2/aug-cc-pvtz', properties = ['dipole'])
--------------------------------------------------------------------------

    Molecular point group: c1
  Charge       = 0
  Multiplicity = 1
  Basis Set: AUG-CC-PVTZ
    Blend: AUG-CC-PVTZ
  Basis Set: (AUG-CC-PVTZ AUX)
    Blend: AUG-CC-PVTZ-JKFIT

    Orbital Energies [Eh]
    ---------------------

    Doubly Occupied:

       1A    -20.595053     2A    -20.540673     3A    -11.377797
       4A    -11.289608     5A    -11.244734     6A    -11.220612
       7A    -11.219113     8A    -11.216445     9A     -1.447822
      10A     -1.349766    11A     -1.080767    12A     -1.046078
      13A     -0.944847    14A     -0.903851    15A     -0.815995
      16A     -0.761299    17A     -0.701455    18A     -0.669442
      19A     -0.652691    20A     -0.617168    21A     -0.606622
      22A     -0.571758    23A     -0.560437    24A     -0.548686
      25A     -0.535721    26A     -0.530492    27A     -0.511465
      28A     -0.505189    29A     -0.486745    30A     -0.475964
      31A     -0.451290    32A     -0.437692

  @DF-RHF Final Energy:  -384.07988382670175

   => Energetics <=

    Nuclear Repulsion Energy =            396.4164162978188983
    One-Electron Energy =               -1309.1580482947438213
    Two-Electron Energy =                 528.6617481702231771
    Total Energy =                       -384.0798838267018027
  Basis Set: (AUG-CC-PVTZ AUX)
    Blend: AUG-CC-PVTZ-RI
    Molecular point group: c1

    Geometry (in Angstrom), charge = 0, multiplicity = 1:

       Center              X                  Y                   Z               Mass
    ------------   -----------------  -----------------  -----------------  -----------------
         O            0.433608061120    -0.582440234455     0.164210673906    15.994914619570
         O           -0.840457938880     1.086648765545    -0.717679326094    15.994914619570
         C            1.634977061120     0.157741765545    -0.187088326094    12.000000000000
         C            1.898384061120     1.212713765545     0.869721673906    12.000000000000
         C            2.731160061120    -0.880964234455    -0.288191326094    12.000000000000
         C           -1.904567438880    -0.838966334455     0.315076773906    12.000000000000
         C           -0.744775938880     0.001590765545    -0.167869326094    12.000000000000
         C           -3.245317938880    -0.203311234455     0.019345673906    12.000000000000
         H            1.460631061120     0.635126765545    -1.155474326094     1.007825032230
         H            2.822494061120     1.752516765545     0.643407673906     1.007825032230
         H            1.078088061120     1.931196765545     0.900828673906     1.007825032230
         H            2.002255061120     0.739899765545     1.849823673906     1.007825032230
         H            3.675127061120    -0.405747234455    -0.569118326094     1.007825032230
         H            2.480893061120    -1.632495234455    -1.039907326094     1.007825032230
         H            2.865006061120    -1.381029234455     0.674277673906     1.007825032230
         H           -1.825081938880    -1.803344234455    -0.365971326094     1.007825032230
         H           -1.754272938880    -1.187395234455     1.266628673906     1.007825032230
         H           -3.375584938880     0.081444765545    -1.025980326094     1.007825032230
         H           -4.060127938880    -0.873665234455     0.304163673906     1.007825032230
         H           -3.316281938880     0.704326765545     0.621597673906     1.007825032230

  Basis Set: AUG-CC-PVTZ
    Blend: AUG-CC-PVTZ
  Basis Set: (AUG-CC-PVTZ AUX)
    Blend: AUG-CC-PVTZ-JKFIT
	 Reference Energy          =    -384.0798838267017459 [Eh]
	 Singles Energy            =      -0.0000000000000000 [Eh]
	 Same-Spin Energy          =      -0.3842646004446474 [Eh]
	 Opposite-Spin Energy      =      -1.2867871745795287 [Eh]
	 Correlation Energy        =      -1.6710517750241762 [Eh]
	 Total Energy              =    -385.7509356017259279 [Eh]

	 ================> DF-SCS-MP2 Energies <==================
	-----------------------------------------------------------
	 SCS Same-Spin Scale       =       0.3333333333333333 [-]
	 SCS Opposite-Spin Scale   =       1.2000000000000000 [-]
	 SCS Same-Spin Energy      =      -0.1280882001482158 [Eh]
	 SCS Opposite-Spin Energy  =      -1.5441446094954345 [Eh]
	 SCS Correlation Energy    =      -1.6722328096436503 [Eh]
	 SCS Total Energy          =    -385.7521166363454199 [Eh]
	-----------------------------------------------------------

  Dipole Moment: [D]
     X:     0.7946      Y:    -1.2889      Z:     0.7285     Total:     1.6803

*** Psi4 exiting successfully. Buy a developer a beer!
