                               Psi4 1.3.2 release

  ==> Input File <==

--------------------------------------------------------------------------
#psi4
#
memory 32 gb

molecule  {
0 1
  O        0.4332560    -0.5778250     0.1734540
  O       -0.8408100     1.0912640    -0.7084360
  C        1.6346250     0.1623570    -0.1778450
  C        1.8980320     1.2173290     0.8789650
  C        2.7308080    -0.8763490    -0.2789480
  C       -1.9066223    -0.8120287     0.3690281
  C       -0.7451280     0.0062060    -0.1586260
  C       -3.2456700    -0.1986960     0.0285890
  H        1.4602790     0.6397420    -1.1462310
  H        2.8221420     1.7571320     0.6526510
  H        1.0777360     1.9358120     0.9100720
  H        2.0019030     0.7445150     1.8590670
  H        3.6747750    -0.4011320    -0.5598750
  H        2.4805410    -1.6278800    -1.0306640
  H        2.8646540    -1.3764140     0.6835210
  H       -1.8254340    -1.7987290    -0.3567280
  H       -1.7546250    -1.1827800     1.2758720
  H       -3.3759370     0.0860600    -1.0167370
  H       -4.0604800    -0.8690500     0.3134070
  H       -3.3166340     0.7089420     0.6308410
units angstrom
no_reorient  #important for SAPT in psi4, default
symmetry c1  #important for SAPT in psi4, default
}

set PROPERTIES_ORIGIN ["COM"]
properties('MP2/aug-cc-pvtz', properties = ['dipole'])
--------------------------------------------------------------------------

    Molecular point group: c1
  Charge       = 0
  Multiplicity = 1
  Basis Set: AUG-CC-PVTZ
    Blend: AUG-CC-PVTZ
  Basis Set: (AUG-CC-PVTZ AUX)
    Blend: AUG-CC-PVTZ-JKFIT

    Orbital Energies [Eh]
    ---------------------

    Doubly Occupied:

       1A    -20.594942     2A    -20.540753     3A    -11.378784
       4A    -11.289589     5A    -11.246731     6A    -11.220532
       7A    -11.220021     8A    -11.216523     9A     -1.447810
      10A     -1.349848    11A     -1.080934    12A     -1.046747
      13A     -0.944855    14A     -0.904304    15A     -0.817194
      16A     -0.762047    17A     -0.705132    18A     -0.670109
      19A     -0.651461    20A     -0.615029    21A     -0.607565
      22A     -0.571336    23A     -0.562700    24A     -0.548637
      25A     -0.537445    26A     -0.534963    27A     -0.511527
      28A     -0.505143    29A     -0.484315    30A     -0.469144
      31A     -0.451186    32A     -0.435625

  @DF-RHF Final Energy:  -384.06746372732351

   => Energetics <=

    Nuclear Repulsion Energy =            396.3910049677079996
    One-Electron Energy =               -1309.0710722075082231
    Two-Electron Energy =                 528.6126035124767668
    Total Energy =                       -384.0674637273234566
  Basis Set: (AUG-CC-PVTZ AUX)
    Blend: AUG-CC-PVTZ-RI
    Molecular point group: c1

    Geometry (in Angstrom), charge = 0, multiplicity = 1:

       Center              X                  Y                   Z               Mass
    ------------   -----------------  -----------------  -----------------  -----------------
         O            0.433784085788    -0.584747782643     0.159589044314    15.994914619570
         O           -0.840281914212     1.084341217357    -0.722300955686    15.994914619570
         C            1.635153085788     0.155434217357    -0.191709955686    12.000000000000
         C            1.898560085788     1.210406217357     0.865100044314    12.000000000000
         C            2.731336085788    -0.883271782643    -0.292812955686    12.000000000000
         C           -1.906094214212    -0.818951482643     0.355163144314    12.000000000000
         C           -0.744599914212    -0.000716782643    -0.172490955686    12.000000000000
         C           -3.245141914212    -0.205618782643     0.014724044314    12.000000000000
         H            1.460807085788     0.632819217357    -1.160095955686     1.007825032230
         H            2.822670085788     1.750209217357     0.638786044314     1.007825032230
         H            1.078264085788     1.928889217357     0.896207044314     1.007825032230
         H            2.002431085788     0.737592217357     1.845202044314     1.007825032230
         H            3.675303085788    -0.408054782643    -0.573739955686     1.007825032230
         H            2.481069085788    -1.634802782643    -1.044528955686     1.007825032230
         H            2.865182085788    -1.383336782643     0.669656044314     1.007825032230
         H           -1.824905914212    -1.805651782643    -0.370592955686     1.007825032230
         H           -1.754096914212    -1.189702782643     1.262007044314     1.007825032230
         H           -3.375408914212     0.079137217357    -1.030601955686     1.007825032230
         H           -4.059951914212    -0.875972782643     0.299542044314     1.007825032230
         H           -3.316105914212     0.702019217357     0.616976044314     1.007825032230

  Basis Set: AUG-CC-PVTZ
    Blend: AUG-CC-PVTZ
  Basis Set: (AUG-CC-PVTZ AUX)
    Blend: AUG-CC-PVTZ-JKFIT
	 Reference Energy          =    -384.0674637273235135 [Eh]
	 Singles Energy            =      -0.0000000000000000 [Eh]
	 Same-Spin Energy          =      -0.3844679493586183 [Eh]
	 Opposite-Spin Energy      =      -1.2874101636910451 [Eh]
	 Correlation Energy        =      -1.6718781130496634 [Eh]
	 Total Energy              =    -385.7393418403731857 [Eh]

	 ================> DF-SCS-MP2 Energies <==================
	-----------------------------------------------------------
	 SCS Same-Spin Scale       =       0.3333333333333333 [-]
	 SCS Opposite-Spin Scale   =       1.2000000000000000 [-]
	 SCS Same-Spin Energy      =      -0.1281559831195394 [Eh]
	 SCS Opposite-Spin Energy  =      -1.5448921964292541 [Eh]
	 SCS Correlation Energy    =      -1.6730481795487935 [Eh]
	 SCS Total Energy          =    -385.7405119068723138 [Eh]
	-----------------------------------------------------------

  Dipole Moment: [D]
     X:     0.7787      Y:    -1.2666      Z:     0.7472     Total:     1.6640

*** Psi4 exiting successfully. Buy a developer a beer!
