                               Psi4 1.3.2 release

  ==> Input File <==

--------------------------------------------------------------------------
#psi4
#
memory 32 gb

molecule  {
0 1
  O        0.4332560    -0.5778250     0.1734540
  O       -0.8408100     1.0912640    -0.7084360
  C        1.6346250     0.1623570    -0.1778450
  C        1.8980320     1.2173290     0.8789650
  C        2.7308080    -0.8763490    -0.2789480
  C       -1.9117306    -0.7450613     0.5031523
  C       -0.7451280     0.0062060    -0.1586260
  C       -3.2456700    -0.1986960     0.0285890
  H        1.4602790     0.6397420    -1.1462310
  H        2.8221420     1.7571320     0.6526510
  H        1.0777360     1.9358120     0.9100720
  H        2.0019030     0.7445150     1.8590670
  H        3.6747750    -0.4011320    -0.5598750
  H        2.4805410    -1.6278800    -1.0306640
  H        2.8646540    -1.3764140     0.6835210
  H       -1.8254340    -1.7987290    -0.3567280
  H       -1.7546250    -1.1827800     1.2758720
  H       -3.3759370     0.0860600    -1.0167370
  H       -4.0604800    -0.8690500     0.3134070
  H       -3.3166340     0.7089420     0.6308410
units angstrom
no_reorient  #important for SAPT in psi4, default
symmetry c1  #important for SAPT in psi4, default
}

set PROPERTIES_ORIGIN ["COM"]
properties('MP2/aug-cc-pvtz', properties = ['dipole'])
--------------------------------------------------------------------------

    Molecular point group: c1
  Charge       = 0
  Multiplicity = 1
  Basis Set: AUG-CC-PVTZ
    Blend: AUG-CC-PVTZ
  Basis Set: (AUG-CC-PVTZ AUX)
    Blend: AUG-CC-PVTZ-JKFIT

    Orbital Energies [Eh]
    ---------------------

    Doubly Occupied:

       1A    -20.594506     2A    -20.541396     3A    -11.383725
       4A    -11.289519     5A    -11.256286     6A    -11.225066
       7A    -11.220253     8A    -11.216746     9A     -1.447807
      10A     -1.350352    11A     -1.081304    12A     -1.048772
      13A     -0.944860    14A     -0.906661    15A     -0.824982
      16A     -0.765374    17A     -0.717163    18A     -0.670303
      19A     -0.649837    20A     -0.614843    21A     -0.602329
      22A     -0.577988    23A     -0.567296    24A     -0.550851
      25A     -0.547300    26A     -0.533396    27A     -0.510994
      28A     -0.505147    29A     -0.482595    30A     -0.454561
      31A     -0.447140    32A     -0.418505

  @DF-RHF Final Energy:  -384.00394943061070

   => Energetics <=

    Nuclear Repulsion Energy =            396.1198487548132334
    One-Electron Energy =               -1308.3518863521755975
    Two-Electron Energy =                 528.2280881667517178
    Total Energy =                       -384.0039494306106462
  Basis Set: (AUG-CC-PVTZ AUX)
    Blend: AUG-CC-PVTZ-RI
    Molecular point group: c1

    Geometry (in Angstrom), charge = 0, multiplicity = 1:

       Center              X                  Y                   Z               Mass
    ------------   -----------------  -----------------  -----------------  -----------------
         O            0.434312149455    -0.591670447883     0.145724134863    15.994914619570
         O           -0.839753850545     1.077418552117    -0.736165865137    15.994914619570
         C            1.635681149455     0.148511552117    -0.205574865137    12.000000000000
         C            1.899088149455     1.203483552117     0.851235134863    12.000000000000
         C            2.731864149455    -0.890194447883    -0.306677865137    12.000000000000
         C           -1.910674450545    -0.758906747883     0.475422434863    12.000000000000
         C           -0.744071850545    -0.007639447883    -0.186355865137    12.000000000000
         C           -3.244613850545    -0.212541447883     0.000859134863    12.000000000000
         H            1.461335149455     0.625896552117    -1.173960865137     1.007825032230
         H            2.823198149455     1.743286552117     0.624921134863     1.007825032230
         H            1.078792149455     1.921966552117     0.882342134863     1.007825032230
         H            2.002959149455     0.730669552117     1.831337134863     1.007825032230
         H            3.675831149455    -0.414977447883    -0.587604865137     1.007825032230
         H            2.481597149455    -1.641725447883    -1.058393865137     1.007825032230
         H            2.865710149455    -1.390259447883     0.655791134863     1.007825032230
         H           -1.824377850545    -1.812574447883    -0.384457865137     1.007825032230
         H           -1.753568850545    -1.196625447883     1.248142134863     1.007825032230
         H           -3.374880850545     0.072214552117    -1.044466865137     1.007825032230
         H           -4.059423850545    -0.882895447883     0.285677134863     1.007825032230
         H           -3.315577850545     0.695096552117     0.603111134863     1.007825032230

  Basis Set: AUG-CC-PVTZ
    Blend: AUG-CC-PVTZ
  Basis Set: (AUG-CC-PVTZ AUX)
    Blend: AUG-CC-PVTZ-JKFIT
	 Reference Energy          =    -384.0039494306107031 [Eh]
	 Singles Energy            =      -0.0000000000000000 [Eh]
	 Same-Spin Energy          =      -0.3854841699827594 [Eh]
	 Opposite-Spin Energy      =      -1.2907920310548708 [Eh]
	 Correlation Energy        =      -1.6762762010376302 [Eh]
	 Total Energy              =    -385.6802256316483408 [Eh]

	 ================> DF-SCS-MP2 Energies <==================
	-----------------------------------------------------------
	 SCS Same-Spin Scale       =       0.3333333333333333 [-]
	 SCS Opposite-Spin Scale   =       1.2000000000000000 [-]
	 SCS Same-Spin Energy      =      -0.1284947233275864 [Eh]
	 SCS Opposite-Spin Energy  =      -1.5489504372658449 [Eh]
	 SCS Correlation Energy    =      -1.6774451605934313 [Eh]
	 SCS Total Energy          =    -385.6813945912041390 [Eh]
	-----------------------------------------------------------

  Dipole Moment: [D]
     X:     0.7154      Y:    -1.1797      Z:     0.7887     Total:     1.5892

*** Psi4 exiting successfully. Buy a developer a beer!
