                               Psi4 1.3.2 release

  ==> Input File <==

--------------------------------------------------------------------------
#psi4
#
memory 32 gb

molecule  {
0 1
  O        0.4332560    -0.5778250     0.1734540
  O       -0.8408100     1.0912640    -0.7084360
  C        1.6346250     0.1623570    -0.1778450
  C        1.8980320     1.2173290     0.8789650
  C        2.7308080    -0.8763490    -0.2789480
  C       -1.9032168    -0.8566736     0.2796120
  C       -0.7451280     0.0062060    -0.1586260
  C       -3.2456700    -0.1986960     0.0285890
  H        1.4602790     0.6397420    -1.1462310
  H        2.8221420     1.7571320     0.6526510
  H        1.0777360     1.9358120     0.9100720
  H        2.0019030     0.7445150     1.8590670
  H        3.6747750    -0.4011320    -0.5598750
  H        2.4805410    -1.6278800    -1.0306640
  H        2.8646540    -1.3764140     0.6835210
  H       -1.8254340    -1.7987290    -0.3567280
  H       -1.7546250    -1.1827800     1.2758720
  H       -3.3759370     0.0860600    -1.0167370
  H       -4.0604800    -0.8690500     0.3134070
  H       -3.3166340     0.7089420     0.6308410
units angstrom
no_reorient  #important for SAPT in psi4, default
symmetry c1  #important for SAPT in psi4, default
}

set PROPERTIES_ORIGIN ["COM"]
properties('MP2/aug-cc-pvtz', properties = ['dipole'])
--------------------------------------------------------------------------

    Molecular point group: c1
  Charge       = 0
  Multiplicity = 1
  Basis Set: AUG-CC-PVTZ
    Blend: AUG-CC-PVTZ
  Basis Set: (AUG-CC-PVTZ AUX)
    Blend: AUG-CC-PVTZ-JKFIT

    Orbital Energies [Eh]
    ---------------------

    Doubly Occupied:

       1A    -20.595149     2A    -20.540674     3A    -11.377184
       4A    -11.289627     5A    -11.243355     6A    -11.220686
       7A    -11.218626     8A    -11.216371     9A     -1.447846
      10A     -1.349738    11A     -1.080582    12A     -1.045430
      13A     -0.944838    14A     -0.903499    15A     -0.815492
      16A     -0.760834    17A     -0.698922    18A     -0.668268
      19A     -0.654389    20A     -0.619224    21A     -0.605092
      22A     -0.572362    23A     -0.558772    24A     -0.548773
      25A     -0.536401    26A     -0.523537    27A     -0.511081
      28A     -0.505740    29A     -0.491514    30A     -0.479391
      31A     -0.451220    32A     -0.438906

  @DF-RHF Final Energy:  -384.08753064104326

   => Energetics <=

    Nuclear Repulsion Energy =            396.4105960332448717
    One-Electron Energy =               -1309.1692064073633901
    Two-Electron Energy =                 528.6710797330752030
    Total Energy =                       -384.0875306410432586
  Basis Set: (AUG-CC-PVTZ AUX)
    Blend: AUG-CC-PVTZ-RI
    Molecular point group: c1

    Geometry (in Angstrom), charge = 0, multiplicity = 1:

       Center              X                  Y                   Z               Mass
    ------------   -----------------  -----------------  -----------------  -----------------
         O            0.433432046789    -0.580132675929     0.168832313836    15.994914619570
         O           -0.840633953211     1.088956324071    -0.713057686164    15.994914619570
         C            1.634801046789     0.160049324071    -0.182466686164    12.000000000000
         C            1.898208046789     1.215021324071     0.874343313836    12.000000000000
         C            2.730984046789    -0.878656675929    -0.283569686164    12.000000000000
         C           -1.903040753211    -0.858981275929     0.274990313836    12.000000000000
         C           -0.744951953211     0.003898324071    -0.163247686164    12.000000000000
         C           -3.245493953211    -0.201003675929     0.023967313836    12.000000000000
         H            1.460455046789     0.637434324071    -1.150852686164     1.007825032230
         H            2.822318046789     1.754824324071     0.648029313836     1.007825032230
         H            1.077912046789     1.933504324071     0.905450313836     1.007825032230
         H            2.002079046789     0.742207324071     1.854445313836     1.007825032230
         H            3.674951046789    -0.403439675929    -0.564496686164     1.007825032230
         H            2.480717046789    -1.630187675929    -1.035285686164     1.007825032230
         H            2.864830046789    -1.378721675929     0.678899313836     1.007825032230
         H           -1.825257953211    -1.801036675929    -0.361349686164     1.007825032230
         H           -1.754448953211    -1.185087675929     1.271250313836     1.007825032230
         H           -3.375760953211     0.083752324071    -1.021358686164     1.007825032230
         H           -4.060303953211    -0.871357675929     0.308785313836     1.007825032230
         H           -3.316457953211     0.706634324071     0.626219313836     1.007825032230

  Basis Set: AUG-CC-PVTZ
    Blend: AUG-CC-PVTZ
  Basis Set: (AUG-CC-PVTZ AUX)
    Blend: AUG-CC-PVTZ-JKFIT
	 Reference Energy          =    -384.0875306410432586 [Eh]
	 Singles Energy            =      -0.0000000000000000 [Eh]
	 Same-Spin Energy          =      -0.3841271599436311 [Eh]
	 Opposite-Spin Energy      =      -1.2864084526788773 [Eh]
	 Correlation Energy        =      -1.6705356126225084 [Eh]
	 Total Energy              =    -385.7580662536657883 [Eh]

	 ================> DF-SCS-MP2 Energies <==================
	-----------------------------------------------------------
	 SCS Same-Spin Scale       =       0.3333333333333333 [-]
	 SCS Opposite-Spin Scale   =       1.2000000000000000 [-]
	 SCS Same-Spin Energy      =      -0.1280423866478770 [Eh]
	 SCS Opposite-Spin Energy  =      -1.5436901432146526 [Eh]
	 SCS Correlation Energy    =      -1.6717325298625296 [Eh]
	 SCS Total Energy          =    -385.7592631709057969 [Eh]
	-----------------------------------------------------------

  Dipole Moment: [D]
     X:     0.8076      Y:    -1.3056      Z:     0.7080     Total:     1.6905

*** Psi4 exiting successfully. Buy a developer a beer!
