                               Psi4 1.3.2 release

  ==> Input File <==

--------------------------------------------------------------------------
#psi4
#
memory 32 gb

molecule  {
0 1
  O        0.4332560    -0.5778250     0.1734540
  O       -0.8408100     1.0912640    -0.7084360
  C        1.6346250     0.1623570    -0.1778450
  C        1.8980320     1.2173290     0.8789650
  C        2.7308080    -0.8763490    -0.2789480
  C       -1.9015140    -0.8789960     0.2349040
  C       -0.7451280     0.0062060    -0.1586260
  C       -3.2456700    -0.1986960     0.0285890
  H        1.4602790     0.6397420    -1.1462310
  H        2.8221420     1.7571320     0.6526510
  H        1.0777360     1.9358120     0.9100720
  H        2.0019030     0.7445150     1.8590670
  H        3.6747750    -0.4011320    -0.5598750
  H        2.4805410    -1.6278800    -1.0306640
  H        2.8646540    -1.3764140     0.6835210
  H       -1.8254340    -1.7987290    -0.3567280
  H       -1.7546250    -1.1827800     1.2758720
  H       -3.3759370     0.0860600    -1.0167370
  H       -4.0604800    -0.8690500     0.3134070
  H       -3.3166340     0.7089420     0.6308410
units angstrom
no_reorient  #important for SAPT in psi4, default
symmetry c1  #important for SAPT in psi4, default
}

set PROPERTIES_ORIGIN ["COM"]
properties('MP2/aug-cc-pvtz', properties = ['dipole'])
--------------------------------------------------------------------------

    Molecular point group: c1
  Charge       = 0
  Multiplicity = 1
  Basis Set: AUG-CC-PVTZ
    Blend: AUG-CC-PVTZ
  Basis Set: (AUG-CC-PVTZ AUX)
    Blend: AUG-CC-PVTZ-JKFIT

    Orbital Energies [Eh]
    ---------------------

    Doubly Occupied:

       1A    -20.595233     2A    -20.540761     3A    -11.376959
       4A    -11.289648     5A    -11.242593     6A    -11.220756
       7A    -11.218566     8A    -11.216300     9A     -1.447887
      10A     -1.349771    11A     -1.080382    12A     -1.044817
      13A     -0.944830    14A     -0.903233    15A     -0.815673
      16A     -0.760681    17A     -0.698043    18A     -0.666615
      19A     -0.656458    20A     -0.620767    21A     -0.603211
      22A     -0.573032    23A     -0.557552    24A     -0.548887
      25A     -0.537161    26A     -0.519966    27A     -0.510308
      28A     -0.506047    29A     -0.494610    30A     -0.480494
      31A     -0.451048    32A     -0.439582

  @DF-RHF Final Energy:  -384.09016934070729

   => Energetics <=

    Nuclear Repulsion Energy =            396.3744910456462662
    One-Electron Energy =               -1309.1055787419372791
    Two-Electron Energy =                 528.6409183555838354
    Total Energy =                       -384.0901693407072344
  Basis Set: (AUG-CC-PVTZ AUX)
    Blend: AUG-CC-PVTZ-RI
    Molecular point group: c1

    Geometry (in Angstrom), charge = 0, multiplicity = 1:

       Center              X                  Y                   Z               Mass
    ------------   -----------------  -----------------  -----------------  -----------------
         O            0.433256022120    -0.577825127741     0.173453943428    15.994914619570
         O           -0.840809977880     1.091263872259    -0.708436056572    15.994914619570
         C            1.634625022120     0.162356872259    -0.177845056572    12.000000000000
         C            1.898032022120     1.217328872259     0.878964943428    12.000000000000
         C            2.730808022120    -0.876349127741    -0.278948056572    12.000000000000
         C           -1.901513977880    -0.878996127741     0.234903943428    12.000000000000
         C           -0.745127977880     0.006205872259    -0.158626056572    12.000000000000
         C           -3.245669977880    -0.198696127741     0.028588943428    12.000000000000
         H            1.460279022120     0.639741872259    -1.146231056572     1.007825032230
         H            2.822142022120     1.757131872259     0.652650943428     1.007825032230
         H            1.077736022120     1.935811872259     0.910071943428     1.007825032230
         H            2.001903022120     0.744514872259     1.859066943428     1.007825032230
         H            3.674775022120    -0.401132127741    -0.559875056572     1.007825032230
         H            2.480541022120    -1.627880127741    -1.030664056572     1.007825032230
         H            2.864654022120    -1.376414127741     0.683520943428     1.007825032230
         H           -1.825433977880    -1.798729127741    -0.356728056572     1.007825032230
         H           -1.754624977880    -1.182780127741     1.275871943428     1.007825032230
         H           -3.375936977880     0.086059872259    -1.016737056572     1.007825032230
         H           -4.060479977880    -0.869050127741     0.313406943428     1.007825032230
         H           -3.316633977880     0.708941872259     0.630840943428     1.007825032230

  Basis Set: AUG-CC-PVTZ
    Blend: AUG-CC-PVTZ
  Basis Set: (AUG-CC-PVTZ AUX)
    Blend: AUG-CC-PVTZ-JKFIT
	 Reference Energy          =    -384.0901693407072912 [Eh]
	 Singles Energy            =      -0.0000000000000000 [Eh]
	 Same-Spin Energy          =      -0.3840560643583565 [Eh]
	 Opposite-Spin Energy      =      -1.2862725468283549 [Eh]
	 Correlation Energy        =      -1.6703286111867115 [Eh]
	 Total Energy              =    -385.7604979518940240 [Eh]

	 ================> DF-SCS-MP2 Energies <==================
	-----------------------------------------------------------
	 SCS Same-Spin Scale       =       0.3333333333333333 [-]
	 SCS Opposite-Spin Scale   =       1.2000000000000000 [-]
	 SCS Same-Spin Energy      =      -0.1280186881194522 [Eh]
	 SCS Opposite-Spin Energy  =      -1.5435270561940257 [Eh]
	 SCS Correlation Energy    =      -1.6715457443134780 [Eh]
	 SCS Total Energy          =    -385.7617150850207963 [Eh]
	-----------------------------------------------------------

  Dipole Moment: [D]
     X:     0.8178      Y:    -1.3159      Z:     0.6857     Total:     1.6943

*** Psi4 exiting successfully. Buy a developer a beer!
