                               Psi4 1.3.2 release

  ==> Input File <==

--------------------------------------------------------------------------
#psi4
#
memory 32 gb

molecule  {
0 1
  O        0.4332560    -0.5778250     0.1734540
  O       -0.8408100     1.0912640    -0.7084360
  C        1.6346250     0.1623570    -0.1778450
  C        1.8980320     1.2173290     0.8789650
  C        2.7308080    -0.8763490    -0.2789480
  C       -1.9100278    -0.7673838     0.4584442
  C       -0.7451280     0.0062060    -0.1586260
  C       -3.2456700    -0.1986960     0.0285890
  H        1.4602790     0.6397420    -1.1462310
  H        2.8221420     1.7571320     0.6526510
  H        1.0777360     1.9358120     0.9100720
  H        2.0019030     0.7445150     1.8590670
  H        3.6747750    -0.4011320    -0.5598750
  H        2.4805410    -1.6278800    -1.0306640
  H        2.8646540    -1.3764140     0.6835210
  H       -1.8254340    -1.7987290    -0.3567280
  H       -1.7546250    -1.1827800     1.2758720
  H       -3.3759370     0.0860600    -1.0167370
  H       -4.0604800    -0.8690500     0.3134070
  H       -3.3166340     0.7089420     0.6308410
units angstrom
no_reorient  #important for SAPT in psi4, default
symmetry c1  #important for SAPT in psi4, default
}

set PROPERTIES_ORIGIN ["COM"]
properties('MP2/aug-cc-pvtz', properties = ['dipole'])
--------------------------------------------------------------------------

    Molecular point group: c1
  Charge       = 0
  Multiplicity = 1
  Basis Set: AUG-CC-PVTZ
    Blend: AUG-CC-PVTZ
  Basis Set: (AUG-CC-PVTZ AUX)
    Blend: AUG-CC-PVTZ-JKFIT

    Orbital Energies [Eh]
    ---------------------

    Doubly Occupied:

       1A    -20.594669     2A    -20.541126     3A    -11.381782
       4A    -11.289547     5A    -11.252540     6A    -11.223029
       7A    -11.220353     8A    -11.216676     9A     -1.447808
      10A     -1.350151    11A     -1.081205    12A     -1.048106
      13A     -0.944864    14A     -0.905659    15A     -0.821732
      16A     -0.764179    17A     -0.713479    18A     -0.670428
      19A     -0.650135    20A     -0.613903    21A     -0.605199
      22A     -0.573701    23A     -0.567108    24A     -0.549246
      25A     -0.546265    26A     -0.533878    27A     -0.511271
      28A     -0.505239    29A     -0.482906    30A     -0.456729
      31A     -0.449387    32A     -0.426382

  @DF-RHF Final Energy:  -384.02922322443453

   => Energetics <=

    Nuclear Repulsion Energy =            396.2433860239366368
    One-Electron Energy =               -1308.6678581948010560
    Two-Electron Energy =                 528.3952489464298878
    Total Energy =                       -384.0292232244345314
  Basis Set: (AUG-CC-PVTZ AUX)
    Blend: AUG-CC-PVTZ-RI
    Molecular point group: c1

    Geometry (in Angstrom), charge = 0, multiplicity = 1:

       Center              X                  Y                   Z               Mass
    ------------   -----------------  -----------------  -----------------  -----------------
         O            0.434136124787    -0.589362889357     0.150345774793    15.994914619570
         O           -0.839929875213     1.079726110643    -0.731544225207    15.994914619570
         C            1.635505124787     0.150819110643    -0.200953225207    12.000000000000
         C            1.898912124787     1.205791110643     0.855856774793    12.000000000000
         C            2.731688124787    -0.887886889357    -0.302056225207    12.000000000000
         C           -1.909147675213    -0.778921689357     0.435335974793    12.000000000000
         C           -0.744247875213    -0.005331889357    -0.181734225207    12.000000000000
         C           -3.244789875213    -0.210233889357     0.005480774793    12.000000000000
         H            1.461159124787     0.628204110643    -1.169339225207     1.007825032230
         H            2.823022124787     1.745594110643     0.629542774793     1.007825032230
         H            1.078616124787     1.924274110643     0.886963774793     1.007825032230
         H            2.002783124787     0.732977110643     1.835958774793     1.007825032230
         H            3.675655124787    -0.412669889357    -0.582983225207     1.007825032230
         H            2.481421124787    -1.639417889357    -1.053772225207     1.007825032230
         H            2.865534124787    -1.387951889357     0.660412774793     1.007825032230
         H           -1.824553875213    -1.810266889357    -0.379836225207     1.007825032230
         H           -1.753744875213    -1.194317889357     1.252763774793     1.007825032230
         H           -3.375056875213     0.074522110643    -1.039845225207     1.007825032230
         H           -4.059599875213    -0.880587889357     0.290298774793     1.007825032230
         H           -3.315753875213     0.697404110643     0.607732774793     1.007825032230

  Basis Set: AUG-CC-PVTZ
    Blend: AUG-CC-PVTZ
  Basis Set: (AUG-CC-PVTZ AUX)
    Blend: AUG-CC-PVTZ-JKFIT
	 Reference Energy          =    -384.0292232244345314 [Eh]
	 Singles Energy            =      -0.0000000000000000 [Eh]
	 Same-Spin Energy          =      -0.3850755360127647 [Eh]
	 Opposite-Spin Energy      =      -1.2894094002609906 [Eh]
	 Correlation Energy        =      -1.6744849362737553 [Eh]
	 Total Energy              =    -385.7037081607082882 [Eh]

	 ================> DF-SCS-MP2 Energies <==================
	-----------------------------------------------------------
	 SCS Same-Spin Scale       =       0.3333333333333333 [-]
	 SCS Opposite-Spin Scale   =       1.2000000000000000 [-]
	 SCS Same-Spin Energy      =      -0.1283585120042549 [Eh]
	 SCS Opposite-Spin Energy  =      -1.5472912803131886 [Eh]
	 SCS Correlation Energy    =      -1.6756497923174436 [Eh]
	 SCS Total Energy          =    -385.7048730167520034 [Eh]
	-----------------------------------------------------------

  Dipole Moment: [D]
     X:     0.7388      Y:    -1.2101      Z:     0.7778     Total:     1.6171

*** Psi4 exiting successfully. Buy a developer a beer!
