                               Psi4 1.3.2 release

  ==> Input File <==

--------------------------------------------------------------------------
#psi4
#
memory 32 gb

molecule  {
0 1
 Cl        1.4875760    -0.8585340    -1.4502940
 Cl        1.6673240     1.6297210    -0.0000070
 Cl        1.4875730    -0.8585200     1.4503030
  C       -0.5967930     0.0636340    -0.0000010
  C       -1.2383418    -1.1842079    -0.0000010
  C       -1.3211830     1.2579990    -0.0000020
  C        0.9157560     0.0178650    -0.0000010
  C       -2.6727010    -1.1855470     0.0000010
  C       -2.7178890     1.2245560     0.0000000
  C       -3.3986470     0.0087400    -0.0000010
  H       -0.7254190    -2.0945270     0.0000000
  H       -0.8108600     2.2139340    -0.0000010
  H       -3.1911200    -2.1409440     0.0000000
  H       -3.2714520     2.1600600    -0.0000020
  H       -4.4854430    -0.0109760     0.0000010
units angstrom
no_reorient  #important for SAPT in psi4, default
symmetry c1  #important for SAPT in psi4, default
}

set PROPERTIES_ORIGIN ["COM"]
properties('MP2/aug-cc-pvtz', properties = ['dipole'])
--------------------------------------------------------------------------

    Molecular point group: c1
  Charge       = 0
  Multiplicity = 1
  Basis Set: AUG-CC-PVTZ
    Blend: AUG-CC-PVTZ
  Basis Set: (AUG-CC-PVTZ AUX)
    Blend: AUG-CC-PVTZ-JKFIT

    Orbital Energies [Eh]
    ---------------------

    Doubly Occupied:

       1A   -104.860237     2A   -104.856724     3A   -104.856724
       4A    -11.441293     5A    -11.276864     6A    -11.259024
       7A    -11.257676     8A    -11.257603     9A    -11.254624
      10A    -11.252880    11A    -10.584801    12A    -10.581260
      13A    -10.581251    14A     -8.051534    15A     -8.049478
      16A     -8.049471    17A     -8.047964    18A     -8.047964
      19A     -8.045888    20A     -8.045888    21A     -8.045842
      22A     -8.045842    23A     -1.248953    24A     -1.161447
      25A     -1.109404    26A     -1.104751    27A     -1.044350
      28A     -1.028707    29A     -0.891241    30A     -0.850087
      31A     -0.792418    32A     -0.721821    33A     -0.666658
      34A     -0.657795    35A     -0.627823    36A     -0.625384
      37A     -0.607900    38A     -0.596003    39A     -0.530781
      40A     -0.526218    41A     -0.516512    42A     -0.494863
      43A     -0.493840    44A     -0.466493    45A     -0.456069
      46A     -0.454567    47A     -0.443487    48A     -0.353941
      49A     -0.347629

  @DF-RHF Final Energy: -1646.60505452527036

   => Energetics <=

    Nuclear Repulsion Energy =            773.5581637315713124
    One-Electron Energy =               -3807.1864854349587404
    Two-Electron Energy =                1387.0232671781170666
    Total Energy =                      -1646.6050545252703614
  Basis Set: (AUG-CC-PVTZ AUX)
    Blend: AUG-CC-PVTZ-RI
    Molecular point group: c1

    Geometry (in Angstrom), charge = 0, multiplicity = 1:

       Center              X                  Y                   Z               Mass
    ------------   -----------------  -----------------  -----------------  -----------------
         CL           1.397847863099    -0.856013085155    -1.450294040847    34.968852682000
         CL           1.577595863099     1.632241914845    -0.000007040847    34.968852682000
         CL           1.397844863099    -0.855999085155     1.450302959153    34.968852682000
         C           -0.686521136901     0.066154914845    -0.000001040847    12.000000000000
         C           -1.328069936901    -1.181686985155    -0.000001040847    12.000000000000
         C           -1.410911136901     1.260519914845    -0.000002040847    12.000000000000
         C            0.826027863099     0.020385914845    -0.000001040847    12.000000000000
         C           -2.762429136901    -1.183026085155     0.000000959153    12.000000000000
         C           -2.807617136901     1.227076914845    -0.000000040847    12.000000000000
         C           -3.488375136901     0.011260914845    -0.000001040847    12.000000000000
         H           -0.815147136901    -2.092006085155    -0.000000040847     1.007825032230
         H           -0.900588136901     2.216454914845    -0.000001040847     1.007825032230
         H           -3.280848136901    -2.138423085155    -0.000000040847     1.007825032230
         H           -3.361180136901     2.162580914845    -0.000002040847     1.007825032230
         H           -4.575171136901    -0.008455085155     0.000000959153     1.007825032230

  Basis Set: AUG-CC-PVTZ
    Blend: AUG-CC-PVTZ
  Basis Set: (AUG-CC-PVTZ AUX)
    Blend: AUG-CC-PVTZ-JKFIT
	 Reference Energy          =   -1646.6050545252703614 [Eh]
	 Singles Energy            =      -0.0000000000000000 [Eh]
	 Same-Spin Energy          =      -0.4969118570676173 [Eh]
	 Opposite-Spin Energy      =      -1.4653118473805451 [Eh]
	 Correlation Energy        =      -1.9622237044481623 [Eh]
	 Total Energy              =   -1648.5672782297185677 [Eh]

	 ================> DF-SCS-MP2 Energies <==================
	-----------------------------------------------------------
	 SCS Same-Spin Scale       =       0.3333333333333333 [-]
	 SCS Opposite-Spin Scale   =       1.2000000000000000 [-]
	 SCS Same-Spin Energy      =      -0.1656372856892058 [Eh]
	 SCS Opposite-Spin Energy  =      -1.7583742168566541 [Eh]
	 SCS Correlation Energy    =      -1.9240115025458597 [Eh]
	 SCS Total Energy          =   -1648.5290660278162704 [Eh]
	-----------------------------------------------------------

  Dipole Moment: [D]
     X:    -2.2935      Y:     0.0699      Z:    -0.0000     Total:     2.2946

*** Psi4 exiting successfully. Buy a developer a beer!
