                               Psi4 1.4a3.dev225

  ==> Input File <==

--------------------------------------------------------------------------
#psi4
#
memory 32 gb

molecule  {
0 1
 Cl        1.4875760    -0.8585340    -1.4502940
 Cl        1.6673240     1.6297210    -0.0000070
 Cl        1.4875730    -0.8585200     1.4503030
  C       -0.5967930     0.0636340    -0.0000010
  C       -1.2815000    -1.1610580    -0.0000010
  C       -1.3211830     1.2579990    -0.0000020
  C        0.9657331     0.0163527    -0.0000010
  C       -2.6727010    -1.1855470     0.0000010
  C       -2.7178890     1.2245560     0.0000000
  C       -3.3986470     0.0087400    -0.0000010
  H       -0.7254190    -2.0945270     0.0000000
  H       -0.8108600     2.2139340    -0.0000010
  H       -3.1911200    -2.1409440     0.0000000
  H       -3.2714520     2.1600600    -0.0000020
  H       -4.4854430    -0.0109760     0.0000010
units angstrom
no_reorient  #important for SAPT in psi4, default
symmetry c1  #important for SAPT in psi4, default
}

set PROPERTIES_ORIGIN ["COM"]
properties('MP2/aug-cc-pvtz', properties = ['dipole'])
--------------------------------------------------------------------------

    Molecular point group: c1
  Charge       = 0
  Multiplicity = 1
  Basis Set: AUG-CC-PVTZ
    Blend: AUG-CC-PVTZ
  Basis Set: (AUG-CC-PVTZ AUX)
    Blend: AUG-CC-PVTZ-JKFIT

    Orbital Energies [Eh]
    ---------------------

    Doubly Occupied:

       1A   -104.862284     2A   -104.858156     3A   -104.858156
       4A    -11.441434     5A    -11.277672     6A    -11.255494
       7A    -11.255050     8A    -11.252753     9A    -11.251011
      10A    -11.250446    11A    -10.587132    12A    -10.582892
      13A    -10.582883    14A     -8.053907    15A     -8.051800
      16A     -8.051789    17A     -8.049634    18A     -8.049633
      19A     -8.047522    20A     -8.047522    21A     -8.047472
      22A     -8.047471    23A     -1.251506    24A     -1.163852
      25A     -1.114114    26A     -1.109000    27A     -1.037908
      28A     -1.030748    29A     -0.883981    30A     -0.843677
      31A     -0.795228    32A     -0.719832    33A     -0.658508
      34A     -0.657472    35A     -0.631009    36A     -0.622965
      37A     -0.607007    38A     -0.600946    39A     -0.530384
      40A     -0.527731    41A     -0.512418    42A     -0.496101
      43A     -0.495784    44A     -0.459712    45A     -0.459358
      46A     -0.457974    47A     -0.445466    48A     -0.353518
      49A     -0.348033

  @DF-RHF Final Energy: -1646.60742920779307

   => Energetics <=

    Nuclear Repulsion Energy =            773.7060161667080820
    One-Electron Energy =               -3807.4741931360622402
    Two-Electron Energy =                1387.1607477615609696
    Total Energy =                      -1646.6074292077930750
  Basis Set: (AUG-CC-PVTZ AUX)
    Blend: AUG-CC-PVTZ-RI
    Molecular point group: c1

    Geometry (in Angstrom), charge = 0, multiplicity = 1:

       Center              X                  Y                   Z               Mass
    ------------   -----------------  -----------------  -----------------  -----------------
         CL           1.397425957343    -0.857351868240    -1.450294040847    34.968852682000
         CL           1.577173957343     1.630903131760    -0.000007040847    34.968852682000
         CL           1.397422957343    -0.857337868240     1.450302959153    34.968852682000
         C           -0.686943042657     0.064816131760    -0.000001040847    12.000000000000
         C           -1.371650042657    -1.159875868240    -0.000001040847    12.000000000000
         C           -1.411333042657     1.259181131760    -0.000002040847    12.000000000000
         C            0.875583057343     0.017534831760    -0.000001040847    12.000000000000
         C           -2.762851042657    -1.184364868240     0.000000959153    12.000000000000
         C           -2.808039042657     1.225738131760    -0.000000040847    12.000000000000
         C           -3.488797042657     0.009922131760    -0.000001040847    12.000000000000
         H           -0.815569042657    -2.093344868240    -0.000000040847     1.007825032230
         H           -0.901010042657     2.215116131760    -0.000001040847     1.007825032230
         H           -3.281270042657    -2.139761868240    -0.000000040847     1.007825032230
         H           -3.361602042657     2.161242131760    -0.000002040847     1.007825032230
         H           -4.575593042657    -0.009793868240     0.000000959153     1.007825032230

  Basis Set: AUG-CC-PVTZ
    Blend: AUG-CC-PVTZ
  Basis Set: (AUG-CC-PVTZ AUX)
    Blend: AUG-CC-PVTZ-JKFIT
	 Reference Energy          =   -1646.6074292077930750 [Eh]
	 Singles Energy            =      -0.0000000000000000 [Eh]
	 Same-Spin Energy          =      -0.4966922004351386 [Eh]
	 Opposite-Spin Energy      =      -1.4644694211023068 [Eh]
	 Correlation Energy        =      -1.9611616215374454 [Eh]
	 Total Energy              =   -1648.5685908293305602 [Eh]

	 ================> DF-SCS-MP2 Energies <==================
	-----------------------------------------------------------
	 SCS Same-Spin Scale       =       0.3333333333333333 [-]
	 SCS Opposite-Spin Scale   =       1.2000000000000000 [-]
	 SCS Same-Spin Energy      =      -0.1655640668117129 [Eh]
	 SCS Opposite-Spin Energy  =      -1.7573633053227682 [Eh]
	 SCS Correlation Energy    =      -1.9229273721344811 [Eh]
	 SCS Total Energy          =   -1648.5303565799274566 [Eh]
	-----------------------------------------------------------

  Dipole Moment: [D]
     X:    -2.0597      Y:     0.0853      Z:    -0.0000     Total:     2.0614

*** Psi4 exiting successfully. Buy a developer a beer!
