                               Psi4 1.3.2 release

  ==> Input File <==

--------------------------------------------------------------------------
#psi4
#
memory 32 gb

molecule  {
0 1
 Cl        1.4875760    -0.8585340    -1.4502940
 Cl        1.6673240     1.6297210    -0.0000070
 Cl        1.4875730    -0.8585200     1.4503030
  C       -0.5967930     0.0636340    -0.0000010
  C       -1.1497339    -1.2259204    -0.0000010
  C       -1.3211830     1.2579990    -0.0000020
  C        0.9157560     0.0178650    -0.0000010
  C       -2.6727010    -1.1855470     0.0000010
  C       -2.7178890     1.2245560     0.0000000
  C       -3.3986470     0.0087400    -0.0000010
  H       -0.7254190    -2.0945270     0.0000000
  H       -0.8108600     2.2139340    -0.0000010
  H       -3.1911200    -2.1409440     0.0000000
  H       -3.2714520     2.1600600    -0.0000020
  H       -4.4854430    -0.0109760     0.0000010
units angstrom
no_reorient  #important for SAPT in psi4, default
symmetry c1  #important for SAPT in psi4, default
}

set PROPERTIES_ORIGIN ["COM"]
properties('MP2/aug-cc-pvtz', properties = ['dipole'])
--------------------------------------------------------------------------

    Molecular point group: c1
  Charge       = 0
  Multiplicity = 1
  Basis Set: AUG-CC-PVTZ
    Blend: AUG-CC-PVTZ
  Basis Set: (AUG-CC-PVTZ AUX)
    Blend: AUG-CC-PVTZ-JKFIT

    Orbital Energies [Eh]
    ---------------------

    Doubly Occupied:

       1A   -104.858643     2A   -104.856269     3A   -104.856268
       4A    -11.439228     5A    -11.280121     6A    -11.267153
       7A    -11.262749     8A    -11.258000     9A    -11.255895
      10A    -11.254250    11A    -10.583267    12A    -10.580851
      13A    -10.580843    14A     -8.049997    15A     -8.047958
      16A     -8.047947    17A     -8.047551    18A     -8.047550
      19A     -8.045482    20A     -8.045482    21A     -8.045433
      22A     -8.045433    23A     -1.249101    24A     -1.155855
      25A     -1.108921    26A     -1.104561    27A     -1.047517
      28A     -1.022381    29A     -0.889649    30A     -0.858476
      31A     -0.789327    32A     -0.726035    33A     -0.679509
      34A     -0.655382    35A     -0.630249    36A     -0.627351
      37A     -0.606984    38A     -0.591066    39A     -0.535719
      40A     -0.524290    41A     -0.509805    42A     -0.494730
      43A     -0.491855    44A     -0.463322    45A     -0.455584
      46A     -0.453987    47A     -0.443056    48A     -0.356462
      49A     -0.340129

  @DF-RHF Final Energy: -1646.57760376476426

   => Energetics <=

    Nuclear Repulsion Energy =            773.4300526226472812
    One-Electron Energy =               -3806.8799706893937582
    Two-Electron Energy =                1386.8723143019819872
    Total Energy =                      -1646.5776037647642625
  Basis Set: (AUG-CC-PVTZ AUX)
    Blend: AUG-CC-PVTZ-RI
    Molecular point group: c1

    Geometry (in Angstrom), charge = 0, multiplicity = 1:

       Center              X                  Y                   Z               Mass
    ------------   -----------------  -----------------  -----------------  -----------------
         CL           1.392365427076    -0.853432207913    -1.450294040847    34.968852682000
         CL           1.572113427076     1.634822792087    -0.000007040847    34.968852682000
         CL           1.392362427076    -0.853418207913     1.450302959153    34.968852682000
         C           -0.692003572924     0.068735792087    -0.000001040847    12.000000000000
         C           -1.244944472924    -1.220818607913    -0.000001040847    12.000000000000
         C           -1.416393572924     1.263100792087    -0.000002040847    12.000000000000
         C            0.820545427076     0.022966792087    -0.000001040847    12.000000000000
         C           -2.767911572924    -1.180445207913     0.000000959153    12.000000000000
         C           -2.813099572924     1.229657792087    -0.000000040847    12.000000000000
         C           -3.493857572924     0.013841792087    -0.000001040847    12.000000000000
         H           -0.820629572924    -2.089425207913    -0.000000040847     1.007825032230
         H           -0.906070572924     2.219035792087    -0.000001040847     1.007825032230
         H           -3.286330572924    -2.135842207913    -0.000000040847     1.007825032230
         H           -3.366662572924     2.165161792087    -0.000002040847     1.007825032230
         H           -4.580653572924    -0.005874207913     0.000000959153     1.007825032230

  Basis Set: AUG-CC-PVTZ
    Blend: AUG-CC-PVTZ
  Basis Set: (AUG-CC-PVTZ AUX)
    Blend: AUG-CC-PVTZ-JKFIT
	 Reference Energy          =   -1646.5776037647642625 [Eh]
	 Singles Energy            =      -0.0000000000000000 [Eh]
	 Same-Spin Energy          =      -0.4976156614164557 [Eh]
	 Opposite-Spin Energy      =      -1.4676340243738790 [Eh]
	 Correlation Energy        =      -1.9652496857903348 [Eh]
	 Total Energy              =   -1648.5428534505545031 [Eh]

	 ================> DF-SCS-MP2 Energies <==================
	-----------------------------------------------------------
	 SCS Same-Spin Scale       =       0.3333333333333333 [-]
	 SCS Opposite-Spin Scale   =       1.2000000000000000 [-]
	 SCS Same-Spin Energy      =      -0.1658718871388186 [Eh]
	 SCS Opposite-Spin Energy  =      -1.7611608292486547 [Eh]
	 SCS Correlation Energy    =      -1.9270327163874732 [Eh]
	 SCS Total Energy          =   -1648.5046364811516924 [Eh]
	-----------------------------------------------------------

  Dipole Moment: [D]
     X:    -2.3501      Y:     0.0621      Z:    -0.0000     Total:     2.3510

*** Psi4 exiting successfully. Buy a developer a beer!
