                               Psi4 1.3.2 release

  ==> Input File <==

--------------------------------------------------------------------------
#psi4
#
memory 32 gb

molecule  {
0 1
 Cl        1.5463435    -0.8491501    -1.4314504
 Cl        1.6673240     1.6297210    -0.0000070
 Cl        1.4875730    -0.8585200     1.4503030
  C       -0.5967930     0.0636340    -0.0000010
  C       -1.2815000    -1.1610580    -0.0000010
  C       -1.3211830     1.2579990    -0.0000020
  C        0.9157560     0.0178650    -0.0000010
  C       -2.6727010    -1.1855470     0.0000010
  C       -2.7178890     1.2245560     0.0000000
  C       -3.3986470     0.0087400    -0.0000010
  H       -0.7254190    -2.0945270     0.0000000
  H       -0.8108600     2.2139340    -0.0000010
  H       -3.1911200    -2.1409440     0.0000000
  H       -3.2714520     2.1600600    -0.0000020
  H       -4.4854430    -0.0109760     0.0000010
units angstrom
no_reorient  #important for SAPT in psi4, default
symmetry c1  #important for SAPT in psi4, default
}

set PROPERTIES_ORIGIN ["COM"]
properties('MP2/aug-cc-pvtz', properties = ['dipole'])
--------------------------------------------------------------------------

    Molecular point group: c1
  Charge       = 0
  Multiplicity = 1
  Basis Set: AUG-CC-PVTZ
    Blend: AUG-CC-PVTZ
  Basis Set: (AUG-CC-PVTZ AUX)
    Blend: AUG-CC-PVTZ-JKFIT

    Orbital Energies [Eh]
    ---------------------

    Doubly Occupied:

       1A   -104.859979     2A   -104.856606     3A   -104.855999
       4A    -11.442312     5A    -11.276455     6A    -11.258441
       7A    -11.257852     8A    -11.255548     9A    -11.252832
      10A    -11.252295    11A    -10.584594    12A    -10.581119
      13A    -10.580580    14A     -8.051324    15A     -8.049261
      16A     -8.049256    17A     -8.047832    18A     -8.047288
      19A     -8.045747    20A     -8.045705    21A     -8.045209
      22A     -8.045165    23A     -1.248977    24A     -1.165832
      25A     -1.108881    26A     -1.103578    27A     -1.044139
      28A     -1.032935    29A     -0.893055    30A     -0.846443
      31A     -0.795009    32A     -0.721089    33A     -0.662640
      34A     -0.659566    35A     -0.627271    36A     -0.624738
      37A     -0.606790    38A     -0.597467    39A     -0.531920
      40A     -0.527406    41A     -0.514340    42A     -0.495434
      43A     -0.494422    44A     -0.469084    45A     -0.454709
      46A     -0.453071    47A     -0.442215    48A     -0.355710
      49A     -0.350527

  @DF-RHF Final Energy: -1646.60909322793327

   => Energetics <=

    Nuclear Repulsion Energy =            773.4114479442347374
    One-Electron Energy =               -3806.9037910083297902
    Two-Electron Energy =                1386.8832498361618946
    Total Energy =                      -1646.6090932279332719
  Basis Set: (AUG-CC-PVTZ AUX)
    Blend: AUG-CC-PVTZ-RI
    Molecular point group: c1

    Geometry (in Angstrom), charge = 0, multiplicity = 1:

       Center              X                  Y                   Z               Mass
    ------------   -----------------  -----------------  -----------------  -----------------
         CL           1.448689774735    -0.849753477517    -1.434847985260    34.968852682000
         CL           1.569670274735     1.629117622483    -0.003404585260    34.968852682000
         CL           1.389919274735    -0.859123377517     1.446905414740    34.968852682000
         C           -0.694446725265     0.063030622483    -0.003398585260    12.000000000000
         C           -1.379153725265    -1.161661377517    -0.003398585260    12.000000000000
         C           -1.418836725265     1.257395622483    -0.003399585260    12.000000000000
         C            0.818102274735     0.017261622483    -0.003398585260    12.000000000000
         C           -2.770354725265    -1.186150377517    -0.003396585260    12.000000000000
         C           -2.815542725265     1.223952622483    -0.003397585260    12.000000000000
         C           -3.496300725265     0.008136622483    -0.003398585260    12.000000000000
         H           -0.823072725265    -2.095130377517    -0.003397585260     1.007825032230
         H           -0.908513725265     2.213330622483    -0.003398585260     1.007825032230
         H           -3.288773725265    -2.141547377517    -0.003397585260     1.007825032230
         H           -3.369105725265     2.159456622483    -0.003399585260     1.007825032230
         H           -4.583096725265    -0.011579377517    -0.003396585260     1.007825032230

  Basis Set: AUG-CC-PVTZ
    Blend: AUG-CC-PVTZ
  Basis Set: (AUG-CC-PVTZ AUX)
    Blend: AUG-CC-PVTZ-JKFIT
	 Reference Energy          =   -1646.6090932279332719 [Eh]
	 Singles Energy            =      -0.0000000000000000 [Eh]
	 Same-Spin Energy          =      -0.4966309298572897 [Eh]
	 Opposite-Spin Energy      =      -1.4645592278858042 [Eh]
	 Correlation Energy        =      -1.9611901577430939 [Eh]
	 Total Energy              =   -1648.5702833856764755 [Eh]

	 ================> DF-SCS-MP2 Energies <==================
	-----------------------------------------------------------
	 SCS Same-Spin Scale       =       0.3333333333333333 [-]
	 SCS Opposite-Spin Scale   =       1.2000000000000000 [-]
	 SCS Same-Spin Energy      =      -0.1655436432857632 [Eh]
	 SCS Opposite-Spin Energy  =      -1.7574710734629650 [Eh]
	 SCS Correlation Energy    =      -1.9230147167487281 [Eh]
	 SCS Total Energy          =   -1648.5321079446819112 [Eh]
	-----------------------------------------------------------

  Dipole Moment: [D]
     X:    -2.3297      Y:     0.0790      Z:    -0.0106     Total:     2.3311

*** Psi4 exiting successfully. Buy a developer a beer!
