                               Psi4 1.4a3.dev225

  ==> Input File <==

--------------------------------------------------------------------------
#psi4
#
memory 32 gb

molecule  {
0 1
 Cl        1.4875760    -0.8585340    -1.4502940
 Cl        1.6673240     1.6297210    -0.0000070
 Cl        1.4875730    -0.8585200     1.4503030
  C       -0.5967930     0.0636340    -0.0000010
  C       -1.2815000    -1.1610580    -0.0000010
  C       -1.3211830     1.2579990    -0.0000020
  C        0.8957652     0.0184699    -0.0000010
  C       -2.6727010    -1.1855470     0.0000010
  C       -2.7178890     1.2245560     0.0000000
  C       -3.3986470     0.0087400    -0.0000010
  H       -0.7254190    -2.0945270     0.0000000
  H       -0.8108600     2.2139340    -0.0000010
  H       -3.1911200    -2.1409440     0.0000000
  H       -3.2714520     2.1600600    -0.0000020
  H       -4.4854430    -0.0109760     0.0000010
units angstrom
no_reorient  #important for SAPT in psi4, default
symmetry c1  #important for SAPT in psi4, default
}

set PROPERTIES_ORIGIN ["COM"]
properties('MP2/aug-cc-pvtz', properties = ['dipole'])
--------------------------------------------------------------------------

    Molecular point group: c1
  Charge       = 0
  Multiplicity = 1
  Basis Set: AUG-CC-PVTZ
    Blend: AUG-CC-PVTZ
  Basis Set: (AUG-CC-PVTZ AUX)
    Blend: AUG-CC-PVTZ-JKFIT

    Orbital Energies [Eh]
    ---------------------

    Doubly Occupied:

       1A   -104.860446     2A   -104.856362     3A   -104.856362
       4A    -11.442707     5A    -11.274841     6A    -11.258664
       7A    -11.258033     8A    -11.255789     9A    -11.252946
      10A    -11.252355    11A    -10.584855    12A    -10.580787
      13A    -10.580779    14A     -8.051572    15A     -8.049525
      16A     -8.049521    17A     -8.047480    18A     -8.047479
      19A     -8.045412    20A     -8.045412    21A     -8.045369
      22A     -8.045369    23A     -1.248133    24A     -1.165523
      25A     -1.107838    26A     -1.103090    27A     -1.045681
      28A     -1.033092    29A     -0.896281    30A     -0.846989
      31A     -0.794607    32A     -0.720961    33A     -0.663325
      34A     -0.660374    35A     -0.627012    36A     -0.624765
      37A     -0.606779    38A     -0.595090    39A     -0.531772
      40A     -0.527702    41A     -0.514493    42A     -0.494552
      43A     -0.493964    44A     -0.470571    45A     -0.454889
      46A     -0.453128    47A     -0.442906    48A     -0.355838
      49A     -0.350214

  @DF-RHF Final Energy: -1646.60870142475414

   => Energetics <=

    Nuclear Repulsion Energy =            773.7050543845923585
    One-Electron Energy =               -3807.4842446371712867
    Two-Electron Energy =                1387.1704888278245562
    Total Energy =                      -1646.6087014247541447
  Basis Set: (AUG-CC-PVTZ AUX)
    Blend: AUG-CC-PVTZ-RI
    Molecular point group: c1

    Geometry (in Angstrom), charge = 0, multiplicity = 1:

       Center              X                  Y                   Z               Mass
    ------------   -----------------  -----------------  -----------------  -----------------
         CL           1.401755080766    -0.857482865742    -1.450294040847    34.968852682000
         CL           1.581503080766     1.630772134258    -0.000007040847    34.968852682000
         CL           1.401752080766    -0.857468865742     1.450302959153    34.968852682000
         C           -0.682613919234     0.064685134258    -0.000001040847    12.000000000000
         C           -1.367320919234    -1.160006865742    -0.000001040847    12.000000000000
         C           -1.407003919234     1.259050134258    -0.000002040847    12.000000000000
         C            0.809944280766     0.019521034258    -0.000001040847    12.000000000000
         C           -2.758521919234    -1.184495865742     0.000000959153    12.000000000000
         C           -2.803709919234     1.225607134258    -0.000000040847    12.000000000000
         C           -3.484467919234     0.009791134258    -0.000001040847    12.000000000000
         H           -0.811239919234    -2.093475865742    -0.000000040847     1.007825032230
         H           -0.896680919234     2.214985134258    -0.000001040847     1.007825032230
         H           -3.276940919234    -2.139892865742    -0.000000040847     1.007825032230
         H           -3.357272919234     2.161111134258    -0.000002040847     1.007825032230
         H           -4.571263919234    -0.009924865742     0.000000959153     1.007825032230

  Basis Set: AUG-CC-PVTZ
    Blend: AUG-CC-PVTZ
  Basis Set: (AUG-CC-PVTZ AUX)
    Blend: AUG-CC-PVTZ-JKFIT
	 Reference Energy          =   -1646.6087014247541447 [Eh]
	 Singles Energy            =      -0.0000000000000000 [Eh]
	 Same-Spin Energy          =      -0.4967875052111003 [Eh]
	 Opposite-Spin Energy      =      -1.4649426114768676 [Eh]
	 Correlation Energy        =      -1.9617301166879679 [Eh]
	 Total Energy              =   -1648.5704315414420762 [Eh]

	 ================> DF-SCS-MP2 Energies <==================
	-----------------------------------------------------------
	 SCS Same-Spin Scale       =       0.3333333333333333 [-]
	 SCS Opposite-Spin Scale   =       1.2000000000000000 [-]
	 SCS Same-Spin Energy      =      -0.1655958350703667 [Eh]
	 SCS Opposite-Spin Energy  =      -1.7579311337722410 [Eh]
	 SCS Correlation Energy    =      -1.9235269688426078 [Eh]
	 SCS Total Energy          =   -1648.5322283935968244 [Eh]
	-----------------------------------------------------------

  Dipole Moment: [D]
     X:    -2.3626      Y:     0.0836      Z:    -0.0000     Total:     2.3641

*** Psi4 exiting successfully. Buy a developer a beer!
