                               Psi4 1.3.2 release

  ==> Input File <==

--------------------------------------------------------------------------
#psi4
#
memory 32 gb

molecule  {
0 1
 Cl        1.4875760    -0.8585340    -1.4502940
 Cl        1.6673240     1.6297210    -0.0000070
 Cl        1.4875730    -0.8585200     1.4503030
  C       -0.5967930     0.0636340    -0.0000010
  C       -1.2600219    -1.1728213    -0.0000010
  C       -1.3211830     1.2579990    -0.0000020
  C        0.9157560     0.0178650    -0.0000010
  C       -2.6727010    -1.1855470     0.0000010
  C       -2.7178890     1.2245560     0.0000000
  C       -3.3986470     0.0087400    -0.0000010
  H       -0.7254190    -2.0945270     0.0000000
  H       -0.8108600     2.2139340    -0.0000010
  H       -3.1911200    -2.1409440     0.0000000
  H       -3.2714520     2.1600600    -0.0000020
  H       -4.4854430    -0.0109760     0.0000010
units angstrom
no_reorient  #important for SAPT in psi4, default
symmetry c1  #important for SAPT in psi4, default
}

set PROPERTIES_ORIGIN ["COM"]
properties('MP2/aug-cc-pvtz', properties = ['dipole'])
--------------------------------------------------------------------------

    Molecular point group: c1
  Charge       = 0
  Multiplicity = 1
  Basis Set: AUG-CC-PVTZ
    Blend: AUG-CC-PVTZ
  Basis Set: (AUG-CC-PVTZ AUX)
    Blend: AUG-CC-PVTZ-JKFIT

    Orbital Energies [Eh]
    ---------------------

    Doubly Occupied:

       1A   -104.860625     2A   -104.856829     3A   -104.856828
       4A    -11.441832     5A    -11.276260     6A    -11.258018
       7A    -11.257660     8A    -11.255462     9A    -11.254274
      10A    -11.252341    11A    -10.585174    12A    -10.581353
      13A    -10.581345    14A     -8.051907    15A     -8.049848
      16A     -8.049841    17A     -8.048059    18A     -8.048058
      19A     -8.045981    20A     -8.045981    21A     -8.045936
      22A     -8.045935    23A     -1.248961    24A     -1.163178
      25A     -1.109536    26A     -1.104798    27A     -1.043736
      28A     -1.030543    29A     -0.891935    30A     -0.848006
      31A     -0.793530    32A     -0.721172    33A     -0.664086
      34A     -0.658601    35A     -0.627960    36A     -0.624510
      37A     -0.607422    38A     -0.596789    39A     -0.530726
      40A     -0.526927    41A     -0.515761    42A     -0.494797
      43A     -0.494383    44A     -0.467095    45A     -0.456196
      46A     -0.454590    47A     -0.443589    48A     -0.354087
      49A     -0.348994

  @DF-RHF Final Energy: -1646.60789465776861

   => Energetics <=

    Nuclear Repulsion Energy =            773.6253727636661779
    One-Electron Energy =               -3807.3236189019125959
    Two-Electron Energy =                1387.0903514804776933
    Total Energy =                      -1646.6078946577686111
  Basis Set: (AUG-CC-PVTZ AUX)
    Blend: AUG-CC-PVTZ-RI
    Molecular point group: c1

    Geometry (in Angstrom), charge = 0, multiplicity = 1:

       Center              X                  Y                   Z               Mass
    ------------   -----------------  -----------------  -----------------  -----------------
         CL           1.399189275785    -0.856717608183    -1.450294040847    34.968852682000
         CL           1.578937275785     1.631537391817    -0.000007040847    34.968852682000
         CL           1.399186275785    -0.856703608183     1.450302959153    34.968852682000
         C           -0.685179724215     0.065450391817    -0.000001040847    12.000000000000
         C           -1.348408624215    -1.171004908183    -0.000001040847    12.000000000000
         C           -1.409569724215     1.259815391817    -0.000002040847    12.000000000000
         C            0.827369275785     0.019681391817    -0.000001040847    12.000000000000
         C           -2.761087724215    -1.183730608183     0.000000959153    12.000000000000
         C           -2.806275724215     1.226372391817    -0.000000040847    12.000000000000
         C           -3.487033724215     0.010556391817    -0.000001040847    12.000000000000
         H           -0.813805724215    -2.092710608183    -0.000000040847     1.007825032230
         H           -0.899246724215     2.215750391817    -0.000001040847     1.007825032230
         H           -3.279506724215    -2.139127608183    -0.000000040847     1.007825032230
         H           -3.359838724215     2.161876391817    -0.000002040847     1.007825032230
         H           -4.573829724215    -0.009159608183     0.000000959153     1.007825032230

  Basis Set: AUG-CC-PVTZ
    Blend: AUG-CC-PVTZ
  Basis Set: (AUG-CC-PVTZ AUX)
    Blend: AUG-CC-PVTZ-JKFIT
	 Reference Energy          =   -1646.6078946577686111 [Eh]
	 Singles Energy            =      -0.0000000000000000 [Eh]
	 Same-Spin Energy          =      -0.4968010921605657 [Eh]
	 Opposite-Spin Energy      =      -1.4649736576536336 [Eh]
	 Correlation Energy        =      -1.9617747498141993 [Eh]
	 Total Energy              =   -1648.5696694075827509 [Eh]

	 ================> DF-SCS-MP2 Energies <==================
	-----------------------------------------------------------
	 SCS Same-Spin Scale       =       0.3333333333333333 [-]
	 SCS Opposite-Spin Scale   =       1.2000000000000000 [-]
	 SCS Same-Spin Energy      =      -0.1656003640535219 [Eh]
	 SCS Opposite-Spin Energy  =      -1.7579683891843603 [Eh]
	 SCS Correlation Energy    =      -1.9235687532378822 [Eh]
	 SCS Total Energy          =   -1648.5314634110065981 [Eh]
	-----------------------------------------------------------

  Dipole Moment: [D]
     X:    -2.2806      Y:     0.0758      Z:    -0.0000     Total:     2.2819

*** Psi4 exiting successfully. Buy a developer a beer!
