                               Psi4 1.3.2 release

  ==> Input File <==

--------------------------------------------------------------------------
#psi4
#
memory 32 gb

molecule  {
0 1
 Cl        1.4875760    -0.8585340    -1.4502940
 Cl        1.6673240     1.6297210    -0.0000070
 Cl        1.4875730    -0.8585200     1.4503030
  C       -0.5967930     0.0636340    -0.0000010
  C       -1.3238240    -1.1364160    -0.0000010
  C       -1.3211830     1.2579990    -0.0000020
  C        0.9157560     0.0178650    -0.0000010
  C       -2.6727010    -1.1855470     0.0000010
  C       -2.7178890     1.2245560     0.0000000
  C       -3.3986470     0.0087400    -0.0000010
  H       -0.7254190    -2.0945270     0.0000000
  H       -0.8108600     2.2139340    -0.0000010
  H       -3.1911200    -2.1409440     0.0000000
  H       -3.2714520     2.1600600    -0.0000020
  H       -4.4854430    -0.0109760     0.0000010
units angstrom
no_reorient  #important for SAPT in psi4, default
symmetry c1  #important for SAPT in psi4, default
}

set PROPERTIES_ORIGIN ["COM"]
properties('MP2/aug-cc-pvtz', properties = ['dipole'])
--------------------------------------------------------------------------

    Molecular point group: c1
  Charge       = 0
  Multiplicity = 1
  Basis Set: AUG-CC-PVTZ
    Blend: AUG-CC-PVTZ
  Basis Set: (AUG-CC-PVTZ AUX)
    Blend: AUG-CC-PVTZ-JKFIT

    Orbital Energies [Eh]
    ---------------------

    Doubly Occupied:

       1A   -104.861754     2A   -104.857091     3A   -104.857091
       4A    -11.443475     5A    -11.274970     6A    -11.257801
       7A    -11.255426     8A    -11.254865     9A    -11.250772
      10A    -11.247130    11A    -10.586260    12A    -10.581587
      13A    -10.581579    14A     -8.052995    15A     -8.050924
      16A     -8.050920    17A     -8.048296    18A     -8.048295
      19A     -8.046212    20A     -8.046212    21A     -8.046168
      22A     -8.046168    23A     -1.249076    24A     -1.169314
      25A     -1.109936    26A     -1.104912    27A     -1.043595
      28A     -1.035347    29A     -0.894257    30A     -0.842128
      31A     -0.797486    32A     -0.720015    33A     -0.661808
      34A     -0.658169    35A     -0.628396    36A     -0.625380
      37A     -0.603774    38A     -0.596559    39A     -0.533363
      40A     -0.529745    41A     -0.507932    42A     -0.496074
      43A     -0.493719    44A     -0.468521    45A     -0.456568
      46A     -0.454295    47A     -0.443855    48A     -0.359136
      49A     -0.349120

  @DF-RHF Final Energy: -1646.60645691870377

   => Energetics <=

    Nuclear Repulsion Energy =            773.9099371060427757
    One-Electron Energy =               -3807.8758438205618404
    Two-Electron Energy =                1387.3594497958151806
    Total Energy =                      -1646.6064569187037705
  Basis Set: (AUG-CC-PVTZ AUX)
    Blend: AUG-CC-PVTZ-RI
    Molecular point group: c1

    Geometry (in Angstrom), charge = 0, multiplicity = 1:

       Center              X                  Y                   Z               Mass
    ------------   -----------------  -----------------  -----------------  -----------------
         CL           1.403136902705    -0.858970113074    -1.450294040847    34.968852682000
         CL           1.582884902705     1.629284886926    -0.000007040847    34.968852682000
         CL           1.403133902705    -0.858956113074     1.450302959153    34.968852682000
         C           -0.681232097295     0.063197886926    -0.000001040847    12.000000000000
         C           -1.408263097295    -1.136852113074    -0.000001040847    12.000000000000
         C           -1.405622097295     1.257562886926    -0.000002040847    12.000000000000
         C            0.831316902705     0.017428886926    -0.000001040847    12.000000000000
         C           -2.757140097295    -1.185983113074     0.000000959153    12.000000000000
         C           -2.802328097295     1.224119886926    -0.000000040847    12.000000000000
         C           -3.483086097295     0.008303886926    -0.000001040847    12.000000000000
         H           -0.809858097295    -2.094963113074    -0.000000040847     1.007825032230
         H           -0.895299097295     2.213497886926    -0.000001040847     1.007825032230
         H           -3.275559097295    -2.141380113074    -0.000000040847     1.007825032230
         H           -3.355891097295     2.159623886926    -0.000002040847     1.007825032230
         H           -4.569882097295    -0.011412113074     0.000000959153     1.007825032230

  Basis Set: AUG-CC-PVTZ
    Blend: AUG-CC-PVTZ
  Basis Set: (AUG-CC-PVTZ AUX)
    Blend: AUG-CC-PVTZ-JKFIT
	 Reference Energy          =   -1646.6064569187037705 [Eh]
	 Singles Energy            =      -0.0000000000000000 [Eh]
	 Same-Spin Energy          =      -0.4966203315534923 [Eh]
	 Opposite-Spin Energy      =      -1.4645468391321781 [Eh]
	 Correlation Energy        =      -1.9611671706856704 [Eh]
	 Total Energy              =   -1648.5676240893894828 [Eh]

	 ================> DF-SCS-MP2 Energies <==================
	-----------------------------------------------------------
	 SCS Same-Spin Scale       =       0.3333333333333333 [-]
	 SCS Opposite-Spin Scale   =       1.2000000000000000 [-]
	 SCS Same-Spin Energy      =      -0.1655401105178308 [Eh]
	 SCS Opposite-Spin Energy  =      -1.7574562069586137 [Eh]
	 SCS Correlation Energy    =      -1.9229963174764444 [Eh]
	 SCS Total Energy          =   -1648.5294532361801885 [Eh]
	-----------------------------------------------------------

  Dipole Moment: [D]
     X:    -2.2481      Y:     0.1051      Z:    -0.0000     Total:     2.2506

*** Psi4 exiting successfully. Buy a developer a beer!
