                               Psi4 1.3.2 release

  ==> Input File <==

--------------------------------------------------------------------------
#psi4
#
memory 32 gb

molecule  {
0 1
 Cl        1.4579265    -0.8628262    -1.4590545
 Cl        1.6673240     1.6297210    -0.0000070
 Cl        1.4875730    -0.8585200     1.4503030
  C       -0.5967930     0.0636340    -0.0000010
  C       -1.2815000    -1.1610580    -0.0000010
  C       -1.3211830     1.2579990    -0.0000020
  C        0.9157560     0.0178650    -0.0000010
  C       -2.6727010    -1.1855470     0.0000010
  C       -2.7178890     1.2245560     0.0000000
  C       -3.3986470     0.0087400    -0.0000010
  H       -0.7254190    -2.0945270     0.0000000
  H       -0.8108600     2.2139340    -0.0000010
  H       -3.1911200    -2.1409440     0.0000000
  H       -3.2714520     2.1600600    -0.0000020
  H       -4.4854430    -0.0109760     0.0000010
units angstrom
no_reorient  #important for SAPT in psi4, default
symmetry c1  #important for SAPT in psi4, default
}

set PROPERTIES_ORIGIN ["COM"]
properties('MP2/aug-cc-pvtz', properties = ['dipole'])
--------------------------------------------------------------------------

    Molecular point group: c1
  Charge       = 0
  Multiplicity = 1
  Basis Set: AUG-CC-PVTZ
    Blend: AUG-CC-PVTZ
  Basis Set: (AUG-CC-PVTZ AUX)
    Blend: AUG-CC-PVTZ-JKFIT

    Orbital Energies [Eh]
    ---------------------

    Doubly Occupied:

       1A   -104.861519     2A   -104.857388     3A   -104.857069
       4A    -11.442404     5A    -11.275398     6A    -11.257288
       7A    -11.256721     8A    -11.254473     9A    -11.252104
      10A    -11.251515    11A    -10.586015    12A    -10.581863
      13A    -10.581583    14A     -8.052750    15A     -8.050686
      16A     -8.050680    17A     -8.048576    18A     -8.048292
      19A     -8.046495    20A     -8.046450    21A     -8.046215
      22A     -8.046169    23A     -1.249026    24A     -1.164675
      25A     -1.110116    26A     -1.105431    27A     -1.042855
      28A     -1.032089    29A     -0.892498    30A     -0.845746
      31A     -0.794626    32A     -0.720449    33A     -0.661576
      34A     -0.659378    35A     -0.628529    36A     -0.623909
      37A     -0.606227    38A     -0.597149    39A     -0.530998
      40A     -0.527959    41A     -0.513623    42A     -0.495011
      43A     -0.494429    44A     -0.466891    45A     -0.457212
      46A     -0.455184    47A     -0.444384    48A     -0.354845
      49A     -0.349044

  @DF-RHF Final Energy: -1646.60885217773284

   => Energetics <=

    Nuclear Repulsion Energy =            773.8821189978012853
    One-Electron Energy =               -3807.8309184290415033
    Two-Electron Energy =                1387.3399472535074892
    Total Energy =                      -1646.6088521777328424
  Basis Set: (AUG-CC-PVTZ AUX)
    Blend: AUG-CC-PVTZ-RI
    Molecular point group: c1

    Geometry (in Angstrom), charge = 0, multiplicity = 1:

       Center              X                  Y                   Z               Mass
    ------------   -----------------  -----------------  -----------------  -----------------
         CL           1.376214563160    -0.860963745237    -1.457475002551    34.968852682000
         CL           1.585612063160     1.631583454763     0.001572497449    34.968852682000
         CL           1.405861063160    -0.856657545237     1.451882497449    34.968852682000
         C           -0.678504936840     0.065496454763     0.001578497449    12.000000000000
         C           -1.363211936840    -1.159195545237     0.001578497449    12.000000000000
         C           -1.402894936840     1.259861454763     0.001577497449    12.000000000000
         C            0.834044063160     0.019727454763     0.001578497449    12.000000000000
         C           -2.754412936840    -1.183684545237     0.001580497449    12.000000000000
         C           -2.799600936840     1.226418454763     0.001579497449    12.000000000000
         C           -3.480358936840     0.010602454763     0.001578497449    12.000000000000
         H           -0.807130936840    -2.092664545237     0.001579497449     1.007825032230
         H           -0.892571936840     2.215796454763     0.001578497449     1.007825032230
         H           -3.272831936840    -2.139081545237     0.001579497449     1.007825032230
         H           -3.353163936840     2.161922454763     0.001577497449     1.007825032230
         H           -4.567154936840    -0.009113545237     0.001580497449     1.007825032230

  Basis Set: AUG-CC-PVTZ
    Blend: AUG-CC-PVTZ
  Basis Set: (AUG-CC-PVTZ AUX)
    Blend: AUG-CC-PVTZ-JKFIT
	 Reference Energy          =   -1646.6088521777328424 [Eh]
	 Singles Energy            =      -0.0000000000000000 [Eh]
	 Same-Spin Energy          =      -0.4967731084225486 [Eh]
	 Opposite-Spin Energy      =      -1.4648453419227379 [Eh]
	 Correlation Energy        =      -1.9616184503452865 [Eh]
	 Total Energy              =   -1648.5704706280780556 [Eh]

	 ================> DF-SCS-MP2 Energies <==================
	-----------------------------------------------------------
	 SCS Same-Spin Scale       =       0.3333333333333333 [-]
	 SCS Opposite-Spin Scale   =       1.2000000000000000 [-]
	 SCS Same-Spin Energy      =      -0.1655910361408495 [Eh]
	 SCS Opposite-Spin Energy  =      -1.7578144103072855 [Eh]
	 SCS Correlation Energy    =      -1.9234054464481349 [Eh]
	 SCS Total Energy          =   -1648.5322576241810566 [Eh]
	-----------------------------------------------------------

  Dipole Moment: [D]
     X:    -2.2375      Y:     0.0856      Z:     0.0051     Total:     2.2391

*** Psi4 exiting successfully. Buy a developer a beer!
