                               Psi4 1.3.2 release

  ==> Input File <==

--------------------------------------------------------------------------
#psi4
#
memory 32 gb

molecule  {
0 1
 Cl        1.4875760    -0.8585340    -1.4502940
 Cl        1.6673240     1.6297210    -0.0000070
 Cl        1.4875730    -0.8585200     1.4503030
  C       -0.5967930     0.0636340    -0.0000010
  C       -1.2815000    -1.1610580    -0.0000010
  C       -1.3211830     1.2579990    -0.0000020
  C        0.7158475     0.0239141    -0.0000010
  C       -2.6727010    -1.1855470     0.0000010
  C       -2.7178890     1.2245560     0.0000000
  C       -3.3986470     0.0087400    -0.0000010
  H       -0.7254190    -2.0945270     0.0000000
  H       -0.8108600     2.2139340    -0.0000010
  H       -3.1911200    -2.1409440     0.0000000
  H       -3.2714520     2.1600600    -0.0000020
  H       -4.4854430    -0.0109760     0.0000010
units angstrom
no_reorient  #important for SAPT in psi4, default
symmetry c1  #important for SAPT in psi4, default
}

set PROPERTIES_ORIGIN ["COM"]
properties('MP2/aug-cc-pvtz', properties = ['dipole'])
--------------------------------------------------------------------------

    Molecular point group: c1
  Charge       = 0
  Multiplicity = 1
  Basis Set: AUG-CC-PVTZ
    Blend: AUG-CC-PVTZ
  Basis Set: (AUG-CC-PVTZ AUX)
    Blend: AUG-CC-PVTZ-JKFIT

    Orbital Energies [Eh]
    ---------------------

    Doubly Occupied:

       1A   -104.852961     2A   -104.848006     3A   -104.848006
       4A    -11.442476     5A    -11.271981     6A    -11.270770
       7A    -11.268645     8A    -11.263776     9A    -11.260618
      10A    -11.259689    11A    -10.576311    12A    -10.571706
      13A    -10.571697    14A     -8.042883    15A     -8.040978
      16A     -8.040963    17A     -8.038264    18A     -8.038263
      19A     -8.036295    20A     -8.036294    21A     -8.036269
      22A     -8.036269    23A     -1.249406    24A     -1.167695
      25A     -1.089968    26A     -1.084394    27A     -1.072214
      28A     -1.041967    29A     -0.929700    30A     -0.859475
      31A     -0.795450    32A     -0.723144    33A     -0.675395
      34A     -0.673308    35A     -0.631984    36A     -0.621441
      37A     -0.614766    38A     -0.570896    39A     -0.540073
      40A     -0.525444    41A     -0.520993    42A     -0.489458
      43A     -0.487965    44A     -0.482530    45A     -0.439363
      46A     -0.437888    47A     -0.433207    48A     -0.364230
      49A     -0.357367

  @DF-RHF Final Energy: -1646.56989224014001

   => Energetics <=

    Nuclear Repulsion Energy =            773.7497871675351462
    One-Electron Energy =               -3807.5736763107042862
    Two-Electron Energy =                1387.2539969030292468
    Total Energy =                      -1646.5698922401400068
  Basis Set: (AUG-CC-PVTZ AUX)
    Blend: AUG-CC-PVTZ-RI
    Molecular point group: c1

    Geometry (in Angstrom), charge = 0, multiplicity = 1:

       Center              X                  Y                   Z               Mass
    ------------   -----------------  -----------------  -----------------  -----------------
         CL           1.412887127452    -0.857819714693    -1.450294040847    34.968852682000
         CL           1.592635127452     1.630435285307    -0.000007040847    34.968852682000
         CL           1.412884127452    -0.857805714693     1.450302959153    34.968852682000
         C           -0.671481872548     0.064348285307    -0.000001040847    12.000000000000
         C           -1.356188872548    -1.160343714693    -0.000001040847    12.000000000000
         C           -1.395871872548     1.258713285307    -0.000002040847    12.000000000000
         C            0.641158627452     0.024628385307    -0.000001040847    12.000000000000
         C           -2.747389872548    -1.184832714693     0.000000959153    12.000000000000
         C           -2.792577872548     1.225270285307    -0.000000040847    12.000000000000
         C           -3.473335872548     0.009454285307    -0.000001040847    12.000000000000
         H           -0.800107872548    -2.093812714693    -0.000000040847     1.007825032230
         H           -0.885548872548     2.214648285307    -0.000001040847     1.007825032230
         H           -3.265808872548    -2.140229714693    -0.000000040847     1.007825032230
         H           -3.346140872548     2.160774285307    -0.000002040847     1.007825032230
         H           -4.560131872548    -0.010261714693     0.000000959153     1.007825032230

  Basis Set: AUG-CC-PVTZ
    Blend: AUG-CC-PVTZ
  Basis Set: (AUG-CC-PVTZ AUX)
    Blend: AUG-CC-PVTZ-JKFIT
	 Reference Energy          =   -1646.5698922401400068 [Eh]
	 Singles Energy            =      -0.0000000000000000 [Eh]
	 Same-Spin Energy          =      -0.4992343010530478 [Eh]
	 Opposite-Spin Energy      =      -1.4695222849788399 [Eh]
	 Correlation Energy        =      -1.9687565860318876 [Eh]
	 Total Energy              =   -1648.5386488261719933 [Eh]

	 ================> DF-SCS-MP2 Energies <==================
	-----------------------------------------------------------
	 SCS Same-Spin Scale       =       0.3333333333333333 [-]
	 SCS Opposite-Spin Scale   =       1.2000000000000000 [-]
	 SCS Same-Spin Energy      =      -0.1664114336843492 [Eh]
	 SCS Opposite-Spin Energy  =      -1.7634267419746077 [Eh]
	 SCS Correlation Energy    =      -1.9298381756589569 [Eh]
	 SCS Total Energy          =   -1648.4997304157989220 [Eh]
	-----------------------------------------------------------

  Dipole Moment: [D]
     X:    -3.5778      Y:     0.1054      Z:    -0.0000     Total:     3.5793

*** Psi4 exiting successfully. Buy a developer a beer!
