                               Psi4 1.3.2 release

  ==> Input File <==

--------------------------------------------------------------------------
#psi4
#
memory 32 gb

molecule  {
0 1
 Cl        1.6615031    -0.8272260    -1.3885562
 Cl        1.6673240     1.6297210    -0.0000070
 Cl        1.4875730    -0.8585200     1.4503030
  C       -0.5967930     0.0636340    -0.0000010
  C       -1.2815000    -1.1610580    -0.0000010
  C       -1.3211830     1.2579990    -0.0000020
  C        0.9157560     0.0178650    -0.0000010
  C       -2.6727010    -1.1855470     0.0000010
  C       -2.7178890     1.2245560     0.0000000
  C       -3.3986470     0.0087400    -0.0000010
  H       -0.7254190    -2.0945270     0.0000000
  H       -0.8108600     2.2139340    -0.0000010
  H       -3.1911200    -2.1409440     0.0000000
  H       -3.2714520     2.1600600    -0.0000020
  H       -4.4854430    -0.0109760     0.0000010
units angstrom
no_reorient  #important for SAPT in psi4, default
symmetry c1  #important for SAPT in psi4, default
}

set PROPERTIES_ORIGIN ["COM"]
properties('MP2/aug-cc-pvtz', properties = ['dipole'])
--------------------------------------------------------------------------

    Molecular point group: c1
  Charge       = 0
  Multiplicity = 1
  Basis Set: AUG-CC-PVTZ
    Blend: AUG-CC-PVTZ
  Basis Set: (AUG-CC-PVTZ AUX)
    Blend: AUG-CC-PVTZ-JKFIT

    Orbital Energies [Eh]
    ---------------------

    Doubly Occupied:

       1A   -104.857905     2A   -104.855835     3A   -104.854135
       4A    -11.442141     5A    -11.277956     6A    -11.259894
       7A    -11.259282     8A    -11.256904     9A    -11.253748
      10A    -11.253280    11A    -10.582687    12A    -10.580390
      13A    -10.578865    14A     -8.049409    15A     -8.047347
      16A     -8.047343    17A     -8.047099    18A     -8.045565
      19A     -8.044999    20A     -8.044965    21A     -8.043487
      22A     -8.043445    23A     -1.249244    24A     -1.167372
      25A     -1.107619    26A     -1.100790    27A     -1.045667
      28A     -1.034011    29A     -0.893813    30A     -0.847371
      31A     -0.795520    32A     -0.721956    33A     -0.664145
      34A     -0.659844    35A     -0.626659    36A     -0.624624
      37A     -0.607531    38A     -0.597783    39A     -0.533169
      40A     -0.527068    41A     -0.515278    42A     -0.496857
      43A     -0.493565    44A     -0.471856    45A     -0.452344
      46A     -0.448932    47A     -0.438937    48A     -0.356843
      49A     -0.352187

  @DF-RHF Final Energy: -1646.60734402692106

   => Energetics <=

    Nuclear Repulsion Energy =            773.0418840114338082
    One-Electron Energy =               -3806.1831228556297901
    Two-Electron Energy =                1386.5338948172748132
    Total Energy =                      -1646.6073440269210550
  Basis Set: (AUG-CC-PVTZ AUX)
    Blend: AUG-CC-PVTZ-RI
    Molecular point group: c1

    Geometry (in Angstrom), charge = 0, multiplicity = 1:

       Center              X                  Y                   Z               Mass
    ------------   -----------------  -----------------  -----------------  -----------------
         CL           1.543085834033    -0.831782343164    -1.399687708160    34.968852682000
         CL           1.548906734033     1.625164656836    -0.011138508160    34.968852682000
         CL           1.369155734033    -0.863076343164     1.439171491840    34.968852682000
         C           -0.715210265967     0.059077656836    -0.011132508160    12.000000000000
         C           -1.399917265967    -1.165614343164    -0.011132508160    12.000000000000
         C           -1.439600265967     1.253442656836    -0.011133508160    12.000000000000
         C            0.797338734033     0.013308656836    -0.011132508160    12.000000000000
         C           -2.791118265967    -1.190103343164    -0.011130508160    12.000000000000
         C           -2.836306265967     1.219999656836    -0.011131508160    12.000000000000
         C           -3.517064265967     0.004183656836    -0.011132508160    12.000000000000
         H           -0.843836265967    -2.099083343164    -0.011131508160     1.007825032230
         H           -0.929277265967     2.209377656836    -0.011132508160     1.007825032230
         H           -3.309537265967    -2.145500343164    -0.011131508160     1.007825032230
         H           -3.389869265967     2.155503656836    -0.011133508160     1.007825032230
         H           -4.603860265967    -0.015532343164    -0.011130508160     1.007825032230

  Basis Set: AUG-CC-PVTZ
    Blend: AUG-CC-PVTZ
  Basis Set: (AUG-CC-PVTZ AUX)
    Blend: AUG-CC-PVTZ-JKFIT
	 Reference Energy          =   -1646.6073440269210550 [Eh]
	 Singles Energy            =      -0.0000000000000000 [Eh]
	 Same-Spin Energy          =      -0.4965786335717781 [Eh]
	 Opposite-Spin Energy      =      -1.4643926011673005 [Eh]
	 Correlation Energy        =      -1.9609712347390786 [Eh]
	 Total Energy              =   -1648.5683152616602456 [Eh]

	 ================> DF-SCS-MP2 Energies <==================
	-----------------------------------------------------------
	 SCS Same-Spin Scale       =       0.3333333333333333 [-]
	 SCS Opposite-Spin Scale   =       1.2000000000000000 [-]
	 SCS Same-Spin Energy      =      -0.1655262111905927 [Eh]
	 SCS Opposite-Spin Energy  =      -1.7572711214007606 [Eh]
	 SCS Correlation Energy    =      -1.9227973325913532 [Eh]
	 SCS Total Energy          =   -1648.5301413595122995 [Eh]
	-----------------------------------------------------------

  Dipole Moment: [D]
     X:    -2.4476      Y:     0.0685      Z:    -0.0333     Total:     2.4488

*** Psi4 exiting successfully. Buy a developer a beer!
