                               Psi4 1.3.2 release

  ==> Input File <==

--------------------------------------------------------------------------
#psi4
#
memory 32 gb

molecule  {
0 1
 Cl        1.4875760    -0.8585340    -1.4502940
 Cl        1.6673240     1.6297210    -0.0000070
 Cl        1.4875730    -0.8585200     1.4503030
  C       -0.5967930     0.0636340    -0.0000010
  C       -1.2815000    -1.1610580    -0.0000010
  C       -1.3211830     1.2579990    -0.0000020
  C        1.1156645     0.0118159    -0.0000010
  C       -2.6727010    -1.1855470     0.0000010
  C       -2.7178890     1.2245560     0.0000000
  C       -3.3986470     0.0087400    -0.0000010
  H       -0.7254190    -2.0945270     0.0000000
  H       -0.8108600     2.2139340    -0.0000010
  H       -3.1911200    -2.1409440     0.0000000
  H       -3.2714520     2.1600600    -0.0000020
  H       -4.4854430    -0.0109760     0.0000010
units angstrom
no_reorient  #important for SAPT in psi4, default
symmetry c1  #important for SAPT in psi4, default
}

set PROPERTIES_ORIGIN ["COM"]
properties('MP2/aug-cc-pvtz', properties = ['dipole'])
--------------------------------------------------------------------------

    Molecular point group: c1
  Charge       = 0
  Multiplicity = 1
  Basis Set: AUG-CC-PVTZ
    Blend: AUG-CC-PVTZ
  Basis Set: (AUG-CC-PVTZ AUX)
    Blend: AUG-CC-PVTZ-JKFIT

    Orbital Energies [Eh]
    ---------------------

    Doubly Occupied:

       1A   -104.865685     2A   -104.861117     3A   -104.861117
       4A    -11.438779     5A    -11.280486     6A    -11.250562
       7A    -11.250442     8A    -11.248495     9A    -11.247910
      10A    -11.246689    11A    -10.591372    12A    -10.586411
      13A    -10.586402    14A     -8.058271    15A     -8.056018
      16A     -8.055990    17A     -8.053253    18A     -8.053252
      19A     -8.051033    20A     -8.051033    21A     -8.050967
      22A     -8.050966    23A     -1.260450    24A     -1.160197
      25A     -1.126355    26A     -1.119826    27A     -1.026868
      28A     -1.025812    29A     -0.861466    30A     -0.838139
      31A     -0.797177    32A     -0.716806    33A     -0.654754
      34A     -0.649444    35A     -0.640309    36A     -0.620629
      37A     -0.617480    38A     -0.599749    39A     -0.528947
      40A     -0.526977    41A     -0.508965    42A     -0.498833
      43A     -0.497516    44A     -0.468544    45A     -0.467532
      46A     -0.449848    47A     -0.427812    48A     -0.349569
      49A     -0.343911

  @DF-RHF Final Energy: -1646.58462301459986

   => Energetics <=

    Nuclear Repulsion Energy =            773.6009123668197844
    One-Electron Energy =               -3807.2107427876171641
    Two-Electron Energy =                1387.0252074061972962
    Total Energy =                      -1646.5846230145998561
  Basis Set: (AUG-CC-PVTZ AUX)
    Blend: AUG-CC-PVTZ-RI
    Molecular point group: c1

    Geometry (in Angstrom), charge = 0, multiplicity = 1:

       Center              X                  Y                   Z               Mass
    ------------   -----------------  -----------------  -----------------  -----------------
         CL           1.388149252803    -0.857071162843    -1.450294040847    34.968852682000
         CL           1.567897252803     1.631183837157    -0.000007040847    34.968852682000
         CL           1.388146252803    -0.857057162843     1.450302959153    34.968852682000
         C           -0.696219747197     0.065096837157    -0.000001040847    12.000000000000
         C           -1.380926747197    -1.159595162843    -0.000001040847    12.000000000000
         C           -1.420609747197     1.259461837157    -0.000002040847    12.000000000000
         C            1.016237752803     0.013278737157    -0.000001040847    12.000000000000
         C           -2.772127747197    -1.184084162843     0.000000959153    12.000000000000
         C           -2.817315747197     1.226018837157    -0.000000040847    12.000000000000
         C           -3.498073747197     0.010202837157    -0.000001040847    12.000000000000
         H           -0.824845747197    -2.093064162843    -0.000000040847     1.007825032230
         H           -0.910286747197     2.215396837157    -0.000001040847     1.007825032230
         H           -3.290546747197    -2.139481162843    -0.000000040847     1.007825032230
         H           -3.370878747197     2.161522837157    -0.000002040847     1.007825032230
         H           -4.584869747197    -0.009513162843     0.000000959153     1.007825032230

  Basis Set: AUG-CC-PVTZ
    Blend: AUG-CC-PVTZ
  Basis Set: (AUG-CC-PVTZ AUX)
    Blend: AUG-CC-PVTZ-JKFIT
	 Reference Energy          =   -1646.5846230145998561 [Eh]
	 Singles Energy            =      -0.0000000000000000 [Eh]
	 Same-Spin Energy          =      -0.4977934037272446 [Eh]
	 Opposite-Spin Energy      =      -1.4657867961564124 [Eh]
	 Correlation Energy        =      -1.9635801998836571 [Eh]
	 Total Energy              =   -1648.5482032144834648 [Eh]

	 ================> DF-SCS-MP2 Energies <==================
	-----------------------------------------------------------
	 SCS Same-Spin Scale       =       0.3333333333333333 [-]
	 SCS Opposite-Spin Scale   =       1.2000000000000000 [-]
	 SCS Same-Spin Energy      =      -0.1659311345757482 [Eh]
	 SCS Opposite-Spin Energy  =      -1.7589441553876948 [Eh]
	 SCS Correlation Energy    =      -1.9248752899634429 [Eh]
	 SCS Total Energy          =   -1648.5094983045632944 [Eh]
	-----------------------------------------------------------

  Dipole Moment: [D]
     X:    -1.5884      Y:     0.1008      Z:    -0.0000     Total:     1.5916

*** Psi4 exiting successfully. Buy a developer a beer!
