                               Psi4 1.3.2 release

  ==> Input File <==

--------------------------------------------------------------------------
#psi4
#
memory 32 gb

molecule  {
0 1
 Cl        1.4875760    -0.8585340    -1.4502940
 Cl        1.6673240     1.6297210    -0.0000070
 Cl        1.4875730    -0.8585200     1.4503030
  C       -0.5967930     0.0636340    -0.0000010
  C       -1.2815000    -1.1610580    -0.0000010
  C       -1.3211830     1.2579990    -0.0000020
  C        1.0157102     0.0148404    -0.0000010
  C       -2.6727010    -1.1855470     0.0000010
  C       -2.7178890     1.2245560     0.0000000
  C       -3.3986470     0.0087400    -0.0000010
  H       -0.7254190    -2.0945270     0.0000000
  H       -0.8108600     2.2139340    -0.0000010
  H       -3.1911200    -2.1409440     0.0000000
  H       -3.2714520     2.1600600    -0.0000020
  H       -4.4854430    -0.0109760     0.0000010
units angstrom
no_reorient  #important for SAPT in psi4, default
symmetry c1  #important for SAPT in psi4, default
}

set PROPERTIES_ORIGIN ["COM"]
properties('MP2/aug-cc-pvtz', properties = ['dipole'])
--------------------------------------------------------------------------

    Molecular point group: c1
  Charge       = 0
  Multiplicity = 1
  Basis Set: AUG-CC-PVTZ
    Blend: AUG-CC-PVTZ
  Basis Set: (AUG-CC-PVTZ AUX)
    Blend: AUG-CC-PVTZ-JKFIT

    Orbital Energies [Eh]
    ---------------------

    Doubly Occupied:

       1A   -104.863446     2A   -104.859211     3A   -104.859211
       4A    -11.440439     5A    -11.279118     6A    -11.253632
       7A    -11.253308     8A    -11.251045     9A    -11.249852
      10A    -11.249192    11A    -10.588595    12A    -10.584156
      13A    -10.584147    14A     -8.055412    15A     -8.053259
      16A     -8.053242    17A     -8.050933    18A     -8.050932
      19A     -8.048786    20A     -8.048786    21A     -8.048730
      22A     -8.048730    23A     -1.254375    24A     -1.162621
      25A     -1.118374    26A     -1.112867    27A     -1.033277
      28A     -1.029313    29A     -0.875816    30A     -0.841643
      31A     -0.795813    32A     -0.718902    33A     -0.656073
      34A     -0.655227    35A     -0.634073    36A     -0.621923
      37A     -0.610427    38A     -0.601340    39A     -0.529740
      40A     -0.527581    41A     -0.511137    42A     -0.497264
      43A     -0.496477    44A     -0.462859    45A     -0.461300
      46A     -0.449782    47A     -0.447053    48A     -0.352074
      49A     -0.346604

  @DF-RHF Final Energy: -1646.60248138663678

   => Energetics <=

    Nuclear Repulsion Energy =            773.6932517769452033
    One-Electron Energy =               -3807.4352723880710982
    Two-Electron Energy =                1387.1395392244892264
    Total Energy =                      -1646.6024813866367822
  Basis Set: (AUG-CC-PVTZ AUX)
    Blend: AUG-CC-PVTZ-RI
    Molecular point group: c1

    Geometry (in Angstrom), charge = 0, multiplicity = 1:

       Center              X                  Y                   Z               Mass
    ------------   -----------------  -----------------  -----------------  -----------------
         CL           1.394333724559    -0.857258297712    -1.450294040847    34.968852682000
         CL           1.574081724559     1.630996702288    -0.000007040847    34.968852682000
         CL           1.394330724559    -0.857244297712     1.450302959153    34.968852682000
         C           -0.690035275441     0.064909702288    -0.000001040847    12.000000000000
         C           -1.374742275441    -1.159782297712    -0.000001040847    12.000000000000
         C           -1.414425275441     1.259274702288    -0.000002040847    12.000000000000
         C            0.922467924559     0.016116102288    -0.000001040847    12.000000000000
         C           -2.765943275441    -1.184271297712     0.000000959153    12.000000000000
         C           -2.811131275441     1.225831702288    -0.000000040847    12.000000000000
         C           -3.491889275441     0.010015702288    -0.000001040847    12.000000000000
         H           -0.818661275441    -2.093251297712    -0.000000040847     1.007825032230
         H           -0.904102275441     2.215209702288    -0.000001040847     1.007825032230
         H           -3.284362275441    -2.139668297712    -0.000000040847     1.007825032230
         H           -3.364694275441     2.161335702288    -0.000002040847     1.007825032230
         H           -4.578685275441    -0.009700297712     0.000000959153     1.007825032230

  Basis Set: AUG-CC-PVTZ
    Blend: AUG-CC-PVTZ
  Basis Set: (AUG-CC-PVTZ AUX)
    Blend: AUG-CC-PVTZ-JKFIT
	 Reference Energy          =   -1646.6024813866367822 [Eh]
	 Singles Energy            =      -0.0000000000000000 [Eh]
	 Same-Spin Energy          =      -0.4968767629195938 [Eh]
	 Opposite-Spin Energy      =      -1.4645631553029630 [Eh]
	 Correlation Energy        =      -1.9614399182225568 [Eh]
	 Total Energy              =   -1648.5639213048593774 [Eh]

	 ================> DF-SCS-MP2 Energies <==================
	-----------------------------------------------------------
	 SCS Same-Spin Scale       =       0.3333333333333333 [-]
	 SCS Opposite-Spin Scale   =       1.2000000000000000 [-]
	 SCS Same-Spin Energy      =      -0.1656255876398646 [Eh]
	 SCS Opposite-Spin Energy  =      -1.7574757863635555 [Eh]
	 SCS Correlation Energy    =      -1.9231013740034202 [Eh]
	 SCS Total Energy          =   -1648.5255827606401908 [Eh]
	-----------------------------------------------------------

  Dipole Moment: [D]
     X:    -1.8813      Y:     0.0891      Z:    -0.0000     Total:     1.8835

*** Psi4 exiting successfully. Buy a developer a beer!
