                               Psi4 1.4a3.dev225

  ==> Input File <==

--------------------------------------------------------------------------
#psi4
#
memory 32 gb

molecule  {
0 1
 Cl        1.4875760    -0.8585340    -1.4502940
 Cl        1.6673240     1.6297210    -0.0000070
 Cl        1.4875730    -0.8585200     1.4503030
  C       -0.5967930     0.0636340    -0.0000010
  C       -1.2815000    -1.1610580    -0.0000010
  C       -1.3211830     1.2579990    -0.0000020
  C        0.8657789     0.0193773    -0.0000010
  C       -2.6727010    -1.1855470     0.0000010
  C       -2.7178890     1.2245560     0.0000000
  C       -3.3986470     0.0087400    -0.0000010
  H       -0.7254190    -2.0945270     0.0000000
  H       -0.8108600     2.2139340    -0.0000010
  H       -3.1911200    -2.1409440     0.0000000
  H       -3.2714520     2.1600600    -0.0000020
  H       -4.4854430    -0.0109760     0.0000010
units angstrom
no_reorient  #important for SAPT in psi4, default
symmetry c1  #important for SAPT in psi4, default
}

set PROPERTIES_ORIGIN ["COM"]
properties('MP2/aug-cc-pvtz', properties = ['dipole'])
--------------------------------------------------------------------------

    Molecular point group: c1
  Charge       = 0
  Multiplicity = 1
  Basis Set: AUG-CC-PVTZ
    Blend: AUG-CC-PVTZ
  Basis Set: (AUG-CC-PVTZ AUX)
    Blend: AUG-CC-PVTZ-JKFIT

    Orbital Energies [Eh]
    ---------------------

    Doubly Occupied:

       1A   -104.859534     2A   -104.855419     3A   -104.855419
       4A    -11.443120     5A    -11.273361     6A    -11.260283
       7A    -11.259564     8A    -11.257363     9A    -11.253914
      10A    -11.253282    11A    -10.583754    12A    -10.579710
      13A    -10.579701    14A     -8.050446    15A     -8.048423
      16A     -8.048422    17A     -8.046380    18A     -8.046379
      19A     -8.044331    20A     -8.044330    21A     -8.044291
      22A     -8.044291    23A     -1.247090    24A     -1.166175
      25A     -1.105029    26A     -1.100357    27A     -1.049510
      28A     -1.034252    29A     -0.901773    30A     -0.848618
      31A     -0.794446    32A     -0.721375    33A     -0.665454
      34A     -0.661942    35A     -0.625677    36A     -0.625486
      37A     -0.607602    38A     -0.591482    39A     -0.532609
      40A     -0.527580    41A     -0.515493    42A     -0.493912
      43A     -0.492845    44A     -0.474531    45A     -0.452645
      46A     -0.450903    47A     -0.441650    48A     -0.356964
      49A     -0.351236

  @DF-RHF Final Energy: -1646.60688437637305

   => Energetics <=

    Nuclear Repulsion Energy =            773.7027000837691730
    One-Electron Energy =               -3807.4824570551559191
    Two-Electron Energy =                1387.1728725950135868
    Total Energy =                      -1646.6068843763730456
  Basis Set: (AUG-CC-PVTZ AUX)
    Blend: AUG-CC-PVTZ-RI
    Molecular point group: c1

    Geometry (in Angstrom), charge = 0, multiplicity = 1:

       Center              X                  Y                   Z               Mass
    ------------   -----------------  -----------------  -----------------  -----------------
         CL           1.403610422912    -0.857539009296    -1.450294040847    34.968852682000
         CL           1.583358422912     1.630715990704    -0.000007040847    34.968852682000
         CL           1.403607422912    -0.857525009296     1.450302959153    34.968852682000
         C           -0.680758577088     0.064628990704    -0.000001040847    12.000000000000
         C           -1.365465577088    -1.160063009296    -0.000001040847    12.000000000000
         C           -1.405148577088     1.258993990704    -0.000002040847    12.000000000000
         C            0.781813322912     0.020372290704    -0.000001040847    12.000000000000
         C           -2.756666577088    -1.184552009296     0.000000959153    12.000000000000
         C           -2.801854577088     1.225550990704    -0.000000040847    12.000000000000
         C           -3.482612577088     0.009734990704    -0.000001040847    12.000000000000
         H           -0.809384577088    -2.093532009296    -0.000000040847     1.007825032230
         H           -0.894825577088     2.214928990704    -0.000001040847     1.007825032230
         H           -3.275085577088    -2.139949009296    -0.000000040847     1.007825032230
         H           -3.355417577088     2.161054990704    -0.000002040847     1.007825032230
         H           -4.569408577088    -0.009981009296     0.000000959153     1.007825032230

  Basis Set: AUG-CC-PVTZ
    Blend: AUG-CC-PVTZ
  Basis Set: (AUG-CC-PVTZ AUX)
    Blend: AUG-CC-PVTZ-JKFIT
	 Reference Energy          =   -1646.6068843763730456 [Eh]
	 Singles Energy            =      -0.0000000000000000 [Eh]
	 Same-Spin Energy          =      -0.4969663340335447 [Eh]
	 Opposite-Spin Energy      =      -1.4653670540550916 [Eh]
	 Correlation Energy        =      -1.9623333880886364 [Eh]
	 Total Energy              =   -1648.5692177644616550 [Eh]

	 ================> DF-SCS-MP2 Energies <==================
	-----------------------------------------------------------
	 SCS Same-Spin Scale       =       0.3333333333333333 [-]
	 SCS Opposite-Spin Scale   =       1.2000000000000000 [-]
	 SCS Same-Spin Energy      =      -0.1656554446778482 [Eh]
	 SCS Opposite-Spin Energy  =      -1.7584404648661098 [Eh]
	 SCS Correlation Energy    =      -1.9240959095439580 [Eh]
	 SCS Total Energy          =   -1648.5309802859169395 [Eh]
	-----------------------------------------------------------

  Dipole Moment: [D]
     X:    -2.5165      Y:     0.0844      Z:    -0.0000     Total:     2.5179

*** Psi4 exiting successfully. Buy a developer a beer!
