                               Psi4 1.3.2 release

  ==> Input File <==

--------------------------------------------------------------------------
#psi4
#
memory 32 gb

molecule  {
0 1
 Cl        1.4875760    -0.8585340    -1.4502940
 Cl        1.6673240     1.6297210    -0.0000070
 Cl        1.4875730    -0.8585200     1.4503030
  C       -0.5967930     0.0636340    -0.0000010
  C       -1.4057643    -1.0827776    -0.0000010
  C       -1.3211830     1.2579990    -0.0000020
  C        0.9157560     0.0178650    -0.0000010
  C       -2.6727010    -1.1855470     0.0000010
  C       -2.7178890     1.2245560     0.0000000
  C       -3.3986470     0.0087400    -0.0000010
  H       -0.7254190    -2.0945270     0.0000000
  H       -0.8108600     2.2139340    -0.0000010
  H       -3.1911200    -2.1409440     0.0000000
  H       -3.2714520     2.1600600    -0.0000020
  H       -4.4854430    -0.0109760     0.0000010
units angstrom
no_reorient  #important for SAPT in psi4, default
symmetry c1  #important for SAPT in psi4, default
}

set PROPERTIES_ORIGIN ["COM"]
properties('MP2/aug-cc-pvtz', properties = ['dipole'])
--------------------------------------------------------------------------

    Molecular point group: c1
  Charge       = 0
  Multiplicity = 1
  Basis Set: AUG-CC-PVTZ
    Blend: AUG-CC-PVTZ
  Basis Set: (AUG-CC-PVTZ AUX)
    Blend: AUG-CC-PVTZ-JKFIT

    Orbital Energies [Eh]
    ---------------------

    Doubly Occupied:

       1A   -104.863171     2A   -104.857271     3A   -104.857271
       4A    -11.445670     5A    -11.274551     6A    -11.258462
       7A    -11.255631     8A    -11.252762     9A    -11.249031
      10A    -11.236724    11A    -10.587624    12A    -10.581731
      13A    -10.581723    14A     -8.054360    15A     -8.052275
      16A     -8.052274    17A     -8.048442    18A     -8.048441
      19A     -8.046350    20A     -8.046350    21A     -8.046310
      22A     -8.046310    23A     -1.249426    24A     -1.179989
      25A     -1.110441    26A     -1.104932    27A     -1.051678
      28A     -1.035537    29A     -0.897344    30A     -0.835553
      31A     -0.803684    32A     -0.720054    33A     -0.667213
      34A     -0.654060    35A     -0.631085    36A     -0.629002
      37A     -0.602579    38A     -0.587936    39A     -0.537704
      40A     -0.535565    41A     -0.499302    42A     -0.498297
      43A     -0.482802    44A     -0.469118    45A     -0.456996
      46A     -0.451734    47A     -0.444067    48A     -0.369209
      49A     -0.347391

  @DF-RHF Final Energy: -1646.58095152419742

   => Energetics <=

    Nuclear Repulsion Energy =            774.4734489425735546
    One-Electron Energy =               -3808.9179339540314686
    Two-Electron Energy =                1387.8635334872603835
    Total Energy =                      -1646.5809515241974168
  Basis Set: (AUG-CC-PVTZ AUX)
    Blend: AUG-CC-PVTZ-RI
    Molecular point group: c1

    Geometry (in Angstrom), charge = 0, multiplicity = 1:

       Center              X                  Y                   Z               Mass
    ------------   -----------------  -----------------  -----------------  -----------------
         CL           1.408206794356    -0.862288881450    -1.450294040847    34.968852682000
         CL           1.587954794356     1.625966118550    -0.000007040847    34.968852682000
         CL           1.408203794356    -0.862274881450     1.450302959153    34.968852682000
         C           -0.676162205644     0.059879118550    -0.000001040847    12.000000000000
         C           -1.485133505644    -1.086532481450    -0.000001040847    12.000000000000
         C           -1.400552205644     1.254244118550    -0.000002040847    12.000000000000
         C            0.836386794356     0.014110118550    -0.000001040847    12.000000000000
         C           -2.752070205644    -1.189301881450     0.000000959153    12.000000000000
         C           -2.797258205644     1.220801118550    -0.000000040847    12.000000000000
         C           -3.478016205644     0.004985118550    -0.000001040847    12.000000000000
         H           -0.804788205644    -2.098281881450    -0.000000040847     1.007825032230
         H           -0.890229205644     2.210179118550    -0.000001040847     1.007825032230
         H           -3.270489205644    -2.144698881450    -0.000000040847     1.007825032230
         H           -3.350821205644     2.156305118550    -0.000002040847     1.007825032230
         H           -4.564812205644    -0.014730881450     0.000000959153     1.007825032230

  Basis Set: AUG-CC-PVTZ
    Blend: AUG-CC-PVTZ
  Basis Set: (AUG-CC-PVTZ AUX)
    Blend: AUG-CC-PVTZ-JKFIT
	 Reference Energy          =   -1646.5809515241974168 [Eh]
	 Singles Energy            =      -0.0000000000000000 [Eh]
	 Same-Spin Energy          =      -0.4967463033006074 [Eh]
	 Opposite-Spin Energy      =      -1.4652593274688750 [Eh]
	 Correlation Energy        =      -1.9620056307694824 [Eh]
	 Total Energy              =   -1648.5429571549668708 [Eh]

	 ================> DF-SCS-MP2 Energies <==================
	-----------------------------------------------------------
	 SCS Same-Spin Scale       =       0.3333333333333333 [-]
	 SCS Opposite-Spin Scale   =       1.2000000000000000 [-]
	 SCS Same-Spin Energy      =      -0.1655821011002025 [Eh]
	 SCS Opposite-Spin Energy  =      -1.7583111929626500 [Eh]
	 SCS Correlation Energy    =      -1.9238932940628526 [Eh]
	 SCS Total Energy          =   -1648.5048448182603806 [Eh]
	-----------------------------------------------------------

  Dipole Moment: [D]
     X:    -2.2280      Y:     0.1763      Z:    -0.0000     Total:     2.2350

*** Psi4 exiting successfully. Buy a developer a beer!
