                               Psi4 1.3.2 release

  ==> Input File <==

--------------------------------------------------------------------------
#psi4
#
memory 32 gb

molecule  {
0 1
 Cl        1.4875760    -0.8585340    -1.4502940
 Cl        1.6673240     1.6297210    -0.0000070
 Cl        1.4875730    -0.8585200     1.4503030
  C       -0.5967930     0.0636340    -0.0000010
  C       -1.3652623    -1.1103120    -0.0000010
  C       -1.3211830     1.2579990    -0.0000020
  C        0.9157560     0.0178650    -0.0000010
  C       -2.6727010    -1.1855470     0.0000010
  C       -2.7178890     1.2245560     0.0000000
  C       -3.3986470     0.0087400    -0.0000010
  H       -0.7254190    -2.0945270     0.0000000
  H       -0.8108600     2.2139340    -0.0000010
  H       -3.1911200    -2.1409440     0.0000000
  H       -3.2714520     2.1600600    -0.0000020
  H       -4.4854430    -0.0109760     0.0000010
units angstrom
no_reorient  #important for SAPT in psi4, default
symmetry c1  #important for SAPT in psi4, default
}

set PROPERTIES_ORIGIN ["COM"]
properties('MP2/aug-cc-pvtz', properties = ['dipole'])
--------------------------------------------------------------------------

    Molecular point group: c1
  Charge       = 0
  Multiplicity = 1
  Basis Set: AUG-CC-PVTZ
    Blend: AUG-CC-PVTZ
  Basis Set: (AUG-CC-PVTZ AUX)
    Blend: AUG-CC-PVTZ-JKFIT

    Orbital Energies [Eh]
    ---------------------

    Doubly Occupied:

       1A   -104.862476     2A   -104.857210     3A   -104.857210
       4A    -11.444576     5A    -11.274566     6A    -11.258057
       7A    -11.255143     8A    -11.253944     9A    -11.249830
      10A    -11.241854    11A    -10.586955    12A    -10.581688
      13A    -10.581679    14A     -8.053690    15A     -8.051612
      16A     -8.051610    17A     -8.048398    18A     -8.048397
      19A     -8.046310    20A     -8.046309    21A     -8.046268
      22A     -8.046268    23A     -1.249222    24A     -1.174273
      25A     -1.110196    26A     -1.104946    27A     -1.046661
      28A     -1.036154    29A     -0.895837    30A     -0.838626
      31A     -0.800503    32A     -0.719823    33A     -0.664283
      34A     -0.655764    35A     -0.628697    36A     -0.628004
      37A     -0.602653    38A     -0.592800    39A     -0.535623
      40A     -0.532317    41A     -0.502019    42A     -0.497208
      43A     -0.490349    44A     -0.469112    45A     -0.456796
      46A     -0.453555    47A     -0.443986    48A     -0.364014
      49A     -0.348216

  @DF-RHF Final Energy: -1646.59708826914493

   => Energetics <=

    Nuclear Repulsion Energy =            774.1665132725887588
    One-Electron Energy =               -3808.3558320404467850
    Two-Electron Energy =                1387.5922304987129792
    Total Energy =                      -1646.5970882691449333
  Basis Set: (AUG-CC-PVTZ AUX)
    Blend: AUG-CC-PVTZ-RI
    Molecular point group: c1

    Geometry (in Angstrom), charge = 0, multiplicity = 1:

       Center              X                  Y                   Z               Mass
    ------------   -----------------  -----------------  -----------------  -----------------
         CL           1.405700814372    -0.860585245697    -1.450294040847    34.968852682000
         CL           1.585448814372     1.627669754303    -0.000007040847    34.968852682000
         CL           1.405697814372    -0.860571245697     1.450302959153    34.968852682000
         C           -0.678668185628     0.061582754303    -0.000001040847    12.000000000000
         C           -1.447137485628    -1.112363245697    -0.000001040847    12.000000000000
         C           -1.403058185628     1.255947754303    -0.000002040847    12.000000000000
         C            0.833880814372     0.015813754303    -0.000001040847    12.000000000000
         C           -2.754576185628    -1.187598245697     0.000000959153    12.000000000000
         C           -2.799764185628     1.222504754303    -0.000000040847    12.000000000000
         C           -3.480522185628     0.006688754303    -0.000001040847    12.000000000000
         H           -0.807294185628    -2.096578245697    -0.000000040847     1.007825032230
         H           -0.892735185628     2.211882754303    -0.000001040847     1.007825032230
         H           -3.272995185628    -2.142995245697    -0.000000040847     1.007825032230
         H           -3.353327185628     2.158008754303    -0.000002040847     1.007825032230
         H           -4.567318185628    -0.013027245697     0.000000959153     1.007825032230

  Basis Set: AUG-CC-PVTZ
    Blend: AUG-CC-PVTZ
  Basis Set: (AUG-CC-PVTZ AUX)
    Blend: AUG-CC-PVTZ-JKFIT
	 Reference Energy          =   -1646.5970882691449333 [Eh]
	 Singles Energy            =      -0.0000000000000000 [Eh]
	 Same-Spin Energy          =      -0.4966287762526855 [Eh]
	 Opposite-Spin Energy      =      -1.4647316975589644 [Eh]
	 Correlation Energy        =      -1.9613604738116499 [Eh]
	 Total Energy              =   -1648.5584487429566707 [Eh]

	 ================> DF-SCS-MP2 Energies <==================
	-----------------------------------------------------------
	 SCS Same-Spin Scale       =       0.3333333333333333 [-]
	 SCS Opposite-Spin Scale   =       1.2000000000000000 [-]
	 SCS Same-Spin Energy      =      -0.1655429254175618 [Eh]
	 SCS Opposite-Spin Energy  =      -1.7576780370707572 [Eh]
	 SCS Correlation Energy    =      -1.9232209624883190 [Eh]
	 SCS Total Energy          =   -1648.5203092316332913 [Eh]
	-----------------------------------------------------------

  Dipole Moment: [D]
     X:    -2.2340      Y:     0.1356      Z:    -0.0000     Total:     2.2381

*** Psi4 exiting successfully. Buy a developer a beer!
