                               Psi4 1.3.2 release

  ==> Input File <==

--------------------------------------------------------------------------
#psi4
#
memory 32 gb

molecule  {
0 1
 Cl        1.4875760    -0.8585340    -1.4502940
 Cl        1.6673240     1.6297210    -0.0000070
 Cl        1.4875730    -0.8585200     1.4503030
  C       -0.5967930     0.0636340    -0.0000010
  C       -1.1944019    -1.2058375    -0.0000010
  C       -1.3211830     1.2579990    -0.0000020
  C        0.9157560     0.0178650    -0.0000010
  C       -2.6727010    -1.1855470     0.0000010
  C       -2.7178890     1.2245560     0.0000000
  C       -3.3986470     0.0087400    -0.0000010
  H       -0.7254190    -2.0945270     0.0000000
  H       -0.8108600     2.2139340    -0.0000010
  H       -3.1911200    -2.1409440     0.0000000
  H       -3.2714520     2.1600600    -0.0000020
  H       -4.4854430    -0.0109760     0.0000010
units angstrom
no_reorient  #important for SAPT in psi4, default
symmetry c1  #important for SAPT in psi4, default
}

set PROPERTIES_ORIGIN ["COM"]
properties('MP2/aug-cc-pvtz', properties = ['dipole'])
--------------------------------------------------------------------------

    Molecular point group: c1
  Charge       = 0
  Multiplicity = 1
  Basis Set: AUG-CC-PVTZ
    Blend: AUG-CC-PVTZ
  Basis Set: (AUG-CC-PVTZ AUX)
    Blend: AUG-CC-PVTZ-JKFIT

    Orbital Energies [Eh]
    ---------------------

    Doubly Occupied:

       1A   -104.859448     2A   -104.856500     3A   -104.856500
       4A    -11.440238     5A    -11.278326     6A    -11.262720
       7A    -11.260638     8A    -11.257780     9A    -11.255012
      10A    -11.253806    11A    -10.584042    12A    -10.581058
      13A    -10.581050    14A     -8.050773    15A     -8.048725
      16A     -8.048716    17A     -8.047761    18A     -8.047760
      19A     -8.045688    20A     -8.045688    21A     -8.045641
      22A     -8.045640    23A     -1.248987    24A     -1.158403
      25A     -1.109150    26A     -1.104651    27A     -1.045845
      28A     -1.025288    29A     -0.890130    30A     -0.854326
      31A     -0.790580    32A     -0.723581    33A     -0.672747
      34A     -0.656423    35A     -0.627931    36A     -0.627569
      37A     -0.607714    38A     -0.593783    39A     -0.532775
      40A     -0.525088    41A     -0.514575    42A     -0.494846
      43A     -0.492806    44A     -0.465077    45A     -0.455820
      46A     -0.454381    47A     -0.443273    48A     -0.354939
      49A     -0.343932

  @DF-RHF Final Energy: -1646.59449739386014

   => Energetics <=

    Nuclear Repulsion Energy =            773.4659272654309916
    One-Electron Energy =               -3806.9845872253331436
    Two-Electron Energy =                1386.9241625660417867
    Total Energy =                      -1646.5944973938601379
  Basis Set: (AUG-CC-PVTZ AUX)
    Blend: AUG-CC-PVTZ-RI
    Molecular point group: c1

    Geometry (in Angstrom), charge = 0, multiplicity = 1:

       Center              X                  Y                   Z               Mass
    ------------   -----------------  -----------------  -----------------  -----------------
         CL           1.395129169951    -0.854674797055    -1.450294040847    34.968852682000
         CL           1.574877169951     1.633580202945    -0.000007040847    34.968852682000
         CL           1.395126169951    -0.854660797055     1.450302959153    34.968852682000
         C           -0.689239830049     0.067493202945    -0.000001040847    12.000000000000
         C           -1.286848730049    -1.201978297055    -0.000001040847    12.000000000000
         C           -1.413629830049     1.261858202945    -0.000002040847    12.000000000000
         C            0.823309169951     0.021724202945    -0.000001040847    12.000000000000
         C           -2.765147830049    -1.181687797055     0.000000959153    12.000000000000
         C           -2.810335830049     1.228415202945    -0.000000040847    12.000000000000
         C           -3.491093830049     0.012599202945    -0.000001040847    12.000000000000
         H           -0.817865830049    -2.090667797055    -0.000000040847     1.007825032230
         H           -0.903306830049     2.217793202945    -0.000001040847     1.007825032230
         H           -3.283566830049    -2.137084797055    -0.000000040847     1.007825032230
         H           -3.363898830049     2.163919202945    -0.000002040847     1.007825032230
         H           -4.577889830049    -0.007116797055     0.000000959153     1.007825032230

  Basis Set: AUG-CC-PVTZ
    Blend: AUG-CC-PVTZ
  Basis Set: (AUG-CC-PVTZ AUX)
    Blend: AUG-CC-PVTZ-JKFIT
	 Reference Energy          =   -1646.5944973938601379 [Eh]
	 Singles Energy            =      -0.0000000000000000 [Eh]
	 Same-Spin Energy          =      -0.4972102917124971 [Eh]
	 Opposite-Spin Energy      =      -1.4662824937104557 [Eh]
	 Correlation Energy        =      -1.9634927854229529 [Eh]
	 Total Energy              =   -1648.5579901792830242 [Eh]

	 ================> DF-SCS-MP2 Energies <==================
	-----------------------------------------------------------
	 SCS Same-Spin Scale       =       0.3333333333333333 [-]
	 SCS Opposite-Spin Scale   =       1.2000000000000000 [-]
	 SCS Same-Spin Energy      =      -0.1657367639041657 [Eh]
	 SCS Opposite-Spin Energy  =      -1.7595389924525469 [Eh]
	 SCS Correlation Energy    =      -1.9252757563567124 [Eh]
	 SCS Total Energy          =   -1648.5197731502169063 [Eh]
	-----------------------------------------------------------

  Dipole Moment: [D]
     X:    -2.3212      Y:     0.0631      Z:    -0.0000     Total:     2.3220

*** Psi4 exiting successfully. Buy a developer a beer!
