                               Psi4 1.3.2 release

  ==> Input File <==

--------------------------------------------------------------------------
#psi4
#
memory 32 gb

molecule  {
0 1
 Cl        1.5170513    -0.8539748    -1.4410917
 Cl        1.6673240     1.6297210    -0.0000070
 Cl        1.4875730    -0.8585200     1.4503030
  C       -0.5967930     0.0636340    -0.0000010
  C       -1.2815000    -1.1610580    -0.0000010
  C       -1.3211830     1.2579990    -0.0000020
  C        0.9157560     0.0178650    -0.0000010
  C       -2.6727010    -1.1855470     0.0000010
  C       -2.7178890     1.2245560     0.0000000
  C       -3.3986470     0.0087400    -0.0000010
  H       -0.7254190    -2.0945270     0.0000000
  H       -0.8108600     2.2139340    -0.0000010
  H       -3.1911200    -2.1409440     0.0000000
  H       -3.2714520     2.1600600    -0.0000020
  H       -4.4854430    -0.0109760     0.0000010
units angstrom
no_reorient  #important for SAPT in psi4, default
symmetry c1  #important for SAPT in psi4, default
}

set PROPERTIES_ORIGIN ["COM"]
properties('MP2/aug-cc-pvtz', properties = ['dipole'])
--------------------------------------------------------------------------

    Molecular point group: c1
  Charge       = 0
  Multiplicity = 1
  Basis Set: AUG-CC-PVTZ
    Blend: AUG-CC-PVTZ
  Basis Set: (AUG-CC-PVTZ AUX)
    Blend: AUG-CC-PVTZ-JKFIT

    Orbital Energies [Eh]
    ---------------------

    Doubly Occupied:

       1A   -104.860494     2A   -104.856771     3A   -104.856462
       4A    -11.442346     5A    -11.276095     6A    -11.258063
       7A    -11.257480     8A    -11.255195     9A    -11.252593
      10A    -11.252039    11A    -10.585068    12A    -10.581282
      13A    -10.581008    14A     -8.051800    15A     -8.049737
      16A     -8.049732    17A     -8.047993    18A     -8.047717
      19A     -8.045911    20A     -8.045868    21A     -8.045638
      22A     -8.045594    23A     -1.248969    24A     -1.165446
      25A     -1.109259    26A     -1.104224    27A     -1.043724
      28A     -1.032657    29A     -0.892868    30A     -0.846210
      31A     -0.794881    32A     -0.720874    33A     -0.662276
      34A     -0.659503    35A     -0.627678    36A     -0.624487
      37A     -0.606603    38A     -0.597367    39A     -0.531611
      40A     -0.527560    41A     -0.514103    42A     -0.495130
      43A     -0.494588    44A     -0.468364    45A     -0.455477
      46A     -0.453868    47A     -0.442963    48A     -0.355423
      49A     -0.350058

  @DF-RHF Final Energy: -1646.60916400526344

   => Energetics <=

    Nuclear Repulsion Energy =            773.5496801473466348
    One-Electron Energy =               -3807.1755703119092686
    Two-Electron Energy =                1387.0167261592989689
    Total Energy =                      -1646.6091640052634375
  Basis Set: (AUG-CC-PVTZ AUX)
    Blend: AUG-CC-PVTZ-RI
    Molecular point group: c1

    Geometry (in Angstrom), charge = 0, multiplicity = 1:

       Center              X                  Y                   Z               Mass
    ------------   -----------------  -----------------  -----------------  -----------------
         CL           1.424679025756    -0.853708273012    -1.442750936698    34.968852682000
         CL           1.574951725756     1.629987526988    -0.001666236698    34.968852682000
         CL           1.395200725756    -0.858253473012     1.448643763302    34.968852682000
         C           -0.689165274244     0.063900526988    -0.001660236698    12.000000000000
         C           -1.373872274244    -1.160791473012    -0.001660236698    12.000000000000
         C           -1.413555274244     1.258265526988    -0.001661236698    12.000000000000
         C            0.823383725756     0.018131526988    -0.001660236698    12.000000000000
         C           -2.765073274244    -1.185280473012    -0.001658236698    12.000000000000
         C           -2.810261274244     1.224822526988    -0.001659236698    12.000000000000
         C           -3.491019274244     0.009006526988    -0.001660236698    12.000000000000
         H           -0.817791274244    -2.094260473012    -0.001659236698     1.007825032230
         H           -0.903232274244     2.214200526988    -0.001660236698     1.007825032230
         H           -3.283492274244    -2.140677473012    -0.001659236698     1.007825032230
         H           -3.363824274244     2.160326526988    -0.001661236698     1.007825032230
         H           -4.577815274244    -0.010709473012    -0.001658236698     1.007825032230

  Basis Set: AUG-CC-PVTZ
    Blend: AUG-CC-PVTZ
  Basis Set: (AUG-CC-PVTZ AUX)
    Blend: AUG-CC-PVTZ-JKFIT
	 Reference Energy          =   -1646.6091640052634375 [Eh]
	 Singles Energy            =      -0.0000000000000000 [Eh]
	 Same-Spin Energy          =      -0.4966682247944353 [Eh]
	 Opposite-Spin Energy      =      -1.4646388738359022 [Eh]
	 Correlation Energy        =      -1.9613070986303374 [Eh]
	 Total Energy              =   -1648.5704711038938513 [Eh]

	 ================> DF-SCS-MP2 Energies <==================
	-----------------------------------------------------------
	 SCS Same-Spin Scale       =       0.3333333333333333 [-]
	 SCS Opposite-Spin Scale   =       1.2000000000000000 [-]
	 SCS Same-Spin Energy      =      -0.1655560749314784 [Eh]
	 SCS Opposite-Spin Energy  =      -1.7575666486030825 [Eh]
	 SCS Correlation Energy    =      -1.9231227235345609 [Eh]
	 SCS Total Energy          =   -1648.5322867287979989 [Eh]
	-----------------------------------------------------------

  Dipole Moment: [D]
     X:    -2.2993      Y:     0.0813      Z:    -0.0053     Total:     2.3008

*** Psi4 exiting successfully. Buy a developer a beer!
