                               Psi4 1.3.2 release

  ==> Input File <==

--------------------------------------------------------------------------
#psi4
#
memory 32 gb

molecule  {
0 1
 Cl        1.3680234    -0.8740885    -1.4826595
 Cl        1.6673240     1.6297210    -0.0000070
 Cl        1.4875730    -0.8585200     1.4503030
  C       -0.5967930     0.0636340    -0.0000010
  C       -1.2815000    -1.1610580    -0.0000010
  C       -1.3211830     1.2579990    -0.0000020
  C        0.9157560     0.0178650    -0.0000010
  C       -2.6727010    -1.1855470     0.0000010
  C       -2.7178890     1.2245560     0.0000000
  C       -3.3986470     0.0087400    -0.0000010
  H       -0.7254190    -2.0945270     0.0000000
  H       -0.8108600     2.2139340    -0.0000010
  H       -3.1911200    -2.1409440     0.0000000
  H       -3.2714520     2.1600600    -0.0000020
  H       -4.4854430    -0.0109760     0.0000010
units angstrom
no_reorient  #important for SAPT in psi4, default
symmetry c1  #important for SAPT in psi4, default
}

set PROPERTIES_ORIGIN ["COM"]
properties('MP2/aug-cc-pvtz', properties = ['dipole'])
--------------------------------------------------------------------------

    Molecular point group: c1
  Charge       = 0
  Multiplicity = 1
  Basis Set: AUG-CC-PVTZ
    Blend: AUG-CC-PVTZ
  Basis Set: (AUG-CC-PVTZ AUX)
    Blend: AUG-CC-PVTZ-JKFIT

    Orbital Energies [Eh]
    ---------------------

    Doubly Occupied:

       1A   -104.863046     2A   -104.858770     3A   -104.857436
       4A    -11.442468     5A    -11.274423     6A    -11.256076
       7A    -11.255542     8A    -11.253349     9A    -11.251336
      10A    -11.250696    11A    -10.587428    12A    -10.583143
      13A    -10.581983    14A     -8.054167    15A     -8.052101
      16A     -8.052094    17A     -8.049860    18A     -8.048684
      19A     -8.047778    20A     -8.047731    21A     -8.046611
      22A     -8.046561    23A     -1.249305    24A     -1.163523
      25A     -1.111699    26A     -1.106997    27A     -1.041452
      28A     -1.031208    29A     -0.891958    30A     -0.845057
      31A     -0.794248    32A     -0.719827    33A     -0.660664
      34A     -0.659157    35A     -0.629761    36A     -0.622957
      37A     -0.605657    38A     -0.596787    39A     -0.530100
      40A     -0.528805    41A     -0.512895    42A     -0.495398
      43A     -0.493626    44A     -0.464604    45A     -0.459888
      46A     -0.456858    47A     -0.446347    48A     -0.353974
      49A     -0.347301

  @DF-RHF Final Energy: -1646.60720879076894

   => Energetics <=

    Nuclear Repulsion Energy =            774.5230576257359871
    One-Electron Energy =               -3809.0978624696931547
    Two-Electron Energy =                1387.9675960531883447
    Total Energy =                      -1646.6072087907689365
  Basis Set: (AUG-CC-PVTZ AUX)
    Blend: AUG-CC-PVTZ-RI
    Molecular point group: c1

    Geometry (in Angstrom), charge = 0, multiplicity = 1:

       Center              X                  Y                   Z               Mass
    ------------   -----------------  -----------------  -----------------  -----------------
         CL           1.302521198832    -0.870195426648    -1.476823966769    34.968852682000
         CL           1.601821798832     1.633614073352     0.005828533231    34.968852682000
         CL           1.422070798832    -0.854626926648     1.456138533231    34.968852682000
         C           -0.662295201168     0.067527073352     0.005834533231    12.000000000000
         C           -1.347002201168    -1.157164926648     0.005834533231    12.000000000000
         C           -1.386685201168     1.261892073352     0.005833533231    12.000000000000
         C            0.850253798832     0.021758073352     0.005834533231    12.000000000000
         C           -2.738203201168    -1.181653926648     0.005836533231    12.000000000000
         C           -2.783391201168     1.228449073352     0.005835533231    12.000000000000
         C           -3.464149201168     0.012633073352     0.005834533231    12.000000000000
         H           -0.790921201168    -2.090633926648     0.005835533231     1.007825032230
         H           -0.876362201168     2.217827073352     0.005834533231     1.007825032230
         H           -3.256622201168    -2.137050926648     0.005835533231     1.007825032230
         H           -3.336954201168     2.163953073352     0.005833533231     1.007825032230
         H           -4.550945201168    -0.007082926648     0.005836533231     1.007825032230

  Basis Set: AUG-CC-PVTZ
    Blend: AUG-CC-PVTZ
  Basis Set: (AUG-CC-PVTZ AUX)
    Blend: AUG-CC-PVTZ-JKFIT
	 Reference Energy          =   -1646.6072087907689365 [Eh]
	 Singles Energy            =      -0.0000000000000000 [Eh]
	 Same-Spin Energy          =      -0.4970095390663870 [Eh]
	 Opposite-Spin Energy      =      -1.4652778866446452 [Eh]
	 Correlation Energy        =      -1.9622874257110321 [Eh]
	 Total Energy              =   -1648.5694962164800472 [Eh]

	 ================> DF-SCS-MP2 Energies <==================
	-----------------------------------------------------------
	 SCS Same-Spin Scale       =       0.3333333333333333 [-]
	 SCS Opposite-Spin Scale   =       1.2000000000000000 [-]
	 SCS Same-Spin Energy      =      -0.1656698463554623 [Eh]
	 SCS Opposite-Spin Energy  =      -1.7583334639735742 [Eh]
	 SCS Correlation Energy    =      -1.9240033103290364 [Eh]
	 SCS Total Energy          =   -1648.5312121010979354 [Eh]
	-----------------------------------------------------------

  Dipole Moment: [D]
     X:    -2.1419      Y:     0.0910      Z:     0.0195     Total:     2.1439

*** Psi4 exiting successfully. Buy a developer a beer!
