                               Psi4 1.3.2 release

  ==> Input File <==

--------------------------------------------------------------------------
#psi4
#
memory 32 gb

molecule  {
0 1
 Cl        1.4875760    -0.8585340    -1.4502940
 Cl        1.6673240     1.6297210    -0.0000070
 Cl        1.4875730    -0.8585200     1.4503030
  C       -0.5967930     0.0636340    -0.0000010
  C       -1.3027695    -1.1489217    -0.0000010
  C       -1.3211830     1.2579990    -0.0000020
  C        0.9157560     0.0178650    -0.0000010
  C       -2.6727010    -1.1855470     0.0000010
  C       -2.7178890     1.2245560     0.0000000
  C       -3.3986470     0.0087400    -0.0000010
  H       -0.7254190    -2.0945270     0.0000000
  H       -0.8108600     2.2139340    -0.0000010
  H       -3.1911200    -2.1409440     0.0000000
  H       -3.2714520     2.1600600    -0.0000020
  H       -4.4854430    -0.0109760     0.0000010
units angstrom
no_reorient  #important for SAPT in psi4, default
symmetry c1  #important for SAPT in psi4, default
}

set PROPERTIES_ORIGIN ["COM"]
properties('MP2/aug-cc-pvtz', properties = ['dipole'])
--------------------------------------------------------------------------

    Molecular point group: c1
  Charge       = 0
  Multiplicity = 1
  Basis Set: AUG-CC-PVTZ
    Blend: AUG-CC-PVTZ
  Basis Set: (AUG-CC-PVTZ AUX)
    Blend: AUG-CC-PVTZ-JKFIT

    Orbital Energies [Eh]
    ---------------------

    Doubly Occupied:

       1A   -104.861384     2A   -104.857014     3A   -104.857013
       4A    -11.442924     5A    -11.275312     6A    -11.257724
       7A    -11.256242     8A    -11.254808     9A    -11.251287
      10A    -11.249755    11A    -10.585904    12A    -10.581519
      13A    -10.581510    14A     -8.052638    15A     -8.050571
      16A     -8.050566    17A     -8.048227    18A     -8.048226
      19A     -8.046145    20A     -8.046144    21A     -8.046101
      22A     -8.046100    23A     -1.249024    24A     -1.167103
      25A     -1.109803    26A     -1.104881    27A     -1.043171
      28A     -1.034056    29A     -0.893462    30A     -0.844015
      31A     -0.796077    32A     -0.720278    33A     -0.660919
      34A     -0.659549    35A     -0.628248    36A     -0.624533
      37A     -0.605051    38A     -0.597268    39A     -0.532255
      40A     -0.528679    41A     -0.511133    42A     -0.495504
      43A     -0.494326    44A     -0.468108    45A     -0.456447
      46A     -0.454470    47A     -0.443775    48A     -0.356943
      49A     -0.349481

  @DF-RHF Final Energy: -1646.60860918340563

   => Energetics <=

    Nuclear Repulsion Energy =            773.8014435666927966
    One-Electron Energy =               -3807.6687621670616863
    Two-Electron Energy =                1387.2587094169632564
    Total Energy =                      -1646.6086091834056333
  Basis Set: (AUG-CC-PVTZ AUX)
    Blend: AUG-CC-PVTZ-RI
    Molecular point group: c1

    Geometry (in Angstrom), charge = 0, multiplicity = 1:

       Center              X                  Y                   Z               Mass
    ------------   -----------------  -----------------  -----------------  -----------------
         CL           1.401834197763    -0.858196347979    -1.450294040847    34.968852682000
         CL           1.581582197763     1.630058652021    -0.000007040847    34.968852682000
         CL           1.401831197763    -0.858182347979     1.450302959153    34.968852682000
         C           -0.682534802237     0.063971652021    -0.000001040847    12.000000000000
         C           -1.388511302237    -1.148584047979    -0.000001040847    12.000000000000
         C           -1.406924802237     1.258336652021    -0.000002040847    12.000000000000
         C            0.830014197763     0.018202652021    -0.000001040847    12.000000000000
         C           -2.758442802237    -1.185209347979     0.000000959153    12.000000000000
         C           -2.803630802237     1.224893652021    -0.000000040847    12.000000000000
         C           -3.484388802237     0.009077652021    -0.000001040847    12.000000000000
         H           -0.811160802237    -2.094189347979    -0.000000040847     1.007825032230
         H           -0.896601802237     2.214271652021    -0.000001040847     1.007825032230
         H           -3.276861802237    -2.140606347979    -0.000000040847     1.007825032230
         H           -3.357193802237     2.160397652021    -0.000002040847     1.007825032230
         H           -4.571184802237    -0.010638347979     0.000000959153     1.007825032230

  Basis Set: AUG-CC-PVTZ
    Blend: AUG-CC-PVTZ
  Basis Set: (AUG-CC-PVTZ AUX)
    Blend: AUG-CC-PVTZ-JKFIT
	 Reference Energy          =   -1646.6086091834056333 [Eh]
	 Singles Energy            =      -0.0000000000000000 [Eh]
	 Same-Spin Energy          =      -0.4966552218308461 [Eh]
	 Opposite-Spin Energy      =      -1.4645924961849506 [Eh]
	 Correlation Energy        =      -1.9612477180157968 [Eh]
	 Total Energy              =   -1648.5698569014214172 [Eh]

	 ================> DF-SCS-MP2 Energies <==================
	-----------------------------------------------------------
	 SCS Same-Spin Scale       =       0.3333333333333333 [-]
	 SCS Opposite-Spin Scale   =       1.2000000000000000 [-]
	 SCS Same-Spin Energy      =      -0.1655517406102820 [Eh]
	 SCS Opposite-Spin Energy  =      -1.7575109954219406 [Eh]
	 SCS Correlation Energy    =      -1.9230627360322226 [Eh]
	 SCS Total Energy          =   -1648.5316719194379402 [Eh]
	-----------------------------------------------------------

  Dipole Moment: [D]
     X:    -2.2577      Y:     0.0933      Z:    -0.0000     Total:     2.2596

*** Psi4 exiting successfully. Buy a developer a beer!
