                               Psi4 1.3.2 release

  ==> Input File <==

--------------------------------------------------------------------------
#psi4
#
memory 32 gb

molecule  {
0 1
 Cl        1.4875760    -0.8585340    -1.4502940
 Cl        1.6673240     1.6297210    -0.0000070
 Cl        1.4875730    -0.8585200     1.4503030
  C       -0.5967930     0.0636340    -0.0000010
  C       -1.2815000    -1.1610580    -0.0000010
  C       -1.3211830     1.2579990    -0.0000020
  C        0.8158018     0.0208896    -0.0000010
  C       -2.6727010    -1.1855470     0.0000010
  C       -2.7178890     1.2245560     0.0000000
  C       -3.3986470     0.0087400    -0.0000010
  H       -0.7254190    -2.0945270     0.0000000
  H       -0.8108600     2.2139340    -0.0000010
  H       -3.1911200    -2.1409440     0.0000000
  H       -3.2714520     2.1600600    -0.0000020
  H       -4.4854430    -0.0109760     0.0000010
units angstrom
no_reorient  #important for SAPT in psi4, default
symmetry c1  #important for SAPT in psi4, default
}

set PROPERTIES_ORIGIN ["COM"]
properties('MP2/aug-cc-pvtz', properties = ['dipole'])
--------------------------------------------------------------------------

    Molecular point group: c1
  Charge       = 0
  Multiplicity = 1
  Basis Set: AUG-CC-PVTZ
    Blend: AUG-CC-PVTZ
  Basis Set: (AUG-CC-PVTZ AUX)
    Blend: AUG-CC-PVTZ-JKFIT

    Orbital Energies [Eh]
    ---------------------

    Doubly Occupied:

       1A   -104.857772     2A   -104.853520     3A   -104.853519
       4A    -11.443503     5A    -11.270590     6A    -11.263414
       7A    -11.262541     8A    -11.260424     9A    -11.255762
      10A    -11.255042    11A    -10.581684    12A    -10.577593
      13A    -10.577585    14A     -8.048335    15A     -8.046353
      16A     -8.046349    17A     -8.044227    18A     -8.044226
      19A     -8.042205    20A     -8.042205    21A     -8.042170
      22A     -8.042170    23A     -1.246201    24A     -1.167079
      25A     -1.100184    26A     -1.095496    27A     -1.056538
      28A     -1.036442    29A     -0.911077    30A     -0.851682
      31A     -0.794385    32A     -0.721980    33A     -0.668999
      34A     -0.665033    35A     -0.627424    36A     -0.623339
      37A     -0.609459    38A     -0.584893    39A     -0.534427
      40A     -0.527187    41A     -0.517300    42A     -0.492675
      43A     -0.490721    44A     -0.479824    45A     -0.448627
      46A     -0.446961    47A     -0.439285    48A     -0.359052
      49A     -0.353086

  @DF-RHF Final Energy: -1646.60017187619178

   => Energetics <=

    Nuclear Repulsion Energy =            773.7028315879754246
    One-Electron Energy =               -3807.4849230875934154
    Two-Electron Energy =                1387.1819196234264382
    Total Energy =                      -1646.6001718761917800
  Basis Set: (AUG-CC-PVTZ AUX)
    Blend: AUG-CC-PVTZ-RI
    Molecular point group: c1

    Geometry (in Angstrom), charge = 0, multiplicity = 1:

       Center              X                  Y                   Z               Mass
    ------------   -----------------  -----------------  -----------------  -----------------
         CL           1.406702655696    -0.857632579824    -1.450294040847    34.968852682000
         CL           1.586450655696     1.630622420176    -0.000007040847    34.968852682000
         CL           1.406699655696    -0.857618579824     1.450302959153    34.968852682000
         C           -0.677666344304     0.064535420176    -0.000001040847    12.000000000000
         C           -1.362373344304    -1.160156579824    -0.000001040847    12.000000000000
         C           -1.402056344304     1.258900420176    -0.000002040847    12.000000000000
         C            0.734928455696     0.021791020176    -0.000001040847    12.000000000000
         C           -2.753574344304    -1.184645579824     0.000000959153    12.000000000000
         C           -2.798762344304     1.225457420176    -0.000000040847    12.000000000000
         C           -3.479520344304     0.009641420176    -0.000001040847    12.000000000000
         H           -0.806292344304    -2.093625579824    -0.000000040847     1.007825032230
         H           -0.891733344304     2.214835420176    -0.000001040847     1.007825032230
         H           -3.271993344304    -2.140042579824    -0.000000040847     1.007825032230
         H           -3.352325344304     2.160961420176    -0.000002040847     1.007825032230
         H           -4.566316344304    -0.010074579824     0.000000959153     1.007825032230

  Basis Set: AUG-CC-PVTZ
    Blend: AUG-CC-PVTZ
  Basis Set: (AUG-CC-PVTZ AUX)
    Blend: AUG-CC-PVTZ-JKFIT
	 Reference Energy          =   -1646.6001718761917800 [Eh]
	 Singles Energy            =      -0.0000000000000000 [Eh]
	 Same-Spin Energy          =      -0.4974624571389875 [Eh]
	 Opposite-Spin Energy      =      -1.4663761237687090 [Eh]
	 Correlation Energy        =      -1.9638385809076966 [Eh]
	 Total Energy              =   -1648.5640104570995845 [Eh]

	 ================> DF-SCS-MP2 Energies <==================
	-----------------------------------------------------------
	 SCS Same-Spin Scale       =       0.3333333333333333 [-]
	 SCS Opposite-Spin Scale   =       1.2000000000000000 [-]
	 SCS Same-Spin Energy      =      -0.1658208190463292 [Eh]
	 SCS Opposite-Spin Energy  =      -1.7596513485224508 [Eh]
	 SCS Correlation Energy    =      -1.9254721675687798 [Eh]
	 SCS Total Energy          =   -1648.5256440437606216 [Eh]
	-----------------------------------------------------------

  Dipole Moment: [D]
     X:    -2.8121      Y:     0.0883      Z:    -0.0000     Total:     2.8135

*** Psi4 exiting successfully. Buy a developer a beer!
