                               Psi4 1.3.2 release

  ==> Input File <==

--------------------------------------------------------------------------
#psi4
#
memory 32 gb

molecule  {
0 1
 Cl        1.4281118    -0.8668502    -1.4673707
 Cl        1.6673240     1.6297210    -0.0000070
 Cl        1.4875730    -0.8585200     1.4503030
  C       -0.5967930     0.0636340    -0.0000010
  C       -1.2815000    -1.1610580    -0.0000010
  C       -1.3211830     1.2579990    -0.0000020
  C        0.9157560     0.0178650    -0.0000010
  C       -2.6727010    -1.1855470     0.0000010
  C       -2.7178890     1.2245560     0.0000000
  C       -3.3986470     0.0087400    -0.0000010
  H       -0.7254190    -2.0945270     0.0000000
  H       -0.8108600     2.2139340    -0.0000010
  H       -3.1911200    -2.1409440     0.0000000
  H       -3.2714520     2.1600600    -0.0000020
  H       -4.4854430    -0.0109760     0.0000010
units angstrom
no_reorient  #important for SAPT in psi4, default
symmetry c1  #important for SAPT in psi4, default
}

set PROPERTIES_ORIGIN ["COM"]
properties('MP2/aug-cc-pvtz', properties = ['dipole'])
--------------------------------------------------------------------------

    Molecular point group: c1
  Charge       = 0
  Multiplicity = 1
  Basis Set: AUG-CC-PVTZ
    Blend: AUG-CC-PVTZ
  Basis Set: (AUG-CC-PVTZ AUX)
    Blend: AUG-CC-PVTZ-JKFIT

    Orbital Energies [Eh]
    ---------------------

    Doubly Occupied:

       1A   -104.862030     2A   -104.857849     3A   -104.857202
       4A    -11.442429     5A    -11.275063     6A    -11.256891
       7A    -11.256333     8A    -11.254104     9A    -11.251852
      10A    -11.251246    11A    -10.586487    12A    -10.582290
      13A    -10.581723    14A     -8.053223    15A     -8.051159
      16A     -8.051152    17A     -8.049004    18A     -8.048430
      19A     -8.046923    20A     -8.046877    21A     -8.046355
      22A     -8.046307    23A     -1.249093    24A     -1.164290
      25A     -1.110603    26A     -1.105987    27A     -1.042401
      28A     -1.031799    29A     -0.892316    30A     -0.845515
      31A     -0.794499    32A     -0.720240    33A     -0.661248
      34A     -0.659313    35A     -0.628950    36A     -0.623599
      37A     -0.606038    38A     -0.597032    39A     -0.530695
      40A     -0.528207    41A     -0.513382    42A     -0.495143
      43A     -0.494157    44A     -0.466139    45A     -0.458114
      46A     -0.455764    47A     -0.445059    48A     -0.354555
      49A     -0.348495

  @DF-RHF Final Energy: -1646.60846436166730

   => Energetics <=

    Nuclear Repulsion Energy =            774.0766248775029226
    One-Electron Energy =               -3808.2150561924563590
    Two-Electron Energy =                1387.5299669532860207
    Total Energy =                      -1646.6084643616673020
  Basis Set: (AUG-CC-PVTZ AUX)
    Blend: AUG-CC-PVTZ-RI
    Molecular point group: c1

    Geometry (in Angstrom), charge = 0, multiplicity = 1:

       Center              X                  Y                   Z               Mass
    ------------   -----------------  -----------------  -----------------  -----------------
         CL           1.351775522132    -0.864262208784    -1.464291772567    34.968852682000
         CL           1.590987722132     1.632308991216     0.003071927433    34.968852682000
         CL           1.411236722132    -0.855932008784     1.453381927433    34.968852682000
         C           -0.673129277868     0.066221991216     0.003077927433    12.000000000000
         C           -1.357836277868    -1.158470008784     0.003077927433    12.000000000000
         C           -1.397519277868     1.260586991216     0.003076927433    12.000000000000
         C            0.839419722132     0.020452991216     0.003077927433    12.000000000000
         C           -2.749037277868    -1.182959008784     0.003079927433    12.000000000000
         C           -2.794225277868     1.227143991216     0.003078927433    12.000000000000
         C           -3.474983277868     0.011327991216     0.003077927433    12.000000000000
         H           -0.801755277868    -2.091939008784     0.003078927433     1.007825032230
         H           -0.887196277868     2.216521991216     0.003077927433     1.007825032230
         H           -3.267456277868    -2.138356008784     0.003078927433     1.007825032230
         H           -3.347788277868     2.162647991216     0.003076927433     1.007825032230
         H           -4.561779277868    -0.008388008784     0.003079927433     1.007825032230

  Basis Set: AUG-CC-PVTZ
    Blend: AUG-CC-PVTZ
  Basis Set: (AUG-CC-PVTZ AUX)
    Blend: AUG-CC-PVTZ-JKFIT
	 Reference Energy          =   -1646.6084643616673020 [Eh]
	 Singles Energy            =      -0.0000000000000000 [Eh]
	 Same-Spin Energy          =      -0.4968411254396730 [Eh]
	 Opposite-Spin Energy      =      -1.4649727831135522 [Eh]
	 Correlation Energy        =      -1.9618139085532251 [Eh]
	 Total Energy              =   -1648.5702782702205695 [Eh]

	 ================> DF-SCS-MP2 Energies <==================
	-----------------------------------------------------------
	 SCS Same-Spin Scale       =       0.3333333333333333 [-]
	 SCS Opposite-Spin Scale   =       1.2000000000000000 [-]
	 SCS Same-Spin Energy      =      -0.1656137084798910 [Eh]
	 SCS Opposite-Spin Energy  =      -1.7579673397362625 [Eh]
	 SCS Correlation Energy    =      -1.9235810482161535 [Eh]
	 SCS Total Energy          =   -1648.5320454098834944 [Eh]
	-----------------------------------------------------------

  Dipole Moment: [D]
     X:    -2.2060      Y:     0.0876      Z:     0.0101     Total:     2.2078

*** Psi4 exiting successfully. Buy a developer a beer!
