                               Psi4 1.3.2 release

  ==> Input File <==

--------------------------------------------------------------------------
#psi4
#
memory 32 gb

molecule  {
0 1
 Cl        1.3073839    -0.8802400    -1.4961420
 Cl        1.6673240     1.6297210    -0.0000070
 Cl        1.4875730    -0.8585200     1.4503030
  C       -0.5967930     0.0636340    -0.0000010
  C       -1.2815000    -1.1610580    -0.0000010
  C       -1.3211830     1.2579990    -0.0000020
  C        0.9157560     0.0178650    -0.0000010
  C       -2.6727010    -1.1855470     0.0000010
  C       -2.7178890     1.2245560     0.0000000
  C       -3.3986470     0.0087400    -0.0000010
  H       -0.7254190    -2.0945270     0.0000000
  H       -0.8108600     2.2139340    -0.0000010
  H       -3.1911200    -2.1409440     0.0000000
  H       -3.2714520     2.1600600    -0.0000020
  H       -4.4854430    -0.0109760     0.0000010
units angstrom
no_reorient  #important for SAPT in psi4, default
symmetry c1  #important for SAPT in psi4, default
}

set PROPERTIES_ORIGIN ["COM"]
properties('MP2/aug-cc-pvtz', properties = ['dipole'])
--------------------------------------------------------------------------

    Molecular point group: c1
  Charge       = 0
  Multiplicity = 1
  Basis Set: AUG-CC-PVTZ
    Blend: AUG-CC-PVTZ
  Basis Set: (AUG-CC-PVTZ AUX)
    Blend: AUG-CC-PVTZ-JKFIT

    Orbital Energies [Eh]
    ---------------------

    Doubly Occupied:

       1A   -104.864058     2A   -104.859688     3A   -104.857632
       4A    -11.442494     5A    -11.273832     6A    -11.255233
       7A    -11.254731     8A    -11.252573     9A    -11.250799
      10A    -11.250124    11A    -10.588366    12A    -10.583996
      13A    -10.582219    14A     -8.055107    15A     -8.053040
      16A     -8.053032    17A     -8.050715    18A     -8.048912
      19A     -8.048631    20A     -8.048583    21A     -8.046839
      22A     -8.046787    23A     -1.249627    24A     -1.162766
      25A     -1.112957    26A     -1.107879    27A     -1.040449
      28A     -1.030601    29A     -0.891612    30A     -0.844608
      31A     -0.794002    32A     -0.719425    33A     -0.660237
      34A     -0.658920    35A     -0.630507    36A     -0.622291
      37A     -0.605274    38A     -0.596533    39A     -0.529548
      40A     -0.529522    41A     -0.512404    42A     -0.495621
      43A     -0.493137    44A     -0.463034    45A     -0.461558
      46A     -0.457907    47A     -0.447560    48A     -0.353393
      49A     -0.345966

  @DF-RHF Final Energy: -1646.60528673696899

   => Energetics <=

    Nuclear Repulsion Energy =            775.0472171407303676
    One-Electron Energy =               -3810.1355507108605707
    Two-Electron Energy =                1388.4830468331610973
    Total Energy =                      -1646.6052867369689920
  Basis Set: (AUG-CC-PVTZ AUX)
    Blend: AUG-CC-PVTZ-RI
    Molecular point group: c1

    Geometry (in Angstrom), charge = 0, multiplicity = 1:

       Center              X                  Y                   Z               Mass
    ------------   -----------------  -----------------  -----------------  -----------------
         CL           1.252815140129    -0.875237797052    -1.487875541014    34.968852682000
         CL           1.612755240129     1.634723202948     0.008259458986    34.968852682000
         CL           1.433004240129    -0.853517797052     1.458569458986    34.968852682000
         C           -0.651361759871     0.068636202948     0.008265458986    12.000000000000
         C           -1.336068759871    -1.156055797052     0.008265458986    12.000000000000
         C           -1.375751759871     1.263001202948     0.008264458986    12.000000000000
         C            0.861187240129     0.022867202948     0.008265458986    12.000000000000
         C           -2.727269759871    -1.180544797052     0.008267458986    12.000000000000
         C           -2.772457759871     1.229558202948     0.008266458986    12.000000000000
         C           -3.453215759871     0.013742202948     0.008265458986    12.000000000000
         H           -0.779987759871    -2.089524797052     0.008266458986     1.007825032230
         H           -0.865428759871     2.218936202948     0.008265458986     1.007825032230
         H           -3.245688759871    -2.135941797052     0.008266458986     1.007825032230
         H           -3.326020759871     2.165062202948     0.008264458986     1.007825032230
         H           -4.540011759871    -0.005973797052     0.008267458986     1.007825032230

  Basis Set: AUG-CC-PVTZ
    Blend: AUG-CC-PVTZ
  Basis Set: (AUG-CC-PVTZ AUX)
    Blend: AUG-CC-PVTZ-JKFIT
	 Reference Energy          =   -1646.6052867369689920 [Eh]
	 Singles Energy            =      -0.0000000000000000 [Eh]
	 Same-Spin Energy          =      -0.4972230352956829 [Eh]
	 Opposite-Spin Energy      =      -1.4656528819313202 [Eh]
	 Correlation Energy        =      -1.9628759172270032 [Eh]
	 Total Energy              =   -1648.5681626541959304 [Eh]

	 ================> DF-SCS-MP2 Energies <==================
	-----------------------------------------------------------
	 SCS Same-Spin Scale       =       0.3333333333333333 [-]
	 SCS Opposite-Spin Scale   =       1.2000000000000000 [-]
	 SCS Same-Spin Energy      =      -0.1657410117652276 [Eh]
	 SCS Opposite-Spin Energy  =      -1.7587834583175841 [Eh]
	 SCS Correlation Energy    =      -1.9245244700828117 [Eh]
	 SCS Total Energy          =   -1648.5298112070518073 [Eh]
	-----------------------------------------------------------

  Dipole Moment: [D]
     X:    -2.0761      Y:     0.0937      Z:     0.0283     Total:     2.0784

*** Psi4 exiting successfully. Buy a developer a beer!
