                               Psi4 1.4a3.dev225

  ==> Input File <==

--------------------------------------------------------------------------
#psi4
#
memory 32 gb

molecule  {
0 1
 Cl        1.4875760    -0.8585340    -1.4502940
 Cl        1.6673240     1.6297210    -0.0000070
 Cl        1.4875730    -0.8585200     1.4503030
  C       -0.5967930     0.0636340    -0.0000010
  C       -1.2815000    -1.1610580    -0.0000010
  C       -1.3211830     1.2579990    -0.0000020
  C        0.9357468     0.0172601    -0.0000010
  C       -2.6727010    -1.1855470     0.0000010
  C       -2.7178890     1.2245560     0.0000000
  C       -3.3986470     0.0087400    -0.0000010
  H       -0.7254190    -2.0945270     0.0000000
  H       -0.8108600     2.2139340    -0.0000010
  H       -3.1911200    -2.1409440     0.0000000
  H       -3.2714520     2.1600600    -0.0000020
  H       -4.4854430    -0.0109760     0.0000010
units angstrom
no_reorient  #important for SAPT in psi4, default
symmetry c1  #important for SAPT in psi4, default
}

set PROPERTIES_ORIGIN ["COM"]
properties('MP2/aug-cc-pvtz', properties = ['dipole'])
--------------------------------------------------------------------------

    Molecular point group: c1
  Charge       = 0
  Multiplicity = 1
  Basis Set: AUG-CC-PVTZ
    Blend: AUG-CC-PVTZ
  Basis Set: (AUG-CC-PVTZ AUX)
    Blend: AUG-CC-PVTZ-JKFIT

    Orbital Energies [Eh]
    ---------------------

    Doubly Occupied:

       1A   -104.861537     2A   -104.857445     3A   -104.857445
       4A    -11.442015     5A    -11.276571     6A    -11.256760
       7A    -11.256239     8A    -11.253954     9A    -11.251791
      10A    -11.251230    11A    -10.586197    12A    -10.582049
      13A    -10.582040    14A     -8.052948    15A     -8.050867
      16A     -8.050859    17A     -8.048770    18A     -8.048769
      19A     -8.046678    20A     -8.046677    21A     -8.046631
      22A     -8.046630    23A     -1.249936    24A     -1.164583
      25A     -1.111470    26A     -1.106543    27A     -1.041044
      28A     -1.031697    29A     -0.889146    30A     -0.845021
      31A     -0.794927    32A     -0.720343    33A     -0.660535
      34A     -0.658592    35A     -0.629238    36A     -0.623685
      37A     -0.606308    38A     -0.599126    39A     -0.530896
      40A     -0.527757    41A     -0.513264    42A     -0.495297
      43A     -0.495263    44A     -0.464470    45A     -0.457710
      46A     -0.455960    47A     -0.444424    48A     -0.354464
      49A     -0.348937

  @DF-RHF Final Energy: -1646.60885168122627

   => Energetics <=

    Nuclear Repulsion Energy =            773.7072886449508360
    One-Electron Energy =               -3807.4827962605909306
    Two-Electron Energy =                1387.1666559344137113
    Total Energy =                      -1646.6088516812262696
  Basis Set: (AUG-CC-PVTZ AUX)
    Blend: AUG-CC-PVTZ-RI
    Molecular point group: c1

    Geometry (in Angstrom), charge = 0, multiplicity = 1:

       Center              X                  Y                   Z               Mass
    ------------   -----------------  -----------------  -----------------  -----------------
         CL           1.399281299489    -0.857408011794    -1.450294040847    34.968852682000
         CL           1.579029299489     1.630846988206    -0.000007040847    34.968852682000
         CL           1.399278299489    -0.857394011794     1.450302959153    34.968852682000
         C           -0.685087700511     0.064759988206    -0.000001040847    12.000000000000
         C           -1.369794700511    -1.159932011794    -0.000001040847    12.000000000000
         C           -1.409477700511     1.259124988206    -0.000002040847    12.000000000000
         C            0.847452099489     0.018386088206    -0.000001040847    12.000000000000
         C           -2.760995700511    -1.184421011794     0.000000959153    12.000000000000
         C           -2.806183700511     1.225681988206    -0.000000040847    12.000000000000
         C           -3.486941700511     0.009865988206    -0.000001040847    12.000000000000
         H           -0.813713700511    -2.093401011794    -0.000000040847     1.007825032230
         H           -0.899154700511     2.215059988206    -0.000001040847     1.007825032230
         H           -3.279414700511    -2.139818011794    -0.000000040847     1.007825032230
         H           -3.359746700511     2.161185988206    -0.000002040847     1.007825032230
         H           -4.573737700511    -0.009850011794     0.000000959153     1.007825032230

  Basis Set: AUG-CC-PVTZ
    Blend: AUG-CC-PVTZ
  Basis Set: (AUG-CC-PVTZ AUX)
    Blend: AUG-CC-PVTZ-JKFIT
	 Reference Energy          =   -1646.6088516812262696 [Eh]
	 Singles Energy            =      -0.0000000000000000 [Eh]
	 Same-Spin Energy          =      -0.4966799993643319 [Eh]
	 Opposite-Spin Energy      =      -1.4645846108583340 [Eh]
	 Correlation Energy        =      -1.9612646102226658 [Eh]
	 Total Energy              =   -1648.5701162914490396 [Eh]

	 ================> DF-SCS-MP2 Energies <==================
	-----------------------------------------------------------
	 SCS Same-Spin Scale       =       0.3333333333333333 [-]
	 SCS Opposite-Spin Scale   =       1.2000000000000000 [-]
	 SCS Same-Spin Energy      =      -0.1655599997881106 [Eh]
	 SCS Opposite-Spin Energy  =      -1.7575015330300008 [Eh]
	 SCS Correlation Energy    =      -1.9230615328181113 [Eh]
	 SCS Total Energy          =   -1648.5319132140443799 [Eh]
	-----------------------------------------------------------

  Dipole Moment: [D]
     X:    -2.1808      Y:     0.0840      Z:    -0.0000     Total:     2.1825

*** Psi4 exiting successfully. Buy a developer a beer!
