                               Psi4 1.3.2 release

  ==> Input File <==

--------------------------------------------------------------------------
#psi4
#
memory 32 gb

molecule  {
0 1
 Cl        1.6043428    -0.8387098    -1.4108628
 Cl        1.6673240     1.6297210    -0.0000070
 Cl        1.4875730    -0.8585200     1.4503030
  C       -0.5967930     0.0636340    -0.0000010
  C       -1.2815000    -1.1610580    -0.0000010
  C       -1.3211830     1.2579990    -0.0000020
  C        0.9157560     0.0178650    -0.0000010
  C       -2.6727010    -1.1855470     0.0000010
  C       -2.7178890     1.2245560     0.0000000
  C       -3.3986470     0.0087400    -0.0000010
  H       -0.7254190    -2.0945270     0.0000000
  H       -0.8108600     2.2139340    -0.0000010
  H       -3.1911200    -2.1409440     0.0000000
  H       -3.2714520     2.1600600    -0.0000020
  H       -4.4854430    -0.0109760     0.0000010
units angstrom
no_reorient  #important for SAPT in psi4, default
symmetry c1  #important for SAPT in psi4, default
}

set PROPERTIES_ORIGIN ["COM"]
properties('MP2/aug-cc-pvtz', properties = ['dipole'])
--------------------------------------------------------------------------

    Molecular point group: c1
  Charge       = 0
  Multiplicity = 1
  Basis Set: AUG-CC-PVTZ
    Blend: AUG-CC-PVTZ
  Basis Set: (AUG-CC-PVTZ AUX)
    Blend: AUG-CC-PVTZ-JKFIT

    Orbital Energies [Eh]
    ---------------------

    Doubly Occupied:

       1A   -104.858945     2A   -104.856243     3A   -104.855068
       4A    -11.442233     5A    -11.277194     6A    -11.259179
       7A    -11.258578     8A    -11.256237     9A    -11.253297
      10A    -11.252795    11A    -10.583642    12A    -10.580771
      13A    -10.579723    14A     -8.050369    15A     -8.048306
      16A     -8.048301    17A     -8.047483    18A     -8.046427
      19A     -8.045391    20A     -8.045353    21A     -8.044349
      22A     -8.044306    23A     -1.249064    24A     -1.166604
      25A     -1.108207    26A     -1.102219    27A     -1.044929
      28A     -1.033480    29A     -0.893433    30A     -0.846908
      31A     -0.795265    32A     -0.721521    33A     -0.663386
      34A     -0.659700    35A     -0.626650    36A     -0.625013
      37A     -0.607162    38A     -0.597643    39A     -0.532543
      40A     -0.527184    41A     -0.514812    42A     -0.496115
      43A     -0.494020    44A     -0.470493    45A     -0.453425
      46A     -0.451149    47A     -0.440636    48A     -0.356281
      49A     -0.351397

  @DF-RHF Final Energy: -1646.60850884112915

   => Energetics <=

    Nuclear Repulsion Energy =            773.1902524574151130
    One-Electron Energy =               -3806.4706693403572899
    Two-Electron Energy =                1386.6719080418129124
    Total Energy =                      -1646.6085088411291508
  Basis Set: (AUG-CC-PVTZ AUX)
    Blend: AUG-CC-PVTZ-RI
    Molecular point group: c1

    Geometry (in Angstrom), charge = 0, multiplicity = 1:

       Center              X                  Y                   Z               Mass
    ------------   -----------------  -----------------  -----------------  -----------------
         CL           1.496231667569    -0.841195587616    -1.417972376883    34.968852682000
         CL           1.559212867569     1.627235212384    -0.007116576883    34.968852682000
         CL           1.379461867569    -0.861005787616     1.443193423117    34.968852682000
         C           -0.704904132431     0.061148212384    -0.007110576883    12.000000000000
         C           -1.389611132431    -1.163543787616    -0.007110576883    12.000000000000
         C           -1.429294132431     1.255513212384    -0.007111576883    12.000000000000
         C            0.807644867569     0.015379212384    -0.007110576883    12.000000000000
         C           -2.780812132431    -1.188032787616    -0.007108576883    12.000000000000
         C           -2.826000132431     1.222070212384    -0.007109576883    12.000000000000
         C           -3.506758132431     0.006254212384    -0.007110576883    12.000000000000
         H           -0.833530132431    -2.097012787616    -0.007109576883     1.007825032230
         H           -0.918971132431     2.211448212384    -0.007110576883     1.007825032230
         H           -3.299231132431    -2.143429787616    -0.007109576883     1.007825032230
         H           -3.379563132431     2.157574212384    -0.007111576883     1.007825032230
         H           -4.593554132431    -0.013461787616    -0.007108576883     1.007825032230

  Basis Set: AUG-CC-PVTZ
    Blend: AUG-CC-PVTZ
  Basis Set: (AUG-CC-PVTZ AUX)
    Blend: AUG-CC-PVTZ-JKFIT
	 Reference Energy          =   -1646.6085088411291508 [Eh]
	 Singles Energy            =      -0.0000000000000000 [Eh]
	 Same-Spin Energy          =      -0.4965857123239992 [Eh]
	 Opposite-Spin Energy      =      -1.4644458952214117 [Eh]
	 Correlation Energy        =      -1.9610316075454108 [Eh]
	 Total Energy              =   -1648.5695404486746156 [Eh]

	 ================> DF-SCS-MP2 Energies <==================
	-----------------------------------------------------------
	 SCS Same-Spin Scale       =       0.3333333333333333 [-]
	 SCS Opposite-Spin Scale   =       1.2000000000000000 [-]
	 SCS Same-Spin Energy      =      -0.1655285707746664 [Eh]
	 SCS Opposite-Spin Energy  =      -1.7573350742656939 [Eh]
	 SCS Correlation Energy    =      -1.9228636450403602 [Eh]
	 SCS Total Energy          =   -1648.5313724861694027 [Eh]
	-----------------------------------------------------------

  Dipole Moment: [D]
     X:    -2.3894      Y:     0.0739      Z:    -0.0218     Total:     2.3906

*** Psi4 exiting successfully. Buy a developer a beer!
