                               Psi4 1.4a3.dev225

  ==> Input File <==

--------------------------------------------------------------------------
#psi4
#
memory 32 gb

molecule  {
0 1
  O       -2.3098380     0.0000000     0.0000530
  O        3.0303810     0.0000000    -0.0000560
  C       -0.3206930     1.2871930     0.0000000
  C       -0.3206930    -1.2871930     0.0000010
  C       -1.2703170     0.0000000     0.0000262
  C        1.0315930     1.2651910    -0.0000170
  C        1.0315930    -1.2651910    -0.0000160
  C        1.7909690     0.0000000    -0.0000320
  C       -1.1413450     2.5387140     0.0000150
  C       -1.1413450    -2.5387140     0.0000190
  H        1.6245090     2.1778770    -0.0000300
  H        1.6245090    -2.1778770    -0.0000270
  H       -1.7933300     2.5679320     0.8776520
  H       -1.7934040     2.5679060    -0.8775670
  H       -0.4992340     3.4225460    -0.0000240
  H       -0.4992350    -3.4225460    -0.0000280
  H       -1.7934120    -2.5679030    -0.8775580
  H       -1.7933230    -2.5679350     0.8776610
units angstrom
no_reorient  #important for SAPT in psi4, default
symmetry c1  #important for SAPT in psi4, default
}

set PROPERTIES_ORIGIN ["COM"]
properties('MP2/aug-cc-pvtz', properties = ['dipole'])
--------------------------------------------------------------------------

    Molecular point group: c1
  Charge       = 0
  Multiplicity = 1
  Basis Set: AUG-CC-PVTZ
    Blend: AUG-CC-PVTZ
  Basis Set: (AUG-CC-PVTZ AUX)
    Blend: AUG-CC-PVTZ-JKFIT

    Orbital Energies [Eh]
    ---------------------

    Doubly Occupied:

       1A    -20.597467     2A    -20.552496     3A    -11.355304
       4A    -11.341428     5A    -11.278759     6A    -11.278733
       7A    -11.257928     8A    -11.257905     9A    -11.239959
      10A    -11.239958    11A     -1.562266    12A     -1.376423
      13A     -1.138401    14A     -1.088897    15A     -1.002101
      16A     -0.959059    17A     -0.895523    18A     -0.810025
      19A     -0.799034    20A     -0.741475    21A     -0.736900
      22A     -0.670833    23A     -0.654808    24A     -0.623673
      25A     -0.599944    26A     -0.588001    27A     -0.586302
      28A     -0.582624    29A     -0.579955    30A     -0.560921
      31A     -0.552771    32A     -0.545099    33A     -0.440120
      34A     -0.396051    35A     -0.394685    36A     -0.374145

  @DF-RHF Final Energy:  -457.41006685323839

   => Energetics <=

    Nuclear Repulsion Energy =            490.9286699794915876
    One-Electron Energy =               -1595.3575253242086092
    Two-Electron Energy =                 647.0187884914786309
    Total Energy =                       -457.4100668532383906
  Basis Set: (AUG-CC-PVTZ AUX)
    Blend: AUG-CC-PVTZ-RI
    Molecular point group: c1

    Geometry (in Angstrom), charge = 0, multiplicity = 1:

       Center              X                  Y                   Z               Mass
    ------------   -----------------  -----------------  -----------------  -----------------
         O           -2.328071601313    -0.000000000000     0.000053102656    15.994914619570
         O            3.012147398687    -0.000000000000    -0.000055897344    15.994914619570
         C           -0.338926601313     1.287193000000     0.000000102656    12.000000000000
         C           -0.338926601313    -1.287193000000     0.000001102656    12.000000000000
         C           -1.288550601313    -0.000000000000     0.000026302656    12.000000000000
         C            1.013359398687     1.265191000000    -0.000016897344    12.000000000000
         C            1.013359398687    -1.265191000000    -0.000015897344    12.000000000000
         C            1.772735398687    -0.000000000000    -0.000031897344    12.000000000000
         C           -1.159578601313     2.538714000000     0.000015102656    12.000000000000
         C           -1.159578601313    -2.538714000000     0.000019102656    12.000000000000
         H            1.606275398687     2.177877000000    -0.000029897344     1.007825032230
         H            1.606275398687    -2.177877000000    -0.000026897344     1.007825032230
         H           -1.811563601313     2.567932000000     0.877652102656     1.007825032230
         H           -1.811637601313     2.567906000000    -0.877566897344     1.007825032230
         H           -0.517467601313     3.422546000000    -0.000023897344     1.007825032230
         H           -0.517468601313    -3.422546000000    -0.000027897344     1.007825032230
         H           -1.811645601313    -2.567903000000    -0.877557897344     1.007825032230
         H           -1.811556601313    -2.567935000000     0.877661102656     1.007825032230

  Basis Set: AUG-CC-PVTZ
    Blend: AUG-CC-PVTZ
  Basis Set: (AUG-CC-PVTZ AUX)
    Blend: AUG-CC-PVTZ-JKFIT
	 Reference Energy          =    -457.4100668532383906 [Eh]
	 Singles Energy            =      -0.0000000000000000 [Eh]
	 Same-Spin Energy          =      -0.4612759434307623 [Eh]
	 Opposite-Spin Energy      =      -1.4651035434288286 [Eh]
	 Correlation Energy        =      -1.9263794868595909 [Eh]
	 Total Energy              =    -459.3364463400980071 [Eh]

	 ================> DF-SCS-MP2 Energies <==================
	-----------------------------------------------------------
	 SCS Same-Spin Scale       =       0.3333333333333333 [-]
	 SCS Opposite-Spin Scale   =       1.2000000000000000 [-]
	 SCS Same-Spin Energy      =      -0.1537586478102541 [Eh]
	 SCS Opposite-Spin Energy  =      -1.7581242521145943 [Eh]
	 SCS Correlation Energy    =      -1.9118828999248485 [Eh]
	 SCS Total Energy          =    -459.3219497531632669 [Eh]
	-----------------------------------------------------------

  Dipole Moment: [D]
     X:    -2.4343      Y:    -0.0000      Z:     0.0000     Total:     2.4343

*** Psi4 exiting successfully. Buy a developer a beer!
