                               Psi4 1.4a3.dev225

  ==> Input File <==

--------------------------------------------------------------------------
#psi4
#
memory 32 gb

molecule  {
0 1
  O       -2.3098380     0.0000000     0.0000530
  O        3.0303810     0.0000000    -0.0000560
  C       -0.3206930     1.2871930     0.0000000
  C       -0.3206930    -1.2871930     0.0000010
  C       -1.0703170     0.0000000     0.0000210
  C        1.0315930     1.2651910    -0.0000170
  C        1.0815864    -1.2643776    -0.0000166
  C        1.7909690     0.0000000    -0.0000320
  C       -1.1413450     2.5387140     0.0000150
  C       -1.1413450    -2.5387140     0.0000190
  H        1.6245090     2.1778770    -0.0000300
  H        1.6245090    -2.1778770    -0.0000270
  H       -1.7933300     2.5679320     0.8776520
  H       -1.7934040     2.5679060    -0.8775670
  H       -0.4992340     3.4225460    -0.0000240
  H       -0.4992350    -3.4225460    -0.0000280
  H       -1.7934120    -2.5679030    -0.8775580
  H       -1.7933230    -2.5679350     0.8776610
units angstrom
no_reorient  #important for SAPT in psi4, default
symmetry c1  #important for SAPT in psi4, default
}

set PROPERTIES_ORIGIN ["COM"]
properties('MP2/aug-cc-pvtz', properties = ['dipole'])
--------------------------------------------------------------------------

    Molecular point group: c1
  Charge       = 0
  Multiplicity = 1
  Basis Set: AUG-CC-PVTZ
    Blend: AUG-CC-PVTZ
  Basis Set: (AUG-CC-PVTZ AUX)
    Blend: AUG-CC-PVTZ-JKFIT

    Orbital Energies [Eh]
    ---------------------

    Doubly Occupied:

       1A    -20.578671     2A    -20.564302     3A    -11.361075
       4A    -11.350207     5A    -11.296012     6A    -11.287089
       7A    -11.272615     8A    -11.270734     9A    -11.244957
      10A    -11.243227    11A     -1.402651    12A     -1.388636
      13A     -1.157048    14A     -1.098354    15A     -1.009290
      16A     -0.965822    17A     -0.930962    18A     -0.824934
      19A     -0.805351    20A     -0.720981    21A     -0.699284
      22A     -0.654491    23A     -0.617914    24A     -0.617007
      25A     -0.608941    26A     -0.593068    27A     -0.589306
      28A     -0.576301    29A     -0.555283    30A     -0.549657
      31A     -0.548547    32A     -0.533743    33A     -0.457014
      34A     -0.439143    35A     -0.396274    36A     -0.377621

  @DF-RHF Final Energy:  -457.46549306294361

   => Energetics <=

    Nuclear Repulsion Energy =            490.0532551234984453
    One-Electron Energy =               -1593.8644746347097225
    Two-Electron Energy =                 646.3457264482675555
    Total Energy =                       -457.4654930629436649
  Basis Set: (AUG-CC-PVTZ AUX)
    Blend: AUG-CC-PVTZ-RI
    Molecular point group: c1

    Geometry (in Angstrom), charge = 0, multiplicity = 1:

       Center              X                  Y                   Z               Mass
    ------------   -----------------  -----------------  -----------------  -----------------
         O           -2.350121342071    -0.000071742931     0.000053614223    15.994914619570
         O            2.990097657929    -0.000071742931    -0.000055385777    15.994914619570
         C           -0.360976342071     1.287121257069     0.000000614223    12.000000000000
         C           -0.360976342071    -1.287264742931     0.000001614223    12.000000000000
         C           -1.110600342071    -0.000071742931     0.000021614223    12.000000000000
         C            0.991309657929     1.265119257069    -0.000016385777    12.000000000000
         C            1.041303057929    -1.264449342931    -0.000015985777    12.000000000000
         C            1.750685657929    -0.000071742931    -0.000031385777    12.000000000000
         C           -1.181628342071     2.538642257069     0.000015614223    12.000000000000
         C           -1.181628342071    -2.538785742931     0.000019614223    12.000000000000
         H            1.584225657929     2.177805257069    -0.000029385777     1.007825032230
         H            1.584225657929    -2.177948742931    -0.000026385777     1.007825032230
         H           -1.833613342071     2.567860257069     0.877652614223     1.007825032230
         H           -1.833687342071     2.567834257069    -0.877566385777     1.007825032230
         H           -0.539517342071     3.422474257069    -0.000023385777     1.007825032230
         H           -0.539518342071    -3.422617742931    -0.000027385777     1.007825032230
         H           -1.833695342071    -2.567974742931    -0.877557385777     1.007825032230
         H           -1.833606342071    -2.568006742931     0.877661614223     1.007825032230

  Basis Set: AUG-CC-PVTZ
    Blend: AUG-CC-PVTZ
  Basis Set: (AUG-CC-PVTZ AUX)
    Blend: AUG-CC-PVTZ-JKFIT
	 Reference Energy          =    -457.4654930629436080 [Eh]
	 Singles Energy            =      -0.0000000000000000 [Eh]
	 Same-Spin Energy          =      -0.4676535332139397 [Eh]
	 Opposite-Spin Energy      =      -1.4785268193758117 [Eh]
	 Correlation Energy        =      -1.9461803525897514 [Eh]
	 Total Energy              =    -459.4116734155333575 [Eh]

	 ================> DF-SCS-MP2 Energies <==================
	-----------------------------------------------------------
	 SCS Same-Spin Scale       =       0.3333333333333333 [-]
	 SCS Opposite-Spin Scale   =       1.2000000000000000 [-]
	 SCS Same-Spin Energy      =      -0.1558845110713132 [Eh]
	 SCS Opposite-Spin Energy  =      -1.7742321832509740 [Eh]
	 SCS Correlation Energy    =      -1.9301166943222872 [Eh]
	 SCS Total Energy          =    -459.3956097572659019 [Eh]
	-----------------------------------------------------------

  Dipole Moment: [D]
     X:    -1.1603      Y:    -0.0764      Z:     0.0000     Total:     1.1628

*** Psi4 exiting successfully. Buy a developer a beer!
