                               Psi4 1.4a3.dev225

  ==> Input File <==

--------------------------------------------------------------------------
#psi4
#
memory 32 gb

molecule  {
0 1
  O       -2.3098380     0.0000000     0.0000530
  O        3.0303810     0.0000000    -0.0000560
  C       -0.3206930     1.2871930     0.0000000
  C       -0.3206930    -1.2871930     0.0000010
  C       -1.0703170     0.0000000     0.0000210
  C        1.0315930     1.2651910    -0.0000170
  C        1.0315930    -1.2651910    -0.0000160
  C        1.7909690     0.0000000    -0.0000320
  C       -1.1413450     2.5387140     0.0000150
  C       -1.1413450    -2.5387140     0.0000190
  H        1.6245090     2.1778770    -0.0000300
  H        1.6245090    -2.1778770    -0.0000270
  H       -1.7933300     2.5679320     0.8776520
  H       -1.8232137     2.5692406    -0.9176868
  H       -0.4992340     3.4225460    -0.0000240
  H       -0.4992350    -3.4225460    -0.0000280
  H       -1.7934120    -2.5679030    -0.8775580
  H       -1.7933230    -2.5679350     0.8776610
units angstrom
no_reorient  #important for SAPT in psi4, default
symmetry c1  #important for SAPT in psi4, default
}

set PROPERTIES_ORIGIN ["COM"]
properties('MP2/aug-cc-pvtz', properties = ['dipole'])
--------------------------------------------------------------------------

    Molecular point group: c1
  Charge       = 0
  Multiplicity = 1
  Basis Set: AUG-CC-PVTZ
    Blend: AUG-CC-PVTZ
  Basis Set: (AUG-CC-PVTZ AUX)
    Blend: AUG-CC-PVTZ-JKFIT

    Orbital Energies [Eh]
    ---------------------

    Doubly Occupied:

       1A    -20.577966     2A    -20.567007     3A    -11.360551
       4A    -11.353356     5A    -11.287934     6A    -11.287631
       7A    -11.270584     8A    -11.270367     9A    -11.249090
      10A    -11.243441    11A     -1.402062    12A     -1.389181
      13A     -1.160860    14A     -1.102001    15A     -1.006106
      16A     -0.963578    17A     -0.929022    18A     -0.822548
      19A     -0.807518    20A     -0.722052    21A     -0.697209
      22A     -0.655493    23A     -0.617229    24A     -0.612765
      25A     -0.607243    26A     -0.593817    27A     -0.586164
      28A     -0.573418    29A     -0.554302    30A     -0.550151
      31A     -0.547986    32A     -0.532062    33A     -0.458645
      34A     -0.435735    35A     -0.399648    36A     -0.384489

  @DF-RHF Final Energy:  -457.46945686683574

   => Energetics <=

    Nuclear Repulsion Energy =            490.3218077716716721
    One-Electron Energy =               -1594.4241063650872547
    Two-Electron Energy =                 646.6328417265797270
    Total Energy =                       -457.4694568668357988
  Basis Set: (AUG-CC-PVTZ AUX)
    Blend: AUG-CC-PVTZ-RI
    Molecular point group: c1

    Geometry (in Angstrom), charge = 0, multiplicity = 1:

       Center              X                  Y                   Z               Mass
    ------------   -----------------  -----------------  -----------------  -----------------
         O           -2.345491040619    -0.000009886213     0.000350753634    15.994914619570
         O            2.994727959381    -0.000009886213     0.000241753634    15.994914619570
         C           -0.356346040619     1.287183113787     0.000297753634    12.000000000000
         C           -0.356346040619    -1.287202886213     0.000298753634    12.000000000000
         C           -1.105970040619    -0.000009886213     0.000318753634    12.000000000000
         C            0.995939959381     1.265181113787     0.000280753634    12.000000000000
         C            0.995939959381    -1.265200886213     0.000281753634    12.000000000000
         C            1.755315959381    -0.000009886213     0.000265753634    12.000000000000
         C           -1.176998040619     2.538704113787     0.000312753634    12.000000000000
         C           -1.176998040619    -2.538723886213     0.000316753634    12.000000000000
         H            1.588855959381     2.177867113787     0.000267753634     1.007825032230
         H            1.588855959381    -2.177886886213     0.000270753634     1.007825032230
         H           -1.828983040619     2.567922113787     0.877949753634     1.007825032230
         H           -1.858866740619     2.569230713787    -0.917389046366     1.007825032230
         H           -0.534887040619     3.422536113787     0.000273753634     1.007825032230
         H           -0.534888040619    -3.422555886213     0.000269753634     1.007825032230
         H           -1.829065040619    -2.567912886213    -0.877260246366     1.007825032230
         H           -1.828976040619    -2.567944886213     0.877958753634     1.007825032230

  Basis Set: AUG-CC-PVTZ
    Blend: AUG-CC-PVTZ
  Basis Set: (AUG-CC-PVTZ AUX)
    Blend: AUG-CC-PVTZ-JKFIT
	 Reference Energy          =    -457.4694568668357419 [Eh]
	 Singles Energy            =      -0.0000000000000000 [Eh]
	 Same-Spin Energy          =      -0.4668480702560494 [Eh]
	 Opposite-Spin Energy      =      -1.4772628855155163 [Eh]
	 Correlation Energy        =      -1.9441109557715657 [Eh]
	 Total Energy              =    -459.4135678226073196 [Eh]

	 ================> DF-SCS-MP2 Energies <==================
	-----------------------------------------------------------
	 SCS Same-Spin Scale       =       0.3333333333333333 [-]
	 SCS Opposite-Spin Scale   =       1.2000000000000000 [-]
	 SCS Same-Spin Energy      =      -0.1556160234186831 [Eh]
	 SCS Opposite-Spin Energy  =      -1.7727154626186195 [Eh]
	 SCS Correlation Energy    =      -1.9283314860373026 [Eh]
	 SCS Total Energy          =    -459.3977883528730217 [Eh]
	-----------------------------------------------------------

  Dipole Moment: [D]
     X:    -1.1249      Y:    -0.0066      Z:     0.0092     Total:     1.1250

*** Psi4 exiting successfully. Buy a developer a beer!
