                               Psi4 1.4a3.dev225

  ==> Input File <==

--------------------------------------------------------------------------
#psi4
#
memory 32 gb

molecule  {
0 1
  O       -2.3098380     0.0000000     0.0000530
  O        3.0303810     0.0000000    -0.0000560
  C       -0.3206930     1.2871930     0.0000000
  C       -0.3206930    -1.2871930     0.0000010
  C       -1.0703170     0.0000000     0.0000210
  C        1.0315930     1.2651910    -0.0000170
  C        1.0315930    -1.2651910    -0.0000160
  C        1.7909690     0.0000000    -0.0000320
  C       -1.1413450     2.5387140     0.0000150
  C       -1.1413450    -2.5387140     0.0000190
  H        1.6245090     2.1778770    -0.0000300
  H        1.6245090    -2.1778770    -0.0000270
  H       -1.7933300     2.5679320     0.8776520
  H       -1.7934040     2.5679060    -0.8775670
  H       -0.5109893     3.4063654    -0.0000233
  H       -0.4992350    -3.4225460    -0.0000280
  H       -1.7934120    -2.5679030    -0.8775580
  H       -1.7933230    -2.5679350     0.8776610
units angstrom
no_reorient  #important for SAPT in psi4, default
symmetry c1  #important for SAPT in psi4, default
}

set PROPERTIES_ORIGIN ["COM"]
properties('MP2/aug-cc-pvtz', properties = ['dipole'])
--------------------------------------------------------------------------

    Molecular point group: c1
  Charge       = 0
  Multiplicity = 1
  Basis Set: AUG-CC-PVTZ
    Blend: AUG-CC-PVTZ
  Basis Set: (AUG-CC-PVTZ AUX)
    Blend: AUG-CC-PVTZ-JKFIT

    Orbital Energies [Eh]
    ---------------------

    Doubly Occupied:

       1A    -20.577927     2A    -20.566831     3A    -11.360413
       4A    -11.353179     5A    -11.287497     6A    -11.287441
       7A    -11.270271     8A    -11.270248     9A    -11.243357
      10A    -11.241024    11A     -1.402017    12A     -1.389019
      13A     -1.160811    14A     -1.102466    15A     -1.007737
      16A     -0.965471    17A     -0.930134    18A     -0.823685
      19A     -0.807892    20A     -0.722189    21A     -0.697157
      22A     -0.655673    23A     -0.618288    24A     -0.613196
      25A     -0.607450    26A     -0.594875    27A     -0.589083
      28A     -0.574540    29A     -0.554833    30A     -0.552563
      31A     -0.549912    32A     -0.533277    33A     -0.458557
      34A     -0.435608    35A     -0.399664    36A     -0.384654

  @DF-RHF Final Energy:  -457.47165371079296

   => Energetics <=

    Nuclear Repulsion Energy =            490.6247235373597277
    One-Electron Energy =               -1595.0148726992326829
    Two-Electron Energy =                 646.9184954510800480
    Total Energy =                       -457.4716537107930208
  Basis Set: (AUG-CC-PVTZ AUX)
    Blend: AUG-CC-PVTZ-RI
    Molecular point group: c1

    Geometry (in Angstrom), charge = 0, multiplicity = 1:

       Center              X                  Y                   Z               Mass
    ------------   -----------------  -----------------  -----------------  -----------------
         O           -2.345624780798     0.000119859776     0.000053556117    15.994914619570
         O            2.994594219202     0.000119859776    -0.000055443883    15.994914619570
         C           -0.356479780798     1.287312859776     0.000000556117    12.000000000000
         C           -0.356479780798    -1.287073140224     0.000001556117    12.000000000000
         C           -1.106103780798     0.000119859776     0.000021556117    12.000000000000
         C            0.995806219202     1.265310859776    -0.000016443883    12.000000000000
         C            0.995806219202    -1.265071140224    -0.000015443883    12.000000000000
         C            1.755182219202     0.000119859776    -0.000031443883    12.000000000000
         C           -1.177131780798     2.538833859776     0.000015556117    12.000000000000
         C           -1.177131780798    -2.538594140224     0.000019556117    12.000000000000
         H            1.588722219202     2.177996859776    -0.000029443883     1.007825032230
         H            1.588722219202    -2.177757140224    -0.000026443883     1.007825032230
         H           -1.829116780798     2.568051859776     0.877652556117     1.007825032230
         H           -1.829190780798     2.568025859776    -0.877566443883     1.007825032230
         H           -0.546776080798     3.406485259776    -0.000022743883     1.007825032230
         H           -0.535021780798    -3.422426140224    -0.000027443883     1.007825032230
         H           -1.829198780798    -2.567783140224    -0.877557443883     1.007825032230
         H           -1.829109780798    -2.567815140224     0.877661556117     1.007825032230

  Basis Set: AUG-CC-PVTZ
    Blend: AUG-CC-PVTZ
  Basis Set: (AUG-CC-PVTZ AUX)
    Blend: AUG-CC-PVTZ-JKFIT
	 Reference Energy          =    -457.4716537107929639 [Eh]
	 Singles Energy            =      -0.0000000000000000 [Eh]
	 Same-Spin Energy          =      -0.4668120131808798 [Eh]
	 Opposite-Spin Energy      =      -1.4767654850422138 [Eh]
	 Correlation Energy        =      -1.9435774982230938 [Eh]
	 Total Energy              =    -459.4152312090160422 [Eh]

	 ================> DF-SCS-MP2 Energies <==================
	-----------------------------------------------------------
	 SCS Same-Spin Scale       =       0.3333333333333333 [-]
	 SCS Opposite-Spin Scale   =       1.2000000000000000 [-]
	 SCS Same-Spin Energy      =      -0.1556040043936266 [Eh]
	 SCS Opposite-Spin Energy  =      -1.7721185820506566 [Eh]
	 SCS Correlation Energy    =      -1.9277225864442833 [Eh]
	 SCS Total Energy          =    -459.3993762972372679 [Eh]
	-----------------------------------------------------------

  Dipole Moment: [D]
     X:    -1.1306      Y:     0.0102      Z:     0.0000     Total:     1.1307

*** Psi4 exiting successfully. Buy a developer a beer!
