                               Psi4 1.4a3.dev225

  ==> Input File <==

--------------------------------------------------------------------------
#psi4
#
memory 32 gb

molecule  {
0 1
  O       -2.3098380     0.0000000     0.0000530
  O        3.0303810     0.0000000    -0.0000560
  C       -0.3206930     1.2871930     0.0000000
  C       -0.3206930    -1.2871930     0.0000010
  C       -1.0703170     0.0000000     0.0000210
  C        1.0315930     1.2651910    -0.0000170
  C        1.0315930    -1.2651910    -0.0000160
  C        1.7709690     0.0000000    -0.0000316
  C       -1.1413450     2.5387140     0.0000150
  C       -1.1413450    -2.5387140     0.0000190
  H        1.6245090     2.1778770    -0.0000300
  H        1.6245090    -2.1778770    -0.0000270
  H       -1.7933300     2.5679320     0.8776520
  H       -1.7934040     2.5679060    -0.8775670
  H       -0.4992340     3.4225460    -0.0000240
  H       -0.4992350    -3.4225460    -0.0000280
  H       -1.7934120    -2.5679030    -0.8775580
  H       -1.7933230    -2.5679350     0.8776610
units angstrom
no_reorient  #important for SAPT in psi4, default
symmetry c1  #important for SAPT in psi4, default
}

set PROPERTIES_ORIGIN ["COM"]
properties('MP2/aug-cc-pvtz', properties = ['dipole'])
--------------------------------------------------------------------------

    Molecular point group: c1
  Charge       = 0
  Multiplicity = 1
  Basis Set: AUG-CC-PVTZ
    Blend: AUG-CC-PVTZ
  Basis Set: (AUG-CC-PVTZ AUX)
    Blend: AUG-CC-PVTZ-JKFIT

    Orbital Energies [Eh]
    ---------------------

    Doubly Occupied:

       1A    -20.579247     2A    -20.565164     3A    -11.361562
       4A    -11.353443     5A    -11.288646     6A    -11.288621
       7A    -11.270771     8A    -11.270748     9A    -11.244080
      10A    -11.244079    11A     -1.403162    12A     -1.375993
      13A     -1.162953    14A     -1.103671    15A     -1.009350
      16A     -0.966792    17A     -0.930843    18A     -0.824015
      19A     -0.809196    20A     -0.722388    21A     -0.698644
      22A     -0.650848    23A     -0.619086    24A     -0.614218
      25A     -0.609637    26A     -0.592263    27A     -0.589945
      28A     -0.573164    29A     -0.550940    30A     -0.550492
      31A     -0.549813    32A     -0.532618    33A     -0.458545
      34A     -0.438235    35A     -0.398107    36A     -0.385699

  @DF-RHF Final Energy:  -457.46836201688745

   => Energetics <=

    Nuclear Repulsion Energy =            490.6263869400306703
    One-Electron Energy =               -1595.0155435110823419
    Two-Electron Energy =                 646.9207945541642175
    Total Energy =                       -457.4683620168874540
  Basis Set: (AUG-CC-PVTZ AUX)
    Blend: AUG-CC-PVTZ-RI
    Molecular point group: c1

    Geometry (in Angstrom), charge = 0, multiplicity = 1:

       Center              X                  Y                   Z               Mass
    ------------   -----------------  -----------------  -----------------  -----------------
         O           -2.343947833791    -0.000000000000     0.000053526022    15.994914619570
         O            2.996271166209    -0.000000000000    -0.000055473978    15.994914619570
         C           -0.354802833791     1.287193000000     0.000000526022    12.000000000000
         C           -0.354802833791    -1.287193000000     0.000001526022    12.000000000000
         C           -1.104426833791    -0.000000000000     0.000021526022    12.000000000000
         C            0.997483166209     1.265191000000    -0.000016473978    12.000000000000
         C            0.997483166209    -1.265191000000    -0.000015473978    12.000000000000
         C            1.736859166209    -0.000000000000    -0.000031073978    12.000000000000
         C           -1.175454833791     2.538714000000     0.000015526022    12.000000000000
         C           -1.175454833791    -2.538714000000     0.000019526022    12.000000000000
         H            1.590399166209     2.177877000000    -0.000029473978     1.007825032230
         H            1.590399166209    -2.177877000000    -0.000026473978     1.007825032230
         H           -1.827439833791     2.567932000000     0.877652526022     1.007825032230
         H           -1.827513833791     2.567906000000    -0.877566473978     1.007825032230
         H           -0.533343833791     3.422546000000    -0.000023473978     1.007825032230
         H           -0.533344833791    -3.422546000000    -0.000027473978     1.007825032230
         H           -1.827521833791    -2.567903000000    -0.877557473978     1.007825032230
         H           -1.827432833791    -2.567935000000     0.877661526022     1.007825032230

  Basis Set: AUG-CC-PVTZ
    Blend: AUG-CC-PVTZ
  Basis Set: (AUG-CC-PVTZ AUX)
    Blend: AUG-CC-PVTZ-JKFIT
	 Reference Energy          =    -457.4683620168874540 [Eh]
	 Singles Energy            =      -0.0000000000000000 [Eh]
	 Same-Spin Energy          =      -0.4676431602730527 [Eh]
	 Opposite-Spin Energy      =      -1.4784734009904725 [Eh]
	 Correlation Energy        =      -1.9461165612635254 [Eh]
	 Total Energy              =    -459.4144785781509768 [Eh]

	 ================> DF-SCS-MP2 Energies <==================
	-----------------------------------------------------------
	 SCS Same-Spin Scale       =       0.3333333333333333 [-]
	 SCS Opposite-Spin Scale   =       1.2000000000000000 [-]
	 SCS Same-Spin Energy      =      -0.1558810534243509 [Eh]
	 SCS Opposite-Spin Energy  =      -1.7741680811885669 [Eh]
	 SCS Correlation Energy    =      -1.9300491346129178 [Eh]
	 SCS Total Energy          =    -459.3984111515003974 [Eh]
	-----------------------------------------------------------

  Dipole Moment: [D]
     X:    -1.2132      Y:    -0.0000      Z:     0.0000     Total:     1.2132

*** Psi4 exiting successfully. Buy a developer a beer!
