                               Psi4 1.4a3.dev225

  ==> Input File <==

--------------------------------------------------------------------------
#psi4
#
memory 32 gb

molecule  {
0 1
  O       -2.3098380     0.0000000     0.0000530
  O        3.0303810     0.0000000    -0.0000560
  C       -0.3206930     1.2871930     0.0000000
  C       -0.3109852    -1.4284248     0.0000003
  C       -1.0703170     0.0000000     0.0000210
  C        1.0315930     1.2651910    -0.0000170
  C        1.0315930    -1.2651910    -0.0000160
  C        1.7909690     0.0000000    -0.0000320
  C       -1.1413450     2.5387140     0.0000150
  C       -1.1413450    -2.5387140     0.0000190
  H        1.6245090     2.1778770    -0.0000300
  H        1.6245090    -2.1778770    -0.0000270
  H       -1.7933300     2.5679320     0.8776520
  H       -1.7934040     2.5679060    -0.8775670
  H       -0.4992340     3.4225460    -0.0000240
  H       -0.4992350    -3.4225460    -0.0000280
  H       -1.7934120    -2.5679030    -0.8775580
  H       -1.7933230    -2.5679350     0.8776610
units angstrom
no_reorient  #important for SAPT in psi4, default
symmetry c1  #important for SAPT in psi4, default
}

set PROPERTIES_ORIGIN ["COM"]
properties('MP2/aug-cc-pvtz', properties = ['dipole'])
--------------------------------------------------------------------------

    Molecular point group: c1
  Charge       = 0
  Multiplicity = 1
  Basis Set: AUG-CC-PVTZ
    Blend: AUG-CC-PVTZ
  Basis Set: (AUG-CC-PVTZ AUX)
    Blend: AUG-CC-PVTZ-JKFIT

    Orbital Energies [Eh]
    ---------------------

    Doubly Occupied:

       1A    -20.576198     2A    -20.565195     3A    -11.363482
       4A    -11.355080     5A    -11.292997     6A    -11.289228
       7A    -11.271151     8A    -11.263302     9A    -11.244130
      10A    -11.240906    11A     -1.398344    12A     -1.387703
      13A     -1.156099    14A     -1.112772    15A     -1.017767
      16A     -0.970693    17A     -0.913891    18A     -0.817607
      19A     -0.803420    20A     -0.718241    21A     -0.691400
      22A     -0.661485    23A     -0.621263    24A     -0.620996
      25A     -0.607842    26A     -0.596631    27A     -0.596273
      28A     -0.580978    29A     -0.555557    30A     -0.554452
      31A     -0.542131    32A     -0.531397    33A     -0.452453
      34A     -0.425128    35A     -0.397593    36A     -0.382554

  @DF-RHF Final Energy:  -457.45082680396183

   => Energetics <=

    Nuclear Repulsion Energy =            489.2053580023332984
    One-Electron Energy =               -1592.1596909192840030
    Two-Electron Energy =                 645.5035061129889300
    Total Energy =                       -457.4508268039618315
  Basis Set: (AUG-CC-PVTZ AUX)
    Blend: AUG-CC-PVTZ-RI
    Molecular point group: c1

    Geometry (in Angstrom), charge = 0, multiplicity = 1:

       Center              X                  Y                   Z               Mass
    ------------   -----------------  -----------------  -----------------  -----------------
         O           -2.346568100121     0.012456827168     0.000053623043    15.994914619570
         O            2.993650899879     0.012456827168    -0.000055376957    15.994914619570
         C           -0.357423100121     1.299649827168     0.000000623043    12.000000000000
         C           -0.347715300121    -1.415967972832     0.000000923043    12.000000000000
         C           -1.107047100121     0.012456827168     0.000021623043    12.000000000000
         C            0.994862899879     1.277647827168    -0.000016376957    12.000000000000
         C            0.994862899879    -1.252734172832    -0.000015376957    12.000000000000
         C            1.754238899879     0.012456827168    -0.000031376957    12.000000000000
         C           -1.178075100121     2.551170827168     0.000015623043    12.000000000000
         C           -1.178075100121    -2.526257172832     0.000019623043    12.000000000000
         H            1.587778899879     2.190333827168    -0.000029376957     1.007825032230
         H            1.587778899879    -2.165420172832    -0.000026376957     1.007825032230
         H           -1.830060100121     2.580388827168     0.877652623043     1.007825032230
         H           -1.830134100121     2.580362827168    -0.877566376957     1.007825032230
         H           -0.535964100121     3.435002827168    -0.000023376957     1.007825032230
         H           -0.535965100121    -3.410089172832    -0.000027376957     1.007825032230
         H           -1.830142100121    -2.555446172832    -0.877557376957     1.007825032230
         H           -1.830053100121    -2.555478172832     0.877661623043     1.007825032230

  Basis Set: AUG-CC-PVTZ
    Blend: AUG-CC-PVTZ
  Basis Set: (AUG-CC-PVTZ AUX)
    Blend: AUG-CC-PVTZ-JKFIT
	 Reference Energy          =    -457.4508268039618315 [Eh]
	 Singles Energy            =      -0.0000000000000000 [Eh]
	 Same-Spin Energy          =      -0.4678728896174245 [Eh]
	 Opposite-Spin Energy      =      -1.4781253752111470 [Eh]
	 Correlation Energy        =      -1.9459982648285714 [Eh]
	 Total Energy              =    -459.3968250687904060 [Eh]

	 ================> DF-SCS-MP2 Energies <==================
	-----------------------------------------------------------
	 SCS Same-Spin Scale       =       0.3333333333333333 [-]
	 SCS Opposite-Spin Scale   =       1.2000000000000000 [-]
	 SCS Same-Spin Energy      =      -0.1559576298724748 [Eh]
	 SCS Opposite-Spin Energy  =      -1.7737504502533763 [Eh]
	 SCS Correlation Energy    =      -1.9297080801258510 [Eh]
	 SCS Total Energy          =    -459.3805348840876945 [Eh]
	-----------------------------------------------------------

  Dipole Moment: [D]
     X:    -1.4303      Y:    -0.0175      Z:     0.0000     Total:     1.4305

*** Psi4 exiting successfully. Buy a developer a beer!
