                               Psi4 1.4a3.dev225

  ==> Input File <==

--------------------------------------------------------------------------
#psi4
#
memory 32 gb

molecule  {
0 1
  O       -2.3098380     0.0000000     0.0000530
  O        3.0303810     0.0000000    -0.0000560
  C       -0.3206930     1.2871930     0.0000000
  C       -0.3206930    -1.2871930     0.0000010
  C       -1.0203170     0.0000000     0.0000197
  C        1.0315930     1.2651910    -0.0000170
  C        1.0315930    -1.2651910    -0.0000160
  C        1.7909690     0.0000000    -0.0000320
  C       -1.1413450     2.5387140     0.0000150
  C       -1.1413450    -2.5387140     0.0000190
  H        1.6245090     2.1778770    -0.0000300
  H        1.6245090    -2.1778770    -0.0000270
  H       -1.7933300     2.5679320     0.8776520
  H       -1.7934040     2.5679060    -0.8775670
  H       -0.4992340     3.4225460    -0.0000240
  H       -0.4992350    -3.4225460    -0.0000280
  H       -1.7934120    -2.5679030    -0.8775580
  H       -1.7933230    -2.5679350     0.8776610
units angstrom
no_reorient  #important for SAPT in psi4, default
symmetry c1  #important for SAPT in psi4, default
}

set PROPERTIES_ORIGIN ["COM"]
properties('MP2/aug-cc-pvtz', properties = ['dipole'])
--------------------------------------------------------------------------

    Molecular point group: c1
  Charge       = 0
  Multiplicity = 1
  Basis Set: AUG-CC-PVTZ
    Blend: AUG-CC-PVTZ
  Basis Set: (AUG-CC-PVTZ AUX)
    Blend: AUG-CC-PVTZ-JKFIT

    Orbital Energies [Eh]
    ---------------------

    Doubly Occupied:

       1A    -20.573614     2A    -20.570463     3A    -11.361485
       4A    -11.355900     5A    -11.288564     6A    -11.288538
       7A    -11.273168     8A    -11.273145     9A    -11.244174
      10A    -11.244174    11A     -1.392471    12A     -1.370319
      13A     -1.166013    14A     -1.105794    15A     -1.008217
      16A     -0.966235    17A     -0.936796    18A     -0.828915
      19A     -0.809940    20A     -0.721918    21A     -0.692915
      22A     -0.655319    23A     -0.616866    24A     -0.609675
      25A     -0.604669    26A     -0.595803    27A     -0.589387
      28A     -0.574334    29A     -0.556907    30A     -0.548387
      31A     -0.546511    32A     -0.519558    33A     -0.460925
      34A     -0.441293    35A     -0.397852    36A     -0.386849

  @DF-RHF Final Energy:  -457.46124389200799

   => Energetics <=

    Nuclear Repulsion Energy =            490.6295718257754288
    One-Electron Energy =               -1595.0274475662099576
    Two-Electron Energy =                 646.9366318484264866
    Total Energy =                       -457.4612438920080422
  Basis Set: (AUG-CC-PVTZ AUX)
    Blend: AUG-CC-PVTZ-RI
    Molecular point group: c1

    Geometry (in Angstrom), charge = 0, multiplicity = 1:

       Center              X                  Y                   Z               Mass
    ------------   -----------------  -----------------  -----------------  -----------------
         O           -2.350121924200    -0.000000000000     0.000053675964    15.994914619570
         O            2.990097075800    -0.000000000000    -0.000055324036    15.994914619570
         C           -0.360976924200     1.287193000000     0.000000675964    12.000000000000
         C           -0.360976924200    -1.287193000000     0.000001675964    12.000000000000
         C           -1.060600924200    -0.000000000000     0.000020375964    12.000000000000
         C            0.991309075800     1.265191000000    -0.000016324036    12.000000000000
         C            0.991309075800    -1.265191000000    -0.000015324036    12.000000000000
         C            1.750685075800    -0.000000000000    -0.000031324036    12.000000000000
         C           -1.181628924200     2.538714000000     0.000015675964    12.000000000000
         C           -1.181628924200    -2.538714000000     0.000019675964    12.000000000000
         H            1.584225075800     2.177877000000    -0.000029324036     1.007825032230
         H            1.584225075800    -2.177877000000    -0.000026324036     1.007825032230
         H           -1.833613924200     2.567932000000     0.877652675964     1.007825032230
         H           -1.833687924200     2.567906000000    -0.877566324036     1.007825032230
         H           -0.539517924200     3.422546000000    -0.000023324036     1.007825032230
         H           -0.539518924200    -3.422546000000    -0.000027324036     1.007825032230
         H           -1.833695924200    -2.567903000000    -0.877557324036     1.007825032230
         H           -1.833606924200    -2.567935000000     0.877661675964     1.007825032230

  Basis Set: AUG-CC-PVTZ
    Blend: AUG-CC-PVTZ
  Basis Set: (AUG-CC-PVTZ AUX)
    Blend: AUG-CC-PVTZ-JKFIT
	 Reference Energy          =    -457.4612438920079853 [Eh]
	 Singles Energy            =      -0.0000000000000000 [Eh]
	 Same-Spin Energy          =      -0.4689052800324711 [Eh]
	 Opposite-Spin Energy      =      -1.4811332309576302 [Eh]
	 Correlation Energy        =      -1.9500385109901013 [Eh]
	 Total Energy              =    -459.4112824029980970 [Eh]

	 ================> DF-SCS-MP2 Energies <==================
	-----------------------------------------------------------
	 SCS Same-Spin Scale       =       0.3333333333333333 [-]
	 SCS Opposite-Spin Scale   =       1.2000000000000000 [-]
	 SCS Same-Spin Energy      =      -0.1563017600108237 [Eh]
	 SCS Opposite-Spin Energy  =      -1.7773598771491561 [Eh]
	 SCS Correlation Energy    =      -1.9336616371599797 [Eh]
	 SCS Total Energy          =    -459.3949055291679429 [Eh]
	-----------------------------------------------------------

  Dipole Moment: [D]
     X:    -0.9499      Y:    -0.0000      Z:     0.0000     Total:     0.9499

*** Psi4 exiting successfully. Buy a developer a beer!
