                               Psi4 1.4a3.dev225

  ==> Input File <==

--------------------------------------------------------------------------
#psi4
#
memory 32 gb

molecule  {
0 1
  O       -2.3098380     0.0000000     0.0000530
  O        3.0303810     0.0000000    -0.0000560
  C       -0.3206930     1.2871930     0.0000000
  C       -0.3206930    -1.2871930     0.0000010
  C       -1.0703170     0.0000000     0.0000210
  C        1.0315930     1.2651910    -0.0000170
  C        1.0315930    -1.2651910    -0.0000160
  C        1.7909690     0.0000000    -0.0000320
  C       -1.0865101     2.4550890     0.0000140
  C       -1.1413450    -2.5387140     0.0000190
  H        1.6245090     2.1778770    -0.0000300
  H        1.6245090    -2.1778770    -0.0000270
  H       -1.7933300     2.5679320     0.8776520
  H       -1.7934040     2.5679060    -0.8775670
  H       -0.4992340     3.4225460    -0.0000240
  H       -0.4992350    -3.4225460    -0.0000280
  H       -1.7934120    -2.5679030    -0.8775580
  H       -1.7933230    -2.5679350     0.8776610
units angstrom
no_reorient  #important for SAPT in psi4, default
symmetry c1  #important for SAPT in psi4, default
}

set PROPERTIES_ORIGIN ["COM"]
properties('MP2/aug-cc-pvtz', properties = ['dipole'])
--------------------------------------------------------------------------

    Molecular point group: c1
  Charge       = 0
  Multiplicity = 1
  Basis Set: AUG-CC-PVTZ
    Blend: AUG-CC-PVTZ
  Basis Set: (AUG-CC-PVTZ AUX)
    Blend: AUG-CC-PVTZ-JKFIT

    Orbital Energies [Eh]
    ---------------------

    Doubly Occupied:

       1A    -20.578525     2A    -20.566698     3A    -11.360788
       4A    -11.352954     5A    -11.287629     6A    -11.283290
       7A    -11.270437     8A    -11.270204     9A    -11.246631
      10A    -11.243478    11A     -1.402937    12A     -1.388914
      13A     -1.165768    14A     -1.111079    15A     -1.011634
      16A     -0.965177    17A     -0.928380    18A     -0.821733
      19A     -0.808228    20A     -0.724266    21A     -0.697680
      22A     -0.661690    23A     -0.620540    24A     -0.618651
      25A     -0.611883    26A     -0.599529    27A     -0.585126
      28A     -0.576195    29A     -0.553854    30A     -0.551633
      31A     -0.530919    32A     -0.529666    33A     -0.458229
      34A     -0.437557    35A     -0.398538    36A     -0.381360

  @DF-RHF Final Energy:  -457.45888792669513

   => Energetics <=

    Nuclear Repulsion Energy =            492.4209251415702511
    One-Electron Energy =               -1598.5560246124887271
    Two-Electron Energy =                 648.6762115442234062
    Total Energy =                       -457.4588879266950698
  Basis Set: (AUG-CC-PVTZ AUX)
    Blend: AUG-CC-PVTZ-RI
    Molecular point group: c1

    Geometry (in Angstrom), charge = 0, multiplicity = 1:

       Center              X                  Y                   Z               Mass
    ------------   -----------------  -----------------  -----------------  -----------------
         O           -2.350548368624     0.007375833006     0.000053649504    15.994914619570
         O            2.989670631376     0.007375833006    -0.000055350496    15.994914619570
         C           -0.361403368624     1.294568833006     0.000000649504    12.000000000000
         C           -0.361403368624    -1.279817166994     0.000001649504    12.000000000000
         C           -1.111027368624     0.007375833006     0.000021649504    12.000000000000
         C            0.990882631376     1.272566833006    -0.000016350496    12.000000000000
         C            0.990882631376    -1.257815166994    -0.000015350496    12.000000000000
         C            1.750258631376     0.007375833006    -0.000031350496    12.000000000000
         C           -1.127220468624     2.462464833006     0.000014649504    12.000000000000
         C           -1.182055368624    -2.531338166994     0.000019649504    12.000000000000
         H            1.583798631376     2.185252833006    -0.000029350496     1.007825032230
         H            1.583798631376    -2.170501166994    -0.000026350496     1.007825032230
         H           -1.834040368624     2.575307833006     0.877652649504     1.007825032230
         H           -1.834114368624     2.575281833006    -0.877566350496     1.007825032230
         H           -0.539944368624     3.429921833006    -0.000023350496     1.007825032230
         H           -0.539945368624    -3.415170166994    -0.000027350496     1.007825032230
         H           -1.834122368624    -2.560527166994    -0.877557350496     1.007825032230
         H           -1.834033368624    -2.560559166994     0.877661649504     1.007825032230

  Basis Set: AUG-CC-PVTZ
    Blend: AUG-CC-PVTZ
  Basis Set: (AUG-CC-PVTZ AUX)
    Blend: AUG-CC-PVTZ-JKFIT
	 Reference Energy          =    -457.4588879266951267 [Eh]
	 Singles Energy            =      -0.0000000000000000 [Eh]
	 Same-Spin Energy          =      -0.4682874319781534 [Eh]
	 Opposite-Spin Energy      =      -1.4785725124561155 [Eh]
	 Correlation Energy        =      -1.9468599444342689 [Eh]
	 Total Energy              =    -459.4057478711293925 [Eh]

	 ================> DF-SCS-MP2 Energies <==================
	-----------------------------------------------------------
	 SCS Same-Spin Scale       =       0.3333333333333333 [-]
	 SCS Opposite-Spin Scale   =       1.2000000000000000 [-]
	 SCS Same-Spin Energy      =      -0.1560958106593845 [Eh]
	 SCS Opposite-Spin Energy  =      -1.7742870149473386 [Eh]
	 SCS Correlation Energy    =      -1.9303828256067230 [Eh]
	 SCS Total Energy          =    -459.3892707523018544 [Eh]
	-----------------------------------------------------------

  Dipole Moment: [D]
     X:    -1.2008      Y:     0.0449      Z:     0.0000     Total:     1.2016

*** Psi4 exiting successfully. Buy a developer a beer!
