                               Psi4 1.4a3.dev225

  ==> Input File <==

--------------------------------------------------------------------------
#psi4
#
memory 32 gb

molecule  {
0 1
  O       -2.3098380     0.0000000     0.0000530
  O        3.0303810     0.0000000    -0.0000560
  C       -0.3206930     1.2871930     0.0000000
  C       -0.3206930    -1.2871930     0.0000010
  C       -1.0703170     0.0000000     0.0000210
  C        1.0315930     1.2651910    -0.0000170
  C        1.0315930    -1.2651910    -0.0000160
  C        1.7687727     0.0130602    -0.0000316
  C       -1.1413450     2.5387140     0.0000150
  C       -1.1413450    -2.5387140     0.0000190
  H        1.6245090     2.1778770    -0.0000300
  H        1.6245090    -2.1778770    -0.0000270
  H       -1.7933300     2.5679320     0.8776520
  H       -1.7934040     2.5679060    -0.8775670
  H       -0.4992340     3.4225460    -0.0000240
  H       -0.4992350    -3.4225460    -0.0000280
  H       -1.7934120    -2.5679030    -0.8775580
  H       -1.7933230    -2.5679350     0.8776610
units angstrom
no_reorient  #important for SAPT in psi4, default
symmetry c1  #important for SAPT in psi4, default
}

set PROPERTIES_ORIGIN ["COM"]
properties('MP2/aug-cc-pvtz', properties = ['dipole'])
--------------------------------------------------------------------------

    Molecular point group: c1
  Charge       = 0
  Multiplicity = 1
  Basis Set: AUG-CC-PVTZ
    Blend: AUG-CC-PVTZ
  Basis Set: (AUG-CC-PVTZ AUX)
    Blend: AUG-CC-PVTZ-JKFIT

    Orbital Energies [Eh]
    ---------------------

    Doubly Occupied:

       1A    -20.579389     2A    -20.564959     3A    -11.361677
       4A    -11.353461     5A    -11.290272     6A    -11.287261
       7A    -11.271258     8A    -11.270321     9A    -11.244834
      10A    -11.243483    11A     -1.403286    12A     -1.374535
      13A     -1.163239    14A     -1.103807    15A     -1.009721
      16A     -0.966918    17A     -0.930970    18A     -0.824195
      19A     -0.809262    20A     -0.722420    21A     -0.698797
      22A     -0.650378    23A     -0.619183    24A     -0.614347
      25A     -0.609849    26A     -0.592107    27A     -0.590019
      28A     -0.573052    29A     -0.550589    30A     -0.550454
      31A     -0.549821    32A     -0.532492    33A     -0.458507
      34A     -0.438435    35A     -0.397925    36A     -0.385782

  @DF-RHF Final Energy:  -457.46772830366365

   => Energetics <=

    Nuclear Repulsion Energy =            490.6374685968140739
    One-Electron Energy =               -1595.0363888972840414
    Two-Electron Energy =                 646.9311919968062057
    Total Energy =                       -457.4677283036636481
  Basis Set: (AUG-CC-PVTZ AUX)
    Blend: AUG-CC-PVTZ-RI
    Molecular point group: c1

    Geometry (in Angstrom), charge = 0, multiplicity = 1:

       Center              X                  Y                   Z               Mass
    ------------   -----------------  -----------------  -----------------  -----------------
         O           -2.343754117295    -0.001151926508     0.000053526022    15.994914619570
         O            2.996464882705    -0.001151926508    -0.000055473978    15.994914619570
         C           -0.354609117295     1.286041073492     0.000000526022    12.000000000000
         C           -0.354609117295    -1.288344926508     0.000001526022    12.000000000000
         C           -1.104233117295    -0.001151926508     0.000021526022    12.000000000000
         C            0.997676882705     1.264039073492    -0.000016473978    12.000000000000
         C            0.997676882705    -1.266342926508    -0.000015473978    12.000000000000
         C            1.734856582705     0.011908273492    -0.000031073978    12.000000000000
         C           -1.175261117295     2.537562073492     0.000015526022    12.000000000000
         C           -1.175261117295    -2.539865926508     0.000019526022    12.000000000000
         H            1.590592882705     2.176725073492    -0.000029473978     1.007825032230
         H            1.590592882705    -2.179028926508    -0.000026473978     1.007825032230
         H           -1.827246117295     2.566780073492     0.877652526022     1.007825032230
         H           -1.827320117295     2.566754073492    -0.877566473978     1.007825032230
         H           -0.533150117295     3.421394073492    -0.000023473978     1.007825032230
         H           -0.533151117295    -3.423697926508    -0.000027473978     1.007825032230
         H           -1.827328117295    -2.569054926508    -0.877557473978     1.007825032230
         H           -1.827239117295    -2.569086926508     0.877661526022     1.007825032230

  Basis Set: AUG-CC-PVTZ
    Blend: AUG-CC-PVTZ
  Basis Set: (AUG-CC-PVTZ AUX)
    Blend: AUG-CC-PVTZ-JKFIT
	 Reference Energy          =    -457.4677283036636481 [Eh]
	 Singles Energy            =      -0.0000000000000000 [Eh]
	 Same-Spin Energy          =      -0.4677480329334850 [Eh]
	 Opposite-Spin Energy      =      -1.4786714900882973 [Eh]
	 Correlation Energy        =      -1.9464195230217824 [Eh]
	 Total Energy              =    -459.4141478266854506 [Eh]

	 ================> DF-SCS-MP2 Energies <==================
	-----------------------------------------------------------
	 SCS Same-Spin Scale       =       0.3333333333333333 [-]
	 SCS Opposite-Spin Scale   =       1.2000000000000000 [-]
	 SCS Same-Spin Energy      =      -0.1559160109778283 [Eh]
	 SCS Opposite-Spin Energy  =      -1.7744057881059567 [Eh]
	 SCS Correlation Energy    =      -1.9303217990837851 [Eh]
	 SCS Total Energy          =    -459.3980501027474475 [Eh]
	-----------------------------------------------------------

  Dipole Moment: [D]
     X:    -1.2215      Y:     0.0587      Z:     0.0000     Total:     1.2229

*** Psi4 exiting successfully. Buy a developer a beer!
