                               Psi4 1.4a3.dev225

  ==> Input File <==

--------------------------------------------------------------------------
#psi4
#
memory 32 gb

molecule  {
0 1
  O       -2.3098380     0.0000000     0.0000530
  O        3.0303810     0.0000000    -0.0000560
  C       -0.3206930     1.2871930     0.0000000
  C       -0.3206930    -1.2871930     0.0000010
  C       -1.0703170     0.0000000     0.0000210
  C        1.0315930     1.2651910    -0.0000170
  C        1.0315930    -1.2651910    -0.0000160
  C        1.7909690     0.0000000    -0.0000320
  C       -1.1413450     2.5387140     0.0000150
  C       -1.1413450    -2.5387140     0.0000190
  H        1.6245090     2.1778770    -0.0000300
  H        1.6245090    -2.1778770    -0.0000270
  H       -1.7933300     2.5679320     0.8776520
  H       -1.7934040     2.5679060    -0.8775670
  H       -0.4404573     3.5034490    -0.0000276
  H       -0.4992350    -3.4225460    -0.0000280
  H       -1.7934120    -2.5679030    -0.8775580
  H       -1.7933230    -2.5679350     0.8776610
units angstrom
no_reorient  #important for SAPT in psi4, default
symmetry c1  #important for SAPT in psi4, default
}

set PROPERTIES_ORIGIN ["COM"]
properties('MP2/aug-cc-pvtz', properties = ['dipole'])
--------------------------------------------------------------------------

    Molecular point group: c1
  Charge       = 0
  Multiplicity = 1
  Basis Set: AUG-CC-PVTZ
    Blend: AUG-CC-PVTZ
  Basis Set: (AUG-CC-PVTZ AUX)
    Blend: AUG-CC-PVTZ-JKFIT

    Orbital Energies [Eh]
    ---------------------

    Doubly Occupied:

       1A    -20.578560     2A    -20.567295     3A    -11.361394
       4A    -11.353458     5A    -11.288266     6A    -11.287965
       7A    -11.270719     8A    -11.270684     9A    -11.254939
      10A    -11.243728    11A     -1.402773    12A     -1.389407
      13A     -1.161021    14A     -1.101788    15A     -1.005637
      16A     -0.963254    17A     -0.928028    18A     -0.821006
      19A     -0.808157    20A     -0.721527    21A     -0.697620
      22A     -0.655582    23A     -0.619152    24A     -0.612908
      25A     -0.607697    26A     -0.590131    27A     -0.589173
      28A     -0.573815    29A     -0.555343    30A     -0.551071
      31A     -0.534909    32A     -0.534058    33A     -0.458759
      34A     -0.436175    35A     -0.400102    36A     -0.385055

  @DF-RHF Final Energy:  -457.46486463881979

   => Energetics <=

    Nuclear Repulsion Energy =            490.1078758144853396
    One-Electron Energy =               -1593.9831664285748047
    Two-Electron Energy =                 646.4104259752696180
    Total Energy =                       -457.4648646388197903
  Basis Set: (AUG-CC-PVTZ AUX)
    Blend: AUG-CC-PVTZ-RI
    Molecular point group: c1

    Geometry (in Angstrom), charge = 0, multiplicity = 1:

       Center              X                  Y                   Z               Mass
    ------------   -----------------  -----------------  -----------------  -----------------
         O           -2.346147255225    -0.000599298880     0.000053587970    15.994914619570
         O            2.994071744775    -0.000599298880    -0.000055412030    15.994914619570
         C           -0.357002255225     1.286593701120     0.000000587970    12.000000000000
         C           -0.357002255225    -1.287792298880     0.000001587970    12.000000000000
         C           -1.106626255225    -0.000599298880     0.000021587970    12.000000000000
         C            0.995283744775     1.264591701120    -0.000016412030    12.000000000000
         C            0.995283744775    -1.265790298880    -0.000015412030    12.000000000000
         C            1.754659744775    -0.000599298880    -0.000031412030    12.000000000000
         C           -1.177654255225     2.538114701120     0.000015587970    12.000000000000
         C           -1.177654255225    -2.539313298880     0.000019587970    12.000000000000
         H            1.588199744775     2.177277701120    -0.000029412030     1.007825032230
         H            1.588199744775    -2.178476298880    -0.000026412030     1.007825032230
         H           -1.829639255225     2.567332701120     0.877652587970     1.007825032230
         H           -1.829713255225     2.567306701120    -0.877566412030     1.007825032230
         H           -0.476766555225     3.502849701120    -0.000027012030     1.007825032230
         H           -0.535544255225    -3.423145298880    -0.000027412030     1.007825032230
         H           -1.829721255225    -2.568502298880    -0.877557412030     1.007825032230
         H           -1.829632255225    -2.568534298880     0.877661587970     1.007825032230

  Basis Set: AUG-CC-PVTZ
    Blend: AUG-CC-PVTZ
  Basis Set: (AUG-CC-PVTZ AUX)
    Blend: AUG-CC-PVTZ-JKFIT
	 Reference Energy          =    -457.4648646388197903 [Eh]
	 Singles Energy            =      -0.0000000000000000 [Eh]
	 Same-Spin Energy          =      -0.4668669489690918 [Eh]
	 Opposite-Spin Energy      =      -1.4777512599953395 [Eh]
	 Correlation Energy        =      -1.9446182089644313 [Eh]
	 Total Energy              =    -459.4094828477842043 [Eh]

	 ================> DF-SCS-MP2 Energies <==================
	-----------------------------------------------------------
	 SCS Same-Spin Scale       =       0.3333333333333333 [-]
	 SCS Opposite-Spin Scale   =       1.2000000000000000 [-]
	 SCS Same-Spin Energy      =      -0.1556223163230306 [Eh]
	 SCS Opposite-Spin Energy  =      -1.7733015119944073 [Eh]
	 SCS Correlation Energy    =      -1.9289238283174379 [Eh]
	 SCS Total Energy          =    -459.3937884671372558 [Eh]
	-----------------------------------------------------------

  Dipole Moment: [D]
     X:    -1.1417      Y:    -0.0590      Z:     0.0000     Total:     1.1432

*** Psi4 exiting successfully. Buy a developer a beer!
