                               Psi4 1.4a3.dev225

  ==> Input File <==

--------------------------------------------------------------------------
#psi4
#
memory 32 gb

molecule  {
0 1
  O       -2.3098380     0.0000000     0.0000530
  O        3.0303810     0.0000000    -0.0000560
  C       -0.3206930     1.2871930     0.0000000
  C       -0.3158641    -1.3814701     0.0000006
  C       -1.0703170     0.0000000     0.0000210
  C        1.0315930     1.2651910    -0.0000170
  C        1.0315930    -1.2651910    -0.0000160
  C        1.7909690     0.0000000    -0.0000320
  C       -1.1413450     2.5387140     0.0000150
  C       -1.1413450    -2.5387140     0.0000190
  H        1.6245090     2.1778770    -0.0000300
  H        1.6245090    -2.1778770    -0.0000270
  H       -1.7933300     2.5679320     0.8776520
  H       -1.7934040     2.5679060    -0.8775670
  H       -0.4992340     3.4225460    -0.0000240
  H       -0.4992350    -3.4225460    -0.0000280
  H       -1.7934120    -2.5679030    -0.8775580
  H       -1.7933230    -2.5679350     0.8776610
units angstrom
no_reorient  #important for SAPT in psi4, default
symmetry c1  #important for SAPT in psi4, default
}

set PROPERTIES_ORIGIN ["COM"]
properties('MP2/aug-cc-pvtz', properties = ['dipole'])
--------------------------------------------------------------------------

    Molecular point group: c1
  Charge       = 0
  Multiplicity = 1
  Basis Set: AUG-CC-PVTZ
    Blend: AUG-CC-PVTZ
  Basis Set: (AUG-CC-PVTZ AUX)
    Blend: AUG-CC-PVTZ-JKFIT

    Orbital Energies [Eh]
    ---------------------

    Doubly Occupied:

       1A    -20.576960     2A    -20.565678     3A    -11.363191
       4A    -11.354404     5A    -11.291089     6A    -11.288852
       7A    -11.271009     8A    -11.265087     9A    -11.244019
      10A    -11.241573    11A     -1.399787    12A     -1.388096
      13A     -1.157064    14A     -1.108713    15A     -1.014146
      16A     -0.968995    17A     -0.918593    18A     -0.818051
      19A     -0.806554    20A     -0.719397    21A     -0.693342
      22A     -0.658746    23A     -0.619711    24A     -0.615533
      25A     -0.606876    26A     -0.597861    27A     -0.594131
      28A     -0.580037    29A     -0.554785    30A     -0.554606
      31A     -0.544980    32A     -0.532162    33A     -0.453965
      34A     -0.430807    35A     -0.398235    36A     -0.383347

  @DF-RHF Final Energy:  -457.46236786771226

   => Energetics <=

    Nuclear Repulsion Energy =            489.6241980901235706
    One-Electron Energy =               -1593.0123675909778740
    Two-Electron Energy =                 645.9258016331419867
    Total Energy =                       -457.4623678677122598
  Basis Set: (AUG-CC-PVTZ AUX)
    Blend: AUG-CC-PVTZ-RI
    Molecular point group: c1

    Geometry (in Angstrom), charge = 0, multiplicity = 1:

       Center              X                  Y                   Z               Mass
    ------------   -----------------  -----------------  -----------------  -----------------
         O           -2.346137774839     0.008315361983     0.000053596583    15.994914619570
         O            2.994081225161     0.008315361983    -0.000055403417    15.994914619570
         C           -0.356992774839     1.295508361983     0.000000596583    12.000000000000
         C           -0.352163874839    -1.373154738017     0.000001196583    12.000000000000
         C           -1.106616774839     0.008315361983     0.000021596583    12.000000000000
         C            0.995293225161     1.273506361983    -0.000016403417    12.000000000000
         C            0.995293225161    -1.256875638017    -0.000015403417    12.000000000000
         C            1.754669225161     0.008315361983    -0.000031403417    12.000000000000
         C           -1.177644774839     2.547029361983     0.000015596583    12.000000000000
         C           -1.177644774839    -2.530398638017     0.000019596583    12.000000000000
         H            1.588209225161     2.186192361983    -0.000029403417     1.007825032230
         H            1.588209225161    -2.169561638017    -0.000026403417     1.007825032230
         H           -1.829629774839     2.576247361983     0.877652596583     1.007825032230
         H           -1.829703774839     2.576221361983    -0.877566403417     1.007825032230
         H           -0.535533774839     3.430861361983    -0.000023403417     1.007825032230
         H           -0.535534774839    -3.414230638017    -0.000027403417     1.007825032230
         H           -1.829711774839    -2.559587638017    -0.877557403417     1.007825032230
         H           -1.829622774839    -2.559619638017     0.877661596583     1.007825032230

  Basis Set: AUG-CC-PVTZ
    Blend: AUG-CC-PVTZ
  Basis Set: (AUG-CC-PVTZ AUX)
    Blend: AUG-CC-PVTZ-JKFIT
	 Reference Energy          =    -457.4623678677122598 [Eh]
	 Singles Energy            =      -0.0000000000000000 [Eh]
	 Same-Spin Energy          =      -0.4672823489227701 [Eh]
	 Opposite-Spin Energy      =      -1.4773032462267190 [Eh]
	 Correlation Energy        =      -1.9445855951494893 [Eh]
	 Total Energy              =    -459.4069534628617362 [Eh]

	 ================> DF-SCS-MP2 Energies <==================
	-----------------------------------------------------------
	 SCS Same-Spin Scale       =       0.3333333333333333 [-]
	 SCS Opposite-Spin Scale   =       1.2000000000000000 [-]
	 SCS Same-Spin Energy      =      -0.1557607829742567 [Eh]
	 SCS Opposite-Spin Energy  =      -1.7727638954720628 [Eh]
	 SCS Correlation Energy    =      -1.9285246784463195 [Eh]
	 SCS Total Energy          =    -459.3908925461585682 [Eh]
	-----------------------------------------------------------

  Dipole Moment: [D]
     X:    -1.3334      Y:    -0.0033      Z:     0.0000     Total:     1.3334

*** Psi4 exiting successfully. Buy a developer a beer!
