                               Psi4 1.4a3.dev225

  ==> Input File <==

--------------------------------------------------------------------------
#psi4
#
memory 32 gb

molecule  {
0 1
  O       -2.3098380     0.0000000     0.0000530
  O        3.0303810     0.0000000    -0.0000560
  C       -0.3206930     1.2871930     0.0000000
  C       -0.3206930    -1.2871930     0.0000010
  C       -1.0703170     0.0000000     0.0000210
  C        1.0315930     1.2651910    -0.0000170
  C        1.0315930    -1.2651910    -0.0000160
  C        1.8424316     0.0857415    -0.0000331
  C       -1.1413450     2.5387140     0.0000150
  C       -1.1413450    -2.5387140     0.0000190
  H        1.6245090     2.1778770    -0.0000300
  H        1.6245090    -2.1778770    -0.0000270
  H       -1.7933300     2.5679320     0.8776520
  H       -1.7934040     2.5679060    -0.8775670
  H       -0.4992340     3.4225460    -0.0000240
  H       -0.4992350    -3.4225460    -0.0000280
  H       -1.7934120    -2.5679030    -0.8775580
  H       -1.7933230    -2.5679350     0.8776610
units angstrom
no_reorient  #important for SAPT in psi4, default
symmetry c1  #important for SAPT in psi4, default
}

set PROPERTIES_ORIGIN ["COM"]
properties('MP2/aug-cc-pvtz', properties = ['dipole'])
--------------------------------------------------------------------------

    Molecular point group: c1
  Charge       = 0
  Multiplicity = 1
  Basis Set: AUG-CC-PVTZ
    Blend: AUG-CC-PVTZ
  Basis Set: (AUG-CC-PVTZ AUX)
    Blend: AUG-CC-PVTZ-JKFIT

    Orbital Energies [Eh]
    ---------------------

    Doubly Occupied:

       1A    -20.575047     2A    -20.571279     3A    -11.358057
       4A    -11.352996     5A    -11.294900     6A    -11.275700
       7A    -11.269109     8A    -11.267421     9A    -11.246199
      10A    -11.237404    11A     -1.423452    12A     -1.399274
      13A     -1.157271    14A     -1.098121    15A     -1.007016
      16A     -0.958213    17A     -0.926967    18A     -0.823711
      19A     -0.802438    20A     -0.721422    21A     -0.693622
      22A     -0.669804    23A     -0.617905    24A     -0.609929
      25A     -0.601653    26A     -0.595709    27A     -0.587160
      28A     -0.578393    29A     -0.569629    30A     -0.552824
      31A     -0.546292    32A     -0.533201    33A     -0.456880
      34A     -0.424897    35A     -0.403454    36A     -0.380980

  @DF-RHF Final Energy:  -457.46652925084663

   => Energetics <=

    Nuclear Repulsion Energy =            490.3409327328188851
    One-Electron Energy =               -1594.4382636205475592
    Two-Electron Energy =                 646.6308016368820972
    Total Energy =                       -457.4665292508466337
  Basis Set: (AUG-CC-PVTZ AUX)
    Blend: AUG-CC-PVTZ-RI
    Molecular point group: c1

    Geometry (in Angstrom), charge = 0, multiplicity = 1:

       Center              X                  Y                   Z               Mass
    ------------   -----------------  -----------------  -----------------  -----------------
         O           -2.350250927409    -0.007562511039     0.000053658324    15.994914619570
         O            2.989968072591    -0.007562511039    -0.000055341676    15.994914619570
         C           -0.361105927409     1.279630488961     0.000000658324    12.000000000000
         C           -0.361105927409    -1.294755511039     0.000001658324    12.000000000000
         C           -1.110729927409    -0.007562511039     0.000021658324    12.000000000000
         C            0.991180072591     1.257628488961    -0.000016341676    12.000000000000
         C            0.991180072591    -1.272753511039    -0.000015341676    12.000000000000
         C            1.802018672591     0.078178988961    -0.000032441676    12.000000000000
         C           -1.181757927409     2.531151488961     0.000015658324    12.000000000000
         C           -1.181757927409    -2.546276511039     0.000019658324    12.000000000000
         H            1.584096072591     2.170314488961    -0.000029341676     1.007825032230
         H            1.584096072591    -2.185439511039    -0.000026341676     1.007825032230
         H           -1.833742927409     2.560369488961     0.877652658324     1.007825032230
         H           -1.833816927409     2.560343488961    -0.877566341676     1.007825032230
         H           -0.539646927409     3.414983488961    -0.000023341676     1.007825032230
         H           -0.539647927409    -3.430108511039    -0.000027341676     1.007825032230
         H           -1.833824927409    -2.575465511039    -0.877557341676     1.007825032230
         H           -1.833735927409    -2.575497511039     0.877661658324     1.007825032230

  Basis Set: AUG-CC-PVTZ
    Blend: AUG-CC-PVTZ
  Basis Set: (AUG-CC-PVTZ AUX)
    Blend: AUG-CC-PVTZ-JKFIT
	 Reference Energy          =    -457.4665292508466337 [Eh]
	 Singles Energy            =      -0.0000000000000000 [Eh]
	 Same-Spin Energy          =      -0.4654026642563641 [Eh]
	 Opposite-Spin Energy      =      -1.4741447340207130 [Eh]
	 Correlation Energy        =      -1.9395473982770770 [Eh]
	 Total Energy              =    -459.4060766491236905 [Eh]

	 ================> DF-SCS-MP2 Energies <==================
	-----------------------------------------------------------
	 SCS Same-Spin Scale       =       0.3333333333333333 [-]
	 SCS Opposite-Spin Scale   =       1.2000000000000000 [-]
	 SCS Same-Spin Energy      =      -0.1551342214187880 [Eh]
	 SCS Opposite-Spin Energy  =      -1.7689736808248555 [Eh]
	 SCS Correlation Energy    =      -1.9241079022436436 [Eh]
	 SCS Total Energy          =    -459.3906371530902675 [Eh]
	-----------------------------------------------------------

  Dipole Moment: [D]
     X:    -0.8753      Y:     0.4111      Z:     0.0000     Total:     0.9671

*** Psi4 exiting successfully. Buy a developer a beer!
