                               Psi4 1.4a3.dev225

  ==> Input File <==

--------------------------------------------------------------------------
#psi4
#
memory 32 gb

molecule  {
0 1
  O       -2.3098380     0.0000000     0.0000530
  O        3.0303810     0.0000000    -0.0000560
  C       -0.3206930     1.2871930     0.0000000
  C       -0.3206930    -1.2871930     0.0000010
  C       -1.0954795     0.0432070     0.0000217
  C        1.0315930     1.2651910    -0.0000170
  C        1.0315930    -1.2651910    -0.0000160
  C        1.7909690     0.0000000    -0.0000320
  C       -1.1413450     2.5387140     0.0000150
  C       -1.1413450    -2.5387140     0.0000190
  H        1.6245090     2.1778770    -0.0000300
  H        1.6245090    -2.1778770    -0.0000270
  H       -1.7933300     2.5679320     0.8776520
  H       -1.7934040     2.5679060    -0.8775670
  H       -0.4992340     3.4225460    -0.0000240
  H       -0.4992350    -3.4225460    -0.0000280
  H       -1.7934120    -2.5679030    -0.8775580
  H       -1.7933230    -2.5679350     0.8776610
units angstrom
no_reorient  #important for SAPT in psi4, default
symmetry c1  #important for SAPT in psi4, default
}

set PROPERTIES_ORIGIN ["COM"]
properties('MP2/aug-cc-pvtz', properties = ['dipole'])
--------------------------------------------------------------------------

    Molecular point group: c1
  Charge       = 0
  Multiplicity = 1
  Basis Set: AUG-CC-PVTZ
    Blend: AUG-CC-PVTZ
  Basis Set: (AUG-CC-PVTZ AUX)
    Blend: AUG-CC-PVTZ-JKFIT

    Orbital Energies [Eh]
    ---------------------

    Doubly Occupied:

       1A    -20.580138     2A    -20.565197     3A    -11.360068
       4A    -11.351898     5A    -11.287638     6A    -11.285893
       7A    -11.273692     8A    -11.264363     9A    -11.243604
      10A    -11.242407    11A     -1.418668    12A     -1.387697
      13A     -1.158876    14A     -1.100350    15A     -1.006964
      16A     -0.964346    17A     -0.926875    18A     -0.820589
      19A     -0.806206    20A     -0.722435    21A     -0.700415
      22A     -0.655874    23A     -0.620177    24A     -0.616741
      25A     -0.606388    26A     -0.591991    27A     -0.589000
      28A     -0.574658    29A     -0.554004    30A     -0.553032
      31A     -0.549842    32A     -0.540790    33A     -0.456217
      34A     -0.431837    35A     -0.400407    36A     -0.383303

  @DF-RHF Final Energy:  -457.47196911112974

   => Energetics <=

    Nuclear Repulsion Energy =            490.5129867620219102
    One-Electron Energy =               -1594.7847524649064326
    Two-Electron Energy =                 646.7997965917547845
    Total Energy =                       -457.4719691111297379
  Basis Set: (AUG-CC-PVTZ AUX)
    Blend: AUG-CC-PVTZ-RI
    Molecular point group: c1

    Geometry (in Angstrom), charge = 0, multiplicity = 1:

       Center              X                  Y                   Z               Mass
    ------------   -----------------  -----------------  -----------------  -----------------
         O           -2.343492494624    -0.003810913204     0.000053499562    15.994914619570
         O            2.996726505376    -0.003810913204    -0.000055500438    15.994914619570
         C           -0.354347494624     1.283382086796     0.000000499562    12.000000000000
         C           -0.354347494624    -1.291003913204     0.000001499562    12.000000000000
         C           -1.129133994624     0.039396086796     0.000022199562    12.000000000000
         C            0.997938505376     1.261380086796    -0.000016500438    12.000000000000
         C            0.997938505376    -1.269001913204    -0.000015500438    12.000000000000
         C            1.757314505376    -0.003810913204    -0.000031500438    12.000000000000
         C           -1.174999494624     2.534903086796     0.000015499562    12.000000000000
         C           -1.174999494624    -2.542524913204     0.000019499562    12.000000000000
         H            1.590854505376     2.174066086796    -0.000029500438     1.007825032230
         H            1.590854505376    -2.181687913204    -0.000026500438     1.007825032230
         H           -1.826984494624     2.564121086796     0.877652499562     1.007825032230
         H           -1.827058494624     2.564095086796    -0.877566500438     1.007825032230
         H           -0.532888494624     3.418735086796    -0.000023500438     1.007825032230
         H           -0.532889494624    -3.426356913204    -0.000027500438     1.007825032230
         H           -1.827066494624    -2.571713913204    -0.877557500438     1.007825032230
         H           -1.826977494624    -2.571745913204     0.877661499562     1.007825032230

  Basis Set: AUG-CC-PVTZ
    Blend: AUG-CC-PVTZ
  Basis Set: (AUG-CC-PVTZ AUX)
    Blend: AUG-CC-PVTZ-JKFIT
	 Reference Energy          =    -457.4719691111297379 [Eh]
	 Singles Energy            =      -0.0000000000000000 [Eh]
	 Same-Spin Energy          =      -0.4660122895969757 [Eh]
	 Opposite-Spin Energy      =      -1.4752150767820733 [Eh]
	 Correlation Energy        =      -1.9412273663790489 [Eh]
	 Total Energy              =    -459.4131964775087908 [Eh]

	 ================> DF-SCS-MP2 Energies <==================
	-----------------------------------------------------------
	 SCS Same-Spin Scale       =       0.3333333333333333 [-]
	 SCS Opposite-Spin Scale   =       1.2000000000000000 [-]
	 SCS Same-Spin Energy      =      -0.1553374298656585 [Eh]
	 SCS Opposite-Spin Energy  =      -1.7702580921384878 [Eh]
	 SCS Correlation Energy    =      -1.9255955220041463 [Eh]
	 SCS Total Energy          =    -459.3975646331338680 [Eh]
	-----------------------------------------------------------

  Dipole Moment: [D]
     X:    -1.2468      Y:     0.1658      Z:     0.0000     Total:     1.2578

*** Psi4 exiting successfully. Buy a developer a beer!
