                               Psi4 1.4a3.dev225

  ==> Input File <==

--------------------------------------------------------------------------
#psi4
#
memory 32 gb

molecule  {
0 1
  O       -2.3098380     0.0000000     0.0000530
  O        3.0303810     0.0000000    -0.0000560
  C       -0.3206930     1.2871930     0.0000000
  C       -0.3206930    -1.2871930     0.0000010
  C       -1.0703170     0.0000000     0.0000210
  C        1.0315930     1.2651910    -0.0000170
  C        1.0315930    -1.2651910    -0.0000160
  C        1.7395064     0.0857415    -0.0000310
  C       -1.1413450     2.5387140     0.0000150
  C       -1.1413450    -2.5387140     0.0000190
  H        1.6245090     2.1778770    -0.0000300
  H        1.6245090    -2.1778770    -0.0000270
  H       -1.7933300     2.5679320     0.8776520
  H       -1.7934040     2.5679060    -0.8775670
  H       -0.4992340     3.4225460    -0.0000240
  H       -0.4992350    -3.4225460    -0.0000280
  H       -1.7934120    -2.5679030    -0.8775580
  H       -1.7933230    -2.5679350     0.8776610
units angstrom
no_reorient  #important for SAPT in psi4, default
symmetry c1  #important for SAPT in psi4, default
}

set PROPERTIES_ORIGIN ["COM"]
properties('MP2/aug-cc-pvtz', properties = ['dipole'])
--------------------------------------------------------------------------

    Molecular point group: c1
  Charge       = 0
  Multiplicity = 1
  Basis Set: AUG-CC-PVTZ
    Blend: AUG-CC-PVTZ
  Basis Set: (AUG-CC-PVTZ AUX)
    Blend: AUG-CC-PVTZ-JKFIT

    Orbital Energies [Eh]
    ---------------------

    Doubly Occupied:

       1A    -20.581478     2A    -20.561549     3A    -11.363382
       4A    -11.353227     5A    -11.301204     6A    -11.280916
       7A    -11.274461     8A    -11.266906     9A    -11.249954
      10A    -11.240870    11A     -1.405162    12A     -1.354241
      13A     -1.168655    14A     -1.105192    15A     -1.018476
      16A     -0.966756    17A     -0.932859    18A     -0.828552
      19A     -0.808531    20A     -0.722598    21A     -0.700633
      22A     -0.645763    23A     -0.621124    24A     -0.616113
      25A     -0.611726    26A     -0.590954    27A     -0.589633
      28A     -0.572442    29A     -0.551061    30A     -0.547736
      31A     -0.547226    32A     -0.530174    33A     -0.457558
      34A     -0.438799    35A     -0.395388    36A     -0.386183

  @DF-RHF Final Energy:  -457.45144719343330

   => Energetics <=

    Nuclear Repulsion Energy =            490.8102013527182521
    One-Electron Energy =               -1595.3483282503730152
    Two-Electron Energy =                 647.0866797042215239
    Total Energy =                       -457.4514471934332960
  Basis Set: (AUG-CC-PVTZ AUX)
    Blend: AUG-CC-PVTZ-RI
    Molecular point group: c1

    Geometry (in Angstrom), charge = 0, multiplicity = 1:

       Center              X                  Y                   Z               Mass
    ------------   -----------------  -----------------  -----------------  -----------------
         O           -2.341172791836    -0.007562511039     0.000053473101    15.994914619570
         O            2.999046208164    -0.007562511039    -0.000055526899    15.994914619570
         C           -0.352027791836     1.279630488961     0.000000473101    12.000000000000
         C           -0.352027791836    -1.294755511039     0.000001473101    12.000000000000
         C           -1.101651791836    -0.007562511039     0.000021473101    12.000000000000
         C            1.000258208164     1.257628488961    -0.000016526899    12.000000000000
         C            1.000258208164    -1.272753511039    -0.000015526899    12.000000000000
         C            1.708171608164     0.078178988961    -0.000030526899    12.000000000000
         C           -1.172679791836     2.531151488961     0.000015473101    12.000000000000
         C           -1.172679791836    -2.546276511039     0.000019473101    12.000000000000
         H            1.593174208164     2.170314488961    -0.000029526899     1.007825032230
         H            1.593174208164    -2.185439511039    -0.000026526899     1.007825032230
         H           -1.824664791836     2.560369488961     0.877652473101     1.007825032230
         H           -1.824738791836     2.560343488961    -0.877566526899     1.007825032230
         H           -0.530568791836     3.414983488961    -0.000023526899     1.007825032230
         H           -0.530569791836    -3.430108511039    -0.000027526899     1.007825032230
         H           -1.824746791836    -2.575465511039    -0.877557526899     1.007825032230
         H           -1.824657791836    -2.575497511039     0.877661473101     1.007825032230

  Basis Set: AUG-CC-PVTZ
    Blend: AUG-CC-PVTZ
  Basis Set: (AUG-CC-PVTZ AUX)
    Blend: AUG-CC-PVTZ-JKFIT
	 Reference Energy          =    -457.4514471934332960 [Eh]
	 Singles Energy            =      -0.0000000000000000 [Eh]
	 Same-Spin Energy          =      -0.4695250639643461 [Eh]
	 Opposite-Spin Energy      =      -1.4820027695707481 [Eh]
	 Correlation Energy        =      -1.9515278335350943 [Eh]
	 Total Energy              =    -459.4029750269683632 [Eh]

	 ================> DF-SCS-MP2 Energies <==================
	-----------------------------------------------------------
	 SCS Same-Spin Scale       =       0.3333333333333333 [-]
	 SCS Opposite-Spin Scale   =       1.2000000000000000 [-]
	 SCS Same-Spin Energy      =      -0.1565083546547820 [Eh]
	 SCS Opposite-Spin Energy  =      -1.7784033234848977 [Eh]
	 SCS Correlation Energy    =      -1.9349116781396798 [Eh]
	 SCS Total Energy          =    -459.3863588715729520 [Eh]
	-----------------------------------------------------------

  Dipole Moment: [D]
     X:    -1.3172      Y:     0.3771      Z:     0.0000     Total:     1.3701

*** Psi4 exiting successfully. Buy a developer a beer!
