                               Psi4 1.4a3.dev225

  ==> Input File <==

--------------------------------------------------------------------------
#psi4
#
memory 32 gb

molecule  {
0 1
  O       -2.3098380     0.0000000     0.0000530
  O        3.0303810     0.0000000    -0.0000560
  C       -0.3206930     1.2871930     0.0000000
  C       -0.3206930    -1.2871930     0.0000010
  C       -1.0703170     0.0000000     0.0000210
  C        1.0315930     1.2651910    -0.0000170
  C        1.0315930    -1.2651910    -0.0000160
  C        1.7463519     0.0257311    -0.0000311
  C       -1.1413450     2.5387140     0.0000150
  C       -1.1413450    -2.5387140     0.0000190
  H        1.6245090     2.1778770    -0.0000300
  H        1.6245090    -2.1778770    -0.0000270
  H       -1.7933300     2.5679320     0.8776520
  H       -1.7934040     2.5679060    -0.8775670
  H       -0.4992340     3.4225460    -0.0000240
  H       -0.4992350    -3.4225460    -0.0000280
  H       -1.7934120    -2.5679030    -0.8775580
  H       -1.7933230    -2.5679350     0.8776610
units angstrom
no_reorient  #important for SAPT in psi4, default
symmetry c1  #important for SAPT in psi4, default
}

set PROPERTIES_ORIGIN ["COM"]
properties('MP2/aug-cc-pvtz', properties = ['dipole'])
--------------------------------------------------------------------------

    Molecular point group: c1
  Charge       = 0
  Multiplicity = 1
  Basis Set: AUG-CC-PVTZ
    Blend: AUG-CC-PVTZ
  Basis Set: (AUG-CC-PVTZ AUX)
    Blend: AUG-CC-PVTZ-JKFIT

    Orbital Energies [Eh]
    ---------------------

    Doubly Occupied:

       1A    -20.580785     2A    -20.562912     3A    -11.362804
       4A    -11.353615     5A    -11.293023     6A    -11.286984
       7A    -11.272261     8A    -11.270068     9A    -11.246260
      10A    -11.243559    11A     -1.404515    12A     -1.360417
      13A     -1.165737    14A     -1.105318    15A     -1.012413
      16A     -0.968734    17A     -0.932177    18A     -0.825409
      19A     -0.810405    20A     -0.722933    21A     -0.700365
      22A     -0.645825    23A     -0.620074    24A     -0.615613
      25A     -0.612353    26A     -0.590797    27A     -0.590261
      28A     -0.572069    29A     -0.550792    30A     -0.548971
      31A     -0.547875    32A     -0.530707    33A     -0.458171
      34A     -0.440677    35A     -0.395784    36A     -0.386782

  @DF-RHF Final Energy:  -457.46197117929285

   => Energetics <=

    Nuclear Repulsion Energy =            490.7572032460653872
    One-Electron Energy =               -1595.2634543500089421
    Two-Electron Energy =                 647.0442799246508230
    Total Energy =                       -457.4619711792928456
  Basis Set: (AUG-CC-PVTZ AUX)
    Blend: AUG-CC-PVTZ-RI
    Molecular point group: c1

    Geometry (in Angstrom), charge = 0, multiplicity = 1:

       Center              X                  Y                   Z               Mass
    ------------   -----------------  -----------------  -----------------  -----------------
         O           -2.341776573777    -0.002269516253     0.000053481921    15.994914619570
         O            2.998442426223    -0.002269516253    -0.000055518079    15.994914619570
         C           -0.352631573777     1.284923483747     0.000000481921    12.000000000000
         C           -0.352631573777    -1.289462516253     0.000001481921    12.000000000000
         C           -1.102255573777    -0.002269516253     0.000021481921    12.000000000000
         C            0.999654426223     1.262921483747    -0.000016518079    12.000000000000
         C            0.999654426223    -1.267460516253    -0.000015518079    12.000000000000
         C            1.714413326223     0.023461583747    -0.000030618079    12.000000000000
         C           -1.173283573777     2.536444483747     0.000015481921    12.000000000000
         C           -1.173283573777    -2.540983516253     0.000019481921    12.000000000000
         H            1.592570426223     2.175607483747    -0.000029518079     1.007825032230
         H            1.592570426223    -2.180146516253    -0.000026518079     1.007825032230
         H           -1.825268573777     2.565662483747     0.877652481921     1.007825032230
         H           -1.825342573777     2.565636483747    -0.877566518079     1.007825032230
         H           -0.531172573777     3.420276483747    -0.000023518079     1.007825032230
         H           -0.531173573777    -3.424815516253    -0.000027518079     1.007825032230
         H           -1.825350573777    -2.570172516253    -0.877557518079     1.007825032230
         H           -1.825261573777    -2.570204516253     0.877661481921     1.007825032230

  Basis Set: AUG-CC-PVTZ
    Blend: AUG-CC-PVTZ
  Basis Set: (AUG-CC-PVTZ AUX)
    Blend: AUG-CC-PVTZ-JKFIT
	 Reference Energy          =    -457.4619711792928456 [Eh]
	 Singles Energy            =      -0.0000000000000000 [Eh]
	 Same-Spin Energy          =      -0.4687645180654431 [Eh]
	 Opposite-Spin Energy      =      -1.4805925147230650 [Eh]
	 Correlation Energy        =      -1.9493570327885079 [Eh]
	 Total Energy              =    -459.4113282120813437 [Eh]

	 ================> DF-SCS-MP2 Energies <==================
	-----------------------------------------------------------
	 SCS Same-Spin Scale       =       0.3333333333333333 [-]
	 SCS Opposite-Spin Scale   =       1.2000000000000000 [-]
	 SCS Same-Spin Energy      =      -0.1562548393551477 [Eh]
	 SCS Opposite-Spin Energy  =      -1.7767110176676779 [Eh]
	 SCS Correlation Energy    =      -1.9329658570228256 [Eh]
	 SCS Total Energy          =    -459.3949370363156959 [Eh]
	-----------------------------------------------------------

  Dipole Moment: [D]
     X:    -1.2952      Y:     0.1140      Z:     0.0000     Total:     1.3002

*** Psi4 exiting successfully. Buy a developer a beer!
