                               Psi4 1.4a3.dev225

  ==> Input File <==

--------------------------------------------------------------------------
#psi4
#
memory 32 gb

molecule  {
0 1
  O       -2.3098380     0.0000000     0.0000530
  O        3.0303810     0.0000000    -0.0000560
  C       -0.3206930     1.2871930     0.0000000
  C       -0.3206930    -1.2871930     0.0000010
  C       -1.0703170     0.0000000     0.0000210
  C        1.0315930     1.2651910    -0.0000170
  C        1.0315930    -1.2651910    -0.0000160
  C        1.7909690     0.0000000    -0.0000320
  C       -1.1413450     2.5387140     0.0000150
  C       -1.1413450    -2.5387140     0.0000190
  H        1.6245090     2.1778770    -0.0000300
  H        1.6245090    -2.1778770    -0.0000270
  H       -1.7933300     2.5679320     0.8776520
  H       -1.7934040     2.5679060    -0.8775670
  H       -0.4992340     3.4225460    -0.0000240
  H       -0.4992350    -3.4225460    -0.0000280
  H       -1.7636019    -2.5665686    -0.8374384
  H       -1.7933230    -2.5679350     0.8776610
units angstrom
no_reorient  #important for SAPT in psi4, default
symmetry c1  #important for SAPT in psi4, default
}

set PROPERTIES_ORIGIN ["COM"]
properties('MP2/aug-cc-pvtz', properties = ['dipole'])
--------------------------------------------------------------------------

    Molecular point group: c1
  Charge       = 0
  Multiplicity = 1
  Basis Set: AUG-CC-PVTZ
    Blend: AUG-CC-PVTZ
  Basis Set: (AUG-CC-PVTZ AUX)
    Blend: AUG-CC-PVTZ-JKFIT

    Orbital Energies [Eh]
    ---------------------

    Doubly Occupied:

       1A    -20.578082     2A    -20.566820     3A    -11.360580
       4A    -11.353107     5A    -11.287514     6A    -11.287233
       7A    -11.270292     8A    -11.270122     9A    -11.243392
      10A    -11.237562    11A     -1.402203    12A     -1.388998
      13A     -1.160840    14A     -1.102738    15A     -1.008803
      16A     -0.966683    17A     -0.930515    18A     -0.823959
      19A     -0.808370    20A     -0.722076    21A     -0.697268
      22A     -0.655874    23A     -0.620626    24A     -0.613330
      25A     -0.607771    26A     -0.593325    27A     -0.592771
      28A     -0.575069    29A     -0.556154    30A     -0.551964
      31A     -0.549138    32A     -0.534163    33A     -0.458554
      34A     -0.435667    35A     -0.399809    36A     -0.384918

  @DF-RHF Final Energy:  -457.47064376700524

   => Energetics <=

    Nuclear Repulsion Energy =            490.7579261650133731
    One-Electron Energy =               -1595.2645594285752395
    Two-Electron Energy =                 647.0359894965567946
    Total Energy =                       -457.4706437670051855
  Basis Set: (AUG-CC-PVTZ AUX)
    Blend: AUG-CC-PVTZ-RI
    Molecular point group: c1

    Geometry (in Angstrom), charge = 0, multiplicity = 1:

       Center              X                  Y                   Z               Mass
    ------------   -----------------  -----------------  -----------------  -----------------
         O           -2.345932681589    -0.000009884731    -0.000243629547    15.994914619570
         O            2.994286318411    -0.000009884731    -0.000352629547    15.994914619570
         C           -0.356787681589     1.287183115269    -0.000296629547    12.000000000000
         C           -0.356787681589    -1.287202884731    -0.000295629547    12.000000000000
         C           -1.106411681589    -0.000009884731    -0.000275629547    12.000000000000
         C            0.995498318411     1.265181115269    -0.000313629547    12.000000000000
         C            0.995498318411    -1.265200884731    -0.000312629547    12.000000000000
         C            1.754874318411    -0.000009884731    -0.000328629547    12.000000000000
         C           -1.177439681589     2.538704115269    -0.000281629547    12.000000000000
         C           -1.177439681589    -2.538723884731    -0.000277629547    12.000000000000
         H            1.588414318411     2.177867115269    -0.000326629547     1.007825032230
         H            1.588414318411    -2.177886884731    -0.000323629547     1.007825032230
         H           -1.829424681589     2.567922115269     0.877355370453     1.007825032230
         H           -1.829498681589     2.567896115269    -0.877863629547     1.007825032230
         H           -0.535328681589     3.422536115269    -0.000320629547     1.007825032230
         H           -0.535329681589    -3.422555884731    -0.000324629547     1.007825032230
         H           -1.799696581589    -2.566578484731    -0.837735029547     1.007825032230
         H           -1.829417681589    -2.567944884731     0.877364370453     1.007825032230

  Basis Set: AUG-CC-PVTZ
    Blend: AUG-CC-PVTZ
  Basis Set: (AUG-CC-PVTZ AUX)
    Blend: AUG-CC-PVTZ-JKFIT
	 Reference Energy          =    -457.4706437670052424 [Eh]
	 Singles Energy            =      -0.0000000000000000 [Eh]
	 Same-Spin Energy          =      -0.4667984424413579 [Eh]
	 Opposite-Spin Energy      =      -1.4766136746995115 [Eh]
	 Correlation Energy        =      -1.9434121171408694 [Eh]
	 Total Energy              =    -459.4140558841461370 [Eh]

	 ================> DF-SCS-MP2 Energies <==================
	-----------------------------------------------------------
	 SCS Same-Spin Scale       =       0.3333333333333333 [-]
	 SCS Opposite-Spin Scale   =       1.2000000000000000 [-]
	 SCS Same-Spin Energy      =      -0.1555994808137859 [Eh]
	 SCS Opposite-Spin Energy  =      -1.7719364096394139 [Eh]
	 SCS Correlation Energy    =      -1.9275358904531998 [Eh]
	 SCS Total Energy          =    -459.3981796574584564 [Eh]
	-----------------------------------------------------------

  Dipole Moment: [D]
     X:    -1.1369      Y:    -0.0051      Z:    -0.0070     Total:     1.1370

*** Psi4 exiting successfully. Buy a developer a beer!
