                               Psi4 1.4a3.dev225

  ==> Input File <==

--------------------------------------------------------------------------
#psi4
#
memory 32 gb

molecule  {
0 1
  O       -2.3098380     0.0000000     0.0000530
  O        3.0303810     0.0000000    -0.0000560
  C       -0.3206930     1.2871930     0.0000000
  C       -0.3189337    -1.1928087     0.0000013
  C       -1.0703170     0.0000000     0.0000210
  C        1.0315930     1.2651910    -0.0000170
  C        1.0315930    -1.2651910    -0.0000160
  C        1.7909690     0.0000000    -0.0000320
  C       -1.1413450     2.5387140     0.0000150
  C       -1.1413450    -2.5387140     0.0000190
  H        1.6245090     2.1778770    -0.0000300
  H        1.6245090    -2.1778770    -0.0000270
  H       -1.7933300     2.5679320     0.8776520
  H       -1.7934040     2.5679060    -0.8775670
  H       -0.4992340     3.4225460    -0.0000240
  H       -0.4992350    -3.4225460    -0.0000280
  H       -1.7934120    -2.5679030    -0.8775580
  H       -1.7933230    -2.5679350     0.8776610
units angstrom
no_reorient  #important for SAPT in psi4, default
symmetry c1  #important for SAPT in psi4, default
}

set PROPERTIES_ORIGIN ["COM"]
properties('MP2/aug-cc-pvtz', properties = ['dipole'])
--------------------------------------------------------------------------

    Molecular point group: c1
  Charge       = 0
  Multiplicity = 1
  Basis Set: AUG-CC-PVTZ
    Blend: AUG-CC-PVTZ
  Basis Set: (AUG-CC-PVTZ AUX)
    Blend: AUG-CC-PVTZ-JKFIT

    Orbital Energies [Eh]
    ---------------------

    Doubly Occupied:

       1A    -20.578519     2A    -20.568462     3A    -11.355807
       4A    -11.352284     5A    -11.285757     6A    -11.284294
       7A    -11.277514     8A    -11.269214     9A    -11.245409
      10A    -11.242404    11A     -1.403772    12A     -1.390319
      13A     -1.166817    14A     -1.097967    15A     -1.002362
      16A     -0.961804    17A     -0.941385    18A     -0.829407
      19A     -0.806208    20A     -0.725406    21A     -0.700966
      22A     -0.654198    23A     -0.621496    24A     -0.618759
      25A     -0.606852    26A     -0.588748    27A     -0.584568
      28A     -0.566982    29A     -0.555152    30A     -0.552752
      31A     -0.537625    32A     -0.534396    33A     -0.462718
      34A     -0.434749    35A     -0.401567    36A     -0.385473

  @DF-RHF Final Energy:  -457.46130573016251

   => Energetics <=

    Nuclear Repulsion Energy =            491.5443363941391794
    One-Electron Energy =               -1596.8270580999508184
    Two-Electron Energy =                 647.8214159756490744
    Total Energy =                       -457.4613057301625076
  Basis Set: (AUG-CC-PVTZ AUX)
    Blend: AUG-CC-PVTZ-RI
    Molecular point group: c1

    Geometry (in Angstrom), charge = 0, multiplicity = 1:

       Center              X                  Y                   Z               Mass
    ------------   -----------------  -----------------  -----------------  -----------------
         O           -2.345867032155    -0.008324817162     0.000053534842    15.994914619570
         O            2.994351967845    -0.008324817162    -0.000055465158    15.994914619570
         C           -0.356722032155     1.278868182838     0.000000534842    12.000000000000
         C           -0.354962732155    -1.201133517162     0.000001834842    12.000000000000
         C           -1.106346032155    -0.008324817162     0.000021534842    12.000000000000
         C            0.995563967845     1.256866182838    -0.000016465158    12.000000000000
         C            0.995563967845    -1.273515817162    -0.000015465158    12.000000000000
         C            1.754939967845    -0.008324817162    -0.000031465158    12.000000000000
         C           -1.177374032155     2.530389182838     0.000015534842    12.000000000000
         C           -1.177374032155    -2.547038817162     0.000019534842    12.000000000000
         H            1.588479967845     2.169552182838    -0.000029465158     1.007825032230
         H            1.588479967845    -2.186201817162    -0.000026465158     1.007825032230
         H           -1.829359032155     2.559607182838     0.877652534842     1.007825032230
         H           -1.829433032155     2.559581182838    -0.877566465158     1.007825032230
         H           -0.535263032155     3.414221182838    -0.000023465158     1.007825032230
         H           -0.535264032155    -3.430870817162    -0.000027465158     1.007825032230
         H           -1.829441032155    -2.576227817162    -0.877557465158     1.007825032230
         H           -1.829352032155    -2.576259817162     0.877661534842     1.007825032230

  Basis Set: AUG-CC-PVTZ
    Blend: AUG-CC-PVTZ
  Basis Set: (AUG-CC-PVTZ AUX)
    Blend: AUG-CC-PVTZ-JKFIT
	 Reference Energy          =    -457.4613057301625076 [Eh]
	 Singles Energy            =      -0.0000000000000000 [Eh]
	 Same-Spin Energy          =      -0.4673583246476253 [Eh]
	 Opposite-Spin Energy      =      -1.4782845974389283 [Eh]
	 Correlation Energy        =      -1.9456429220865537 [Eh]
	 Total Energy              =    -459.4069486522490706 [Eh]

	 ================> DF-SCS-MP2 Energies <==================
	-----------------------------------------------------------
	 SCS Same-Spin Scale       =       0.3333333333333333 [-]
	 SCS Opposite-Spin Scale   =       1.2000000000000000 [-]
	 SCS Same-Spin Energy      =      -0.1557861082158751 [Eh]
	 SCS Opposite-Spin Energy  =      -1.7739415169267139 [Eh]
	 SCS Correlation Energy    =      -1.9297276251425890 [Eh]
	 SCS Total Energy          =    -459.3910333553050691 [Eh]
	-----------------------------------------------------------

  Dipole Moment: [D]
     X:    -0.9288      Y:    -0.0202      Z:     0.0000     Total:     0.9290

*** Psi4 exiting successfully. Buy a developer a beer!
