                               Psi4 1.4a3.dev225

  ==> Input File <==

--------------------------------------------------------------------------
#psi4
#
memory 32 gb

molecule  {
0 1
  O       -2.3098380     0.0000000     0.0000530
  O        3.0303810     0.0000000    -0.0000560
  C       -0.3206930     1.2871930     0.0000000
  C       -0.3206930    -1.2871930     0.0000010
  C       -1.0199920    -0.0864141     0.0000197
  C        1.0315930     1.2651910    -0.0000170
  C        1.0315930    -1.2651910    -0.0000160
  C        1.7909690     0.0000000    -0.0000320
  C       -1.1413450     2.5387140     0.0000150
  C       -1.1413450    -2.5387140     0.0000190
  H        1.6245090     2.1778770    -0.0000300
  H        1.6245090    -2.1778770    -0.0000270
  H       -1.7933300     2.5679320     0.8776520
  H       -1.7934040     2.5679060    -0.8775670
  H       -0.4992340     3.4225460    -0.0000240
  H       -0.4992350    -3.4225460    -0.0000280
  H       -1.7934120    -2.5679030    -0.8775580
  H       -1.7933230    -2.5679350     0.8776610
units angstrom
no_reorient  #important for SAPT in psi4, default
symmetry c1  #important for SAPT in psi4, default
}

set PROPERTIES_ORIGIN ["COM"]
properties('MP2/aug-cc-pvtz', properties = ['dipole'])
--------------------------------------------------------------------------

    Molecular point group: c1
  Charge       = 0
  Multiplicity = 1
  Basis Set: AUG-CC-PVTZ
    Blend: AUG-CC-PVTZ
  Basis Set: (AUG-CC-PVTZ AUX)
    Blend: AUG-CC-PVTZ-JKFIT

    Orbital Energies [Eh]
    ---------------------

    Doubly Occupied:

       1A    -20.572973     2A    -20.570874     3A    -11.361088
       4A    -11.356218     5A    -11.291752     6A    -11.284706
       7A    -11.283135     8A    -11.264042     9A    -11.245018
      10A    -11.243258    11A     -1.392848    12A     -1.368028
      13A     -1.169308    14A     -1.104884    15A     -1.009193
      16A     -0.966327    17A     -0.940449    18A     -0.828338
      19A     -0.808015    20A     -0.721973    21A     -0.692730
      22A     -0.655428    23A     -0.617874    24A     -0.610092
      25A     -0.604964    26A     -0.595635    27A     -0.588933
      28A     -0.574249    29A     -0.557136    30A     -0.552416
      31A     -0.541404    32A     -0.519060    33A     -0.458938
      34A     -0.439839    35A     -0.398529    36A     -0.385892

  @DF-RHF Final Energy:  -457.45162480428803

   => Energetics <=

    Nuclear Repulsion Energy =            490.6611997888680889
    One-Electron Energy =               -1595.0745578592395759
    Two-Electron Energy =                 646.9617332660834563
    Total Energy =                       -457.4516248042880306
  Basis Set: (AUG-CC-PVTZ AUX)
    Blend: AUG-CC-PVTZ-RI
    Molecular point group: c1

    Geometry (in Angstrom), charge = 0, multiplicity = 1:

       Center              X                  Y                   Z               Mass
    ------------   -----------------  -----------------  -----------------  -----------------
         O           -2.350150589620     0.007621835228     0.000053675964    15.994914619570
         O            2.990068410380     0.007621835228    -0.000055324036    15.994914619570
         C           -0.361005589620     1.294814835228     0.000000675964    12.000000000000
         C           -0.361005589620    -1.279571164772     0.000001675964    12.000000000000
         C           -1.060304589620    -0.078792264772     0.000020375964    12.000000000000
         C            0.991280410380     1.272812835228    -0.000016324036    12.000000000000
         C            0.991280410380    -1.257569164772    -0.000015324036    12.000000000000
         C            1.750656410380     0.007621835228    -0.000031324036    12.000000000000
         C           -1.181657589620     2.546335835228     0.000015675964    12.000000000000
         C           -1.181657589620    -2.531092164772     0.000019675964    12.000000000000
         H            1.584196410380     2.185498835228    -0.000029324036     1.007825032230
         H            1.584196410380    -2.170255164772    -0.000026324036     1.007825032230
         H           -1.833642589620     2.575553835228     0.877652675964     1.007825032230
         H           -1.833716589620     2.575527835228    -0.877566324036     1.007825032230
         H           -0.539546589620     3.430167835228    -0.000023324036     1.007825032230
         H           -0.539547589620    -3.414924164772    -0.000027324036     1.007825032230
         H           -1.833724589620    -2.560281164772    -0.877557324036     1.007825032230
         H           -1.833635589620    -2.560313164772     0.877661675964     1.007825032230

  Basis Set: AUG-CC-PVTZ
    Blend: AUG-CC-PVTZ
  Basis Set: (AUG-CC-PVTZ AUX)
    Blend: AUG-CC-PVTZ-JKFIT
	 Reference Energy          =    -457.4516248042880306 [Eh]
	 Singles Energy            =      -0.0000000000000000 [Eh]
	 Same-Spin Energy          =      -0.4694561354591105 [Eh]
	 Opposite-Spin Energy      =      -1.4821397495352162 [Eh]
	 Correlation Energy        =      -1.9515958849943267 [Eh]
	 Total Energy              =    -459.4032206892823638 [Eh]

	 ================> DF-SCS-MP2 Energies <==================
	-----------------------------------------------------------
	 SCS Same-Spin Scale       =       0.3333333333333333 [-]
	 SCS Opposite-Spin Scale   =       1.2000000000000000 [-]
	 SCS Same-Spin Energy      =      -0.1564853784863702 [Eh]
	 SCS Opposite-Spin Energy  =      -1.7785676994422595 [Eh]
	 SCS Correlation Energy    =      -1.9350530779286297 [Eh]
	 SCS Total Energy          =    -459.3866778822166452 [Eh]
	-----------------------------------------------------------

  Dipole Moment: [D]
     X:    -0.9480      Y:    -0.2989      Z:     0.0000     Total:     0.9940

*** Psi4 exiting successfully. Buy a developer a beer!
