                               Psi4 1.4a3.dev225

  ==> Input File <==

--------------------------------------------------------------------------
#psi4
#
memory 32 gb

molecule  {
0 1
  O       -2.3098380     0.0000000     0.0000530
  O        3.0303810     0.0000000    -0.0000560
  C       -0.3206930     1.2871930     0.0000000
  C       -0.3206930    -1.2871930     0.0000010
  C       -1.0703170     0.0000000     0.0000210
  C        1.0315930     1.2651910    -0.0000170
  C        1.0315930    -1.2651910    -0.0000160
  C        1.7909690     0.0000000    -0.0000320
  C       -1.1413450     2.5387140     0.0000150
  C       -1.1413450    -2.5387140     0.0000190
  H        1.6245090     2.1778770    -0.0000300
  H        1.6245090    -2.1778770    -0.0000270
  H       -1.7933300     2.5679320     0.8776520
  H       -1.7934040     2.5679060    -0.8775670
  H       -0.5286223     3.3820945    -0.0000222
  H       -0.4992350    -3.4225460    -0.0000280
  H       -1.7934120    -2.5679030    -0.8775580
  H       -1.7933230    -2.5679350     0.8776610
units angstrom
no_reorient  #important for SAPT in psi4, default
symmetry c1  #important for SAPT in psi4, default
}

set PROPERTIES_ORIGIN ["COM"]
properties('MP2/aug-cc-pvtz', properties = ['dipole'])
--------------------------------------------------------------------------

    Molecular point group: c1
  Charge       = 0
  Multiplicity = 1
  Basis Set: AUG-CC-PVTZ
    Blend: AUG-CC-PVTZ
  Basis Set: (AUG-CC-PVTZ AUX)
    Blend: AUG-CC-PVTZ-JKFIT

    Orbital Energies [Eh]
    ---------------------

    Doubly Occupied:

       1A    -20.577795     2A    -20.566739     3A    -11.360207
       4A    -11.353129     5A    -11.287400     6A    -11.287277
       7A    -11.270187     8A    -11.270164     9A    -11.243281
      10A    -11.237403    11A     -1.401858    12A     -1.388943
      13A     -1.160811    14A     -1.102769    15A     -1.008580
      16A     -0.966266    17A     -0.930759    18A     -0.824536
      19A     -0.807852    20A     -0.722433    21A     -0.697066
      22A     -0.655797    23A     -0.618119    24A     -0.613566
      25A     -0.607474    26A     -0.597110    27A     -0.588881
      28A     -0.574795    29A     -0.555325    30A     -0.554735
      31A     -0.550051    32A     -0.533118    33A     -0.458509
      34A     -0.435494    35A     -0.399578    36A     -0.384579

  @DF-RHF Final Energy:  -457.47067455363106

   => Energetics <=

    Nuclear Repulsion Energy =            490.7657833884044862
    One-Electron Energy =               -1595.2877441224732138
    Two-Electron Energy =                 647.0512861804376143
    Total Energy =                       -457.4706745536310564
  Basis Set: (AUG-CC-PVTZ AUX)
    Blend: AUG-CC-PVTZ-RI
    Molecular point group: c1

    Geometry (in Angstrom), charge = 0, multiplicity = 1:

       Center              X                  Y                   Z               Mass
    ------------   -----------------  -----------------  -----------------  -----------------
         O           -2.345494162191     0.000299649440     0.000053547969    15.994914619570
         O            2.994724837809     0.000299649440    -0.000055452031    15.994914619570
         C           -0.356349162191     1.287492649440     0.000000547969    12.000000000000
         C           -0.356349162191    -1.286893350560     0.000001547969    12.000000000000
         C           -1.105973162191     0.000299649440     0.000021547969    12.000000000000
         C            0.995936837809     1.265490649440    -0.000016452031    12.000000000000
         C            0.995936837809    -1.264891350560    -0.000015452031    12.000000000000
         C            1.755312837809     0.000299649440    -0.000031452031    12.000000000000
         C           -1.177001162191     2.539013649440     0.000015547969    12.000000000000
         C           -1.177001162191    -2.538414350560     0.000019547969    12.000000000000
         H            1.588852837809     2.178176649440    -0.000029452031     1.007825032230
         H            1.588852837809    -2.177577350560    -0.000026452031     1.007825032230
         H           -1.828986162191     2.568231649440     0.877652547969     1.007825032230
         H           -1.829060162191     2.568205649440    -0.877566452031     1.007825032230
         H           -0.564278462191     3.382394149440    -0.000021652031     1.007825032230
         H           -0.534891162191    -3.422246350560    -0.000027452031     1.007825032230
         H           -1.829068162191    -2.567603350560    -0.877557452031     1.007825032230
         H           -1.828979162191    -2.567635350560     0.877661547969     1.007825032230

  Basis Set: AUG-CC-PVTZ
    Blend: AUG-CC-PVTZ
  Basis Set: (AUG-CC-PVTZ AUX)
    Blend: AUG-CC-PVTZ-JKFIT
	 Reference Energy          =    -457.4706745536310564 [Eh]
	 Singles Energy            =      -0.0000000000000000 [Eh]
	 Same-Spin Energy          =      -0.4668050026810344 [Eh]
	 Opposite-Spin Energy      =      -1.4765730801961965 [Eh]
	 Correlation Energy        =      -1.9433780828772309 [Eh]
	 Total Energy              =    -459.4140526365083019 [Eh]

	 ================> DF-SCS-MP2 Energies <==================
	-----------------------------------------------------------
	 SCS Same-Spin Scale       =       0.3333333333333333 [-]
	 SCS Opposite-Spin Scale   =       1.2000000000000000 [-]
	 SCS Same-Spin Energy      =      -0.1556016675603448 [Eh]
	 SCS Opposite-Spin Energy  =      -1.7718876962354357 [Eh]
	 SCS Correlation Energy    =      -1.9274893637957806 [Eh]
	 SCS Total Energy          =    -459.3981639174268139 [Eh]
	-----------------------------------------------------------

  Dipole Moment: [D]
     X:    -1.1286      Y:     0.0244      Z:     0.0000     Total:     1.1289

*** Psi4 exiting successfully. Buy a developer a beer!
