                               Psi4 1.4a3.dev225

  ==> Input File <==

--------------------------------------------------------------------------
#psi4
#
memory 32 gb

molecule  {
0 1
  O       -2.3098380     0.0000000     0.0000530
  O        3.0303810     0.0000000    -0.0000560
  C       -0.3206930     1.2871930     0.0000000
  C       -0.3206930    -1.2871930     0.0000010
  C       -1.0703170     0.0000000     0.0000210
  C        1.0315930     1.2651910    -0.0000170
  C        1.0315930    -1.2651910    -0.0000160
  C        1.9909690     0.0000000    -0.0000359
  C       -1.1413450     2.5387140     0.0000150
  C       -1.1413450    -2.5387140     0.0000190
  H        1.6245090     2.1778770    -0.0000300
  H        1.6245090    -2.1778770    -0.0000270
  H       -1.7933300     2.5679320     0.8776520
  H       -1.7934040     2.5679060    -0.8775670
  H       -0.4992340     3.4225460    -0.0000240
  H       -0.4992350    -3.4225460    -0.0000280
  H       -1.7934120    -2.5679030    -0.8775580
  H       -1.7933230    -2.5679350     0.8776610
units angstrom
no_reorient  #important for SAPT in psi4, default
symmetry c1  #important for SAPT in psi4, default
}

set PROPERTIES_ORIGIN ["COM"]
properties('MP2/aug-cc-pvtz', properties = ['dipole'])
--------------------------------------------------------------------------

    Molecular point group: c1
  Charge       = 0
  Multiplicity = 1
  Basis Set: AUG-CC-PVTZ
    Blend: AUG-CC-PVTZ
  Basis Set: (AUG-CC-PVTZ AUX)
    Blend: AUG-CC-PVTZ-JKFIT

    Orbital Energies [Eh]
    ---------------------

    Doubly Occupied:

       1A    -20.586887     2A    -20.564975     3A    -11.349770
       4A    -11.349184     5A    -11.275463     6A    -11.275439
       7A    -11.261509     8A    -11.261484     9A    -11.235402
      10A    -11.235402    11A     -1.551170    12A     -1.390113
      13A     -1.138545    14A     -1.088300    15A     -0.983697
      16A     -0.948028    17A     -0.915287    18A     -0.817228
      19A     -0.794440    20A     -0.732575    21A     -0.716997
      22A     -0.680456    23A     -0.656098    24A     -0.608598
      25A     -0.601572    26A     -0.600429    27A     -0.591741
      28A     -0.582446    29A     -0.580916    30A     -0.548598
      31A     -0.540215    32A     -0.527032    33A     -0.449639
      34A     -0.402284    35A     -0.393348    36A     -0.372592

  @DF-RHF Final Energy:  -457.40889207140339

   => Energetics <=

    Nuclear Repulsion Energy =            490.3778935567046346
    One-Electron Energy =               -1594.3578526563185278
    Two-Electron Energy =                 646.5710670282105639
    Total Energy =                       -457.4088920714034430
  Basis Set: (AUG-CC-PVTZ AUX)
    Blend: AUG-CC-PVTZ-RI
    Molecular point group: c1

    Geometry (in Angstrom), charge = 0, multiplicity = 1:

       Center              X                  Y                   Z               Mass
    ------------   -----------------  -----------------  -----------------  -----------------
         O           -2.363352117932    -0.000000000000     0.000053905288    15.994914619570
         O            2.976866882068    -0.000000000000    -0.000055094712    15.994914619570
         C           -0.374207117932     1.287193000000     0.000000905288    12.000000000000
         C           -0.374207117932    -1.287193000000     0.000001905288    12.000000000000
         C           -1.123831117932    -0.000000000000     0.000021905288    12.000000000000
         C            0.978078882068     1.265191000000    -0.000016094712    12.000000000000
         C            0.978078882068    -1.265191000000    -0.000015094712    12.000000000000
         C            1.937454882068    -0.000000000000    -0.000034994712    12.000000000000
         C           -1.194859117932     2.538714000000     0.000015905288    12.000000000000
         C           -1.194859117932    -2.538714000000     0.000019905288    12.000000000000
         H            1.570994882068     2.177877000000    -0.000029094712     1.007825032230
         H            1.570994882068    -2.177877000000    -0.000026094712     1.007825032230
         H           -1.846844117932     2.567932000000     0.877652905288     1.007825032230
         H           -1.846918117932     2.567906000000    -0.877566094712     1.007825032230
         H           -0.552748117932     3.422546000000    -0.000023094712     1.007825032230
         H           -0.552749117932    -3.422546000000    -0.000027094712     1.007825032230
         H           -1.846926117932    -2.567903000000    -0.877557094712     1.007825032230
         H           -1.846837117932    -2.567935000000     0.877661905288     1.007825032230

  Basis Set: AUG-CC-PVTZ
    Blend: AUG-CC-PVTZ
  Basis Set: (AUG-CC-PVTZ AUX)
    Blend: AUG-CC-PVTZ-JKFIT
	 Reference Energy          =    -457.4088920714033861 [Eh]
	 Singles Energy            =      -0.0000000000000000 [Eh]
	 Same-Spin Energy          =      -0.4610397476273043 [Eh]
	 Opposite-Spin Energy      =      -1.4656133904366988 [Eh]
	 Correlation Energy        =      -1.9266531380640031 [Eh]
	 Total Energy              =    -459.3355452094673979 [Eh]

	 ================> DF-SCS-MP2 Energies <==================
	-----------------------------------------------------------
	 SCS Same-Spin Scale       =       0.3333333333333333 [-]
	 SCS Opposite-Spin Scale   =       1.2000000000000000 [-]
	 SCS Same-Spin Energy      =      -0.1536799158757681 [Eh]
	 SCS Opposite-Spin Energy  =      -1.7587360685240385 [Eh]
	 SCS Correlation Energy    =      -1.9124159843998065 [Eh]
	 SCS Total Energy          =    -459.3213080558031720 [Eh]
	-----------------------------------------------------------

  Dipole Moment: [D]
     X:     0.3029      Y:    -0.0000      Z:    -0.0000     Total:     0.3029

*** Psi4 exiting successfully. Buy a developer a beer!
