                               Psi4 1.4a3.dev225

  ==> Input File <==

--------------------------------------------------------------------------
#psi4
#
memory 32 gb

molecule  {
0 1
  O       -2.3098380     0.0000000     0.0000530
  O        3.0303810     0.0000000    -0.0000560
  C       -0.3206930     1.2871930     0.0000000
  C       -0.3206930    -1.2871930     0.0000010
  C       -1.0703170     0.0000000     0.0000210
  C        1.0315930     1.2651910    -0.0000170
  C        1.0315930    -1.2651910    -0.0000160
  C        1.7909690     0.0000000    -0.0000320
  C       -1.1413450     2.5387140     0.0000150
  C       -1.1413450    -2.5387140     0.0000190
  H        1.6245090     2.1778770    -0.0000300
  H        1.6245090    -2.1778770    -0.0000270
  H       -1.7933300     2.5679320     0.8776520
  H       -1.6741651     2.5625678    -0.7170878
  H       -0.4992340     3.4225460    -0.0000240
  H       -0.4992350    -3.4225460    -0.0000280
  H       -1.7934120    -2.5679030    -0.8775580
  H       -1.7933230    -2.5679350     0.8776610
units angstrom
no_reorient  #important for SAPT in psi4, default
symmetry c1  #important for SAPT in psi4, default
}

set PROPERTIES_ORIGIN ["COM"]
properties('MP2/aug-cc-pvtz', properties = ['dipole'])
--------------------------------------------------------------------------

    Molecular point group: c1
  Charge       = 0
  Multiplicity = 1
  Basis Set: AUG-CC-PVTZ
    Blend: AUG-CC-PVTZ
  Basis Set: (AUG-CC-PVTZ AUX)
    Blend: AUG-CC-PVTZ-JKFIT

    Orbital Energies [Eh]
    ---------------------

    Doubly Occupied:

       1A    -20.578279     2A    -20.566765     3A    -11.360695
       4A    -11.352955     5A    -11.287468     6A    -11.286502
       7A    -11.270284     8A    -11.269878     9A    -11.243385
      10A    -11.219780    11A     -1.402428    12A     -1.388930
      13A     -1.161271    14A     -1.105274    15A     -1.016978
      16A     -0.972968    17A     -0.932997    18A     -0.827624
      19A     -0.809762    20A     -0.722417    21A     -0.697611
      22A     -0.658376    23A     -0.634832    24A     -0.613904
      25A     -0.608835    26A     -0.599934    27A     -0.592961
      28A     -0.576107    29A     -0.559361    30A     -0.552350
      31A     -0.549054    32A     -0.535240    33A     -0.458533
      34A     -0.435718    35A     -0.400097    36A     -0.385521

  @DF-RHF Final Energy:  -457.43760168323462

   => Energetics <=

    Nuclear Repulsion Energy =            491.5270460141830426
    One-Electron Energy =               -1596.6591466806435164
    Two-Electron Energy =                 647.6944989832257988
    Total Energy =                       -457.4376016832346750
  Basis Set: (AUG-CC-PVTZ AUX)
    Blend: AUG-CC-PVTZ-RI
    Molecular point group: c1

    Geometry (in Angstrom), charge = 0, multiplicity = 1:

       Center              X                  Y                   Z               Mass
    ------------   -----------------  -----------------  -----------------  -----------------
         O           -2.346595136376     0.000039543370    -0.001135208024    15.994914619570
         O            2.993623863624     0.000039543370    -0.001244208024    15.994914619570
         C           -0.357450136376     1.287232543370    -0.001188208024    12.000000000000
         C           -0.357450136376    -1.287153456630    -0.001187208024    12.000000000000
         C           -1.107074136376     0.000039543370    -0.001167208024    12.000000000000
         C            0.994835863624     1.265230543370    -0.001205208024    12.000000000000
         C            0.994835863624    -1.265151456630    -0.001204208024    12.000000000000
         C            1.754211863624     0.000039543370    -0.001220208024    12.000000000000
         C           -1.178102136376     2.538753543370    -0.001173208024    12.000000000000
         C           -1.178102136376    -2.538674456630    -0.001169208024    12.000000000000
         H            1.587751863624     2.177916543370    -0.001218208024     1.007825032230
         H            1.587751863624    -2.177837456630    -0.001215208024     1.007825032230
         H           -1.830087136376     2.567971543370     0.876463791976     1.007825032230
         H           -1.710922236376     2.562607343370    -0.718276008024     1.007825032230
         H           -0.535991136376     3.422585543370    -0.001212208024     1.007825032230
         H           -0.535992136376    -3.422506456630    -0.001216208024     1.007825032230
         H           -1.830169136376    -2.567863456630    -0.878746208024     1.007825032230
         H           -1.830080136376    -2.567895456630     0.876472791976     1.007825032230

  Basis Set: AUG-CC-PVTZ
    Blend: AUG-CC-PVTZ
  Basis Set: (AUG-CC-PVTZ AUX)
    Blend: AUG-CC-PVTZ-JKFIT
	 Reference Energy          =    -457.4376016832346181 [Eh]
	 Singles Energy            =      -0.0000000000000000 [Eh]
	 Same-Spin Energy          =      -0.4668331646089908 [Eh]
	 Opposite-Spin Energy      =      -1.4762254730236357 [Eh]
	 Correlation Energy        =      -1.9430586376326264 [Eh]
	 Total Energy              =    -459.3806603208672641 [Eh]

	 ================> DF-SCS-MP2 Energies <==================
	-----------------------------------------------------------
	 SCS Same-Spin Scale       =       0.3333333333333333 [-]
	 SCS Opposite-Spin Scale   =       1.2000000000000000 [-]
	 SCS Same-Spin Energy      =      -0.1556110548696636 [Eh]
	 SCS Opposite-Spin Energy  =      -1.7714705676283629 [Eh]
	 SCS Correlation Energy    =      -1.9270816224980265 [Eh]
	 SCS Total Energy          =    -459.3646833057326262 [Eh]
	-----------------------------------------------------------

  Dipole Moment: [D]
     X:    -1.1376      Y:     0.0116      Z:    -0.0150     Total:     1.1377

*** Psi4 exiting successfully. Buy a developer a beer!
