                               Psi4 1.4a3.dev225

  ==> Input File <==

--------------------------------------------------------------------------
#psi4
#
memory 32 gb

molecule  {
0 1
  O       -2.3098380     0.0000000     0.0000530
  O        3.0303810     0.0000000    -0.0000560
  C       -0.3206930     1.2871930     0.0000000
  C       -0.3208710    -1.2635890     0.0000011
  C       -1.0703170     0.0000000     0.0000210
  C        1.0315930     1.2651910    -0.0000170
  C        1.0315930    -1.2651910    -0.0000160
  C        1.7909690     0.0000000    -0.0000320
  C       -1.1413450     2.5387140     0.0000150
  C       -1.1413450    -2.5387140     0.0000190
  H        1.6245090     2.1778770    -0.0000300
  H        1.6245090    -2.1778770    -0.0000270
  H       -1.7933300     2.5679320     0.8776520
  H       -1.7934040     2.5679060    -0.8775670
  H       -0.4992340     3.4225460    -0.0000240
  H       -0.4992350    -3.4225460    -0.0000280
  H       -1.7934120    -2.5679030    -0.8775580
  H       -1.7933230    -2.5679350     0.8776610
units angstrom
no_reorient  #important for SAPT in psi4, default
symmetry c1  #important for SAPT in psi4, default
}

set PROPERTIES_ORIGIN ["COM"]
properties('MP2/aug-cc-pvtz', properties = ['dipole'])
--------------------------------------------------------------------------

    Molecular point group: c1
  Charge       = 0
  Multiplicity = 1
  Basis Set: AUG-CC-PVTZ
    Blend: AUG-CC-PVTZ
  Basis Set: (AUG-CC-PVTZ AUX)
    Blend: AUG-CC-PVTZ-JKFIT

    Orbital Energies [Eh]
    ---------------------

    Doubly Occupied:

       1A    -20.578198     2A    -20.567255     3A    -11.359542
       4A    -11.352956     5A    -11.287151     6A    -11.286719
       7A    -11.271950     8A    -11.270078     9A    -11.243920
      10A    -11.243192    11A     -1.402607    12A     -1.389360
      13A     -1.162112    14A     -1.101045    15A     -1.005771
      16A     -0.963968    17A     -0.932787    18A     -0.824816
      19A     -0.807619    20A     -0.722800    21A     -0.698182
      22A     -0.655148    23A     -0.618369    24A     -0.614664
      25A     -0.607339    26A     -0.592042    27A     -0.588007
      28A     -0.572300    29A     -0.554973    30A     -0.551190
      31A     -0.547784    32A     -0.533657    33A     -0.459780
      34A     -0.435884    35A     -0.400153    36A     -0.384964

  @DF-RHF Final Energy:  -457.47089256022423

   => Energetics <=

    Nuclear Repulsion Energy =            490.7766877250946891
    One-Electron Energy =               -1595.3186025366478589
    Two-Electron Energy =                 647.0710222513289409
    Total Energy =                       -457.4708925602242289
  Basis Set: (AUG-CC-PVTZ AUX)
    Blend: AUG-CC-PVTZ-RI
    Molecular point group: c1

    Geometry (in Angstrom), charge = 0, multiplicity = 1:

       Center              X                  Y                   Z               Mass
    ------------   -----------------  -----------------  -----------------  -----------------
         O           -2.345696159793    -0.002081903286     0.000053552482    15.994914619570
         O            2.994522840207    -0.002081903286    -0.000055447518    15.994914619570
         C           -0.356551159793     1.285111096714     0.000000552482    12.000000000000
         C           -0.356729159793    -1.265670903286     0.000001652482    12.000000000000
         C           -1.106175159793    -0.002081903286     0.000021552482    12.000000000000
         C            0.995734840207     1.263109096714    -0.000016447518    12.000000000000
         C            0.995734840207    -1.267272903286    -0.000015447518    12.000000000000
         C            1.755110840207    -0.002081903286    -0.000031447518    12.000000000000
         C           -1.177203159793     2.536632096714     0.000015552482    12.000000000000
         C           -1.177203159793    -2.540795903286     0.000019552482    12.000000000000
         H            1.588650840207     2.175795096714    -0.000029447518     1.007825032230
         H            1.588650840207    -2.179958903286    -0.000026447518     1.007825032230
         H           -1.829188159793     2.565850096714     0.877652552482     1.007825032230
         H           -1.829262159793     2.565824096714    -0.877566447518     1.007825032230
         H           -0.535092159793     3.420464096714    -0.000023447518     1.007825032230
         H           -0.535093159793    -3.424627903286    -0.000027447518     1.007825032230
         H           -1.829270159793    -2.569984903286    -0.877557447518     1.007825032230
         H           -1.829181159793    -2.570016903286     0.877661552482     1.007825032230

  Basis Set: AUG-CC-PVTZ
    Blend: AUG-CC-PVTZ
  Basis Set: (AUG-CC-PVTZ AUX)
    Blend: AUG-CC-PVTZ-JKFIT
	 Reference Energy          =    -457.4708925602242289 [Eh]
	 Singles Energy            =      -0.0000000000000000 [Eh]
	 Same-Spin Energy          =      -0.4668585427747171 [Eh]
	 Opposite-Spin Energy      =      -1.4770835288543660 [Eh]
	 Correlation Energy        =      -1.9439420716290832 [Eh]
	 Total Energy              =    -459.4148346318532958 [Eh]

	 ================> DF-SCS-MP2 Energies <==================
	-----------------------------------------------------------
	 SCS Same-Spin Scale       =       0.3333333333333333 [-]
	 SCS Opposite-Spin Scale   =       1.2000000000000000 [-]
	 SCS Same-Spin Energy      =      -0.1556195142582390 [Eh]
	 SCS Opposite-Spin Energy  =      -1.7725002346252392 [Eh]
	 SCS Correlation Energy    =      -1.9281197488834783 [Eh]
	 SCS Total Energy          =    -459.3990123091077180 [Eh]
	-----------------------------------------------------------

  Dipole Moment: [D]
     X:    -1.0811      Y:    -0.0034      Z:     0.0000     Total:     1.0811

*** Psi4 exiting successfully. Buy a developer a beer!
