                               Psi4 1.4a3.dev225

  ==> Input File <==

--------------------------------------------------------------------------
#psi4
#
memory 32 gb

molecule  {
0 1
  O       -2.3098380     0.0000000     0.0000530
  O        3.0303810     0.0000000    -0.0000560
  C       -0.3206930     1.2871930     0.0000000
  C       -0.3206930    -1.2871930     0.0000010
  C       -1.0703170     0.0000000     0.0000210
  C        1.0315930     1.2651910    -0.0000170
  C        1.0315930    -1.2651910    -0.0000160
  C        1.7909690     0.0000000    -0.0000320
  C       -1.1413450     2.5387140     0.0000150
  C       -1.1413450    -2.5387140     0.0000190
  H        1.6245090     2.1778770    -0.0000300
  H        1.6245090    -2.1778770    -0.0000270
  H       -1.7933300     2.5679320     0.8776520
  H       -1.7934040     2.5679060    -0.8775670
  H       -0.4992340     3.4225460    -0.0000240
  H       -0.4992350    -3.4225460    -0.0000280
  H       -1.6741717    -2.5625654    -0.7170798
  H       -1.7933230    -2.5679350     0.8776610
units angstrom
no_reorient  #important for SAPT in psi4, default
symmetry c1  #important for SAPT in psi4, default
}

set PROPERTIES_ORIGIN ["COM"]
properties('MP2/aug-cc-pvtz', properties = ['dipole'])
--------------------------------------------------------------------------

    Molecular point group: c1
  Charge       = 0
  Multiplicity = 1
  Basis Set: AUG-CC-PVTZ
    Blend: AUG-CC-PVTZ
  Basis Set: (AUG-CC-PVTZ AUX)
    Blend: AUG-CC-PVTZ-JKFIT

    Orbital Energies [Eh]
    ---------------------

    Doubly Occupied:

       1A    -20.578279     2A    -20.566765     3A    -11.360695
       4A    -11.352955     5A    -11.287468     6A    -11.286502
       7A    -11.270284     8A    -11.269878     9A    -11.243386
      10A    -11.219780    11A     -1.402428    12A     -1.388930
      13A     -1.161271    14A     -1.105274    15A     -1.016978
      16A     -0.972968    17A     -0.932997    18A     -0.827624
      19A     -0.809762    20A     -0.722417    21A     -0.697611
      22A     -0.658375    23A     -0.634832    24A     -0.613904
      25A     -0.608835    26A     -0.599934    27A     -0.592961
      28A     -0.576107    29A     -0.559361    30A     -0.552350
      31A     -0.549054    32A     -0.535240    33A     -0.458533
      34A     -0.435718    35A     -0.400097    36A     -0.385521

  @DF-RHF Final Energy:  -457.43760197540308

   => Energetics <=

    Nuclear Repulsion Energy =            491.5270443180858706
    One-Electron Energy =               -1596.6591440263200639
    Two-Electron Energy =                 647.6944977328309960
    Total Energy =                       -457.4376019754031404
  Basis Set: (AUG-CC-PVTZ AUX)
    Blend: AUG-CC-PVTZ-RI
    Molecular point group: c1

    Geometry (in Angstrom), charge = 0, multiplicity = 1:

       Center              X                  Y                   Z               Mass
    ------------   -----------------  -----------------  -----------------  -----------------
         O           -2.346595146747    -0.000039538926    -0.001135200616    15.994914619570
         O            2.993623853253    -0.000039538926    -0.001244200616    15.994914619570
         C           -0.357450146747     1.287153461074    -0.001188200616    12.000000000000
         C           -0.357450146747    -1.287232538926    -0.001187200616    12.000000000000
         C           -1.107074146747    -0.000039538926    -0.001167200616    12.000000000000
         C            0.994835853253     1.265151461074    -0.001205200616    12.000000000000
         C            0.994835853253    -1.265230538926    -0.001204200616    12.000000000000
         C            1.754211853253    -0.000039538926    -0.001220200616    12.000000000000
         C           -1.178102146747     2.538674461074    -0.001173200616    12.000000000000
         C           -1.178102146747    -2.538753538926    -0.001169200616    12.000000000000
         H            1.587751853253     2.177837461074    -0.001218200616     1.007825032230
         H            1.587751853253    -2.177916538926    -0.001215200616     1.007825032230
         H           -1.830087146747     2.567892461074     0.876463799384     1.007825032230
         H           -1.830161146747     2.567866461074    -0.878755200616     1.007825032230
         H           -0.535991146747     3.422506461074    -0.001212200616     1.007825032230
         H           -0.535992146747    -3.422585538926    -0.001216200616     1.007825032230
         H           -1.710928846747    -2.562604938926    -0.718268000616     1.007825032230
         H           -1.830080146747    -2.567974538926     0.876472799384     1.007825032230

  Basis Set: AUG-CC-PVTZ
    Blend: AUG-CC-PVTZ
  Basis Set: (AUG-CC-PVTZ AUX)
    Blend: AUG-CC-PVTZ-JKFIT
	 Reference Energy          =    -457.4376019754030835 [Eh]
	 Singles Energy            =      -0.0000000000000000 [Eh]
	 Same-Spin Energy          =      -0.4668331620548500 [Eh]
	 Opposite-Spin Energy      =      -1.4762254662948335 [Eh]
	 Correlation Energy        =      -1.9430586283496836 [Eh]
	 Total Energy              =    -459.3806606037527445 [Eh]

	 ================> DF-SCS-MP2 Energies <==================
	-----------------------------------------------------------
	 SCS Same-Spin Scale       =       0.3333333333333333 [-]
	 SCS Opposite-Spin Scale   =       1.2000000000000000 [-]
	 SCS Same-Spin Energy      =      -0.1556110540182833 [Eh]
	 SCS Opposite-Spin Energy  =      -1.7714705595538003 [Eh]
	 SCS Correlation Energy    =      -1.9270816135720836 [Eh]
	 SCS Total Energy          =    -459.3646835889751401 [Eh]
	-----------------------------------------------------------

  Dipole Moment: [D]
     X:    -1.1376      Y:    -0.0116      Z:    -0.0150     Total:     1.1377

*** Psi4 exiting successfully. Buy a developer a beer!
