                               Psi4 1.4a3.dev225

  ==> Input File <==

--------------------------------------------------------------------------
#psi4
#
memory 32 gb

molecule  {
0 1
  O       -2.3098380     0.0000000     0.0000530
  O        3.0303810     0.0000000    -0.0000560
  C       -0.3206930     1.2871930     0.0000000
  C       -0.3206930    -1.2871930     0.0000010
  C       -1.0703170     0.0000000     0.0000210
  C        1.0315930     1.2651910    -0.0000170
  C        1.0315930    -1.2651910    -0.0000160
  C        1.7909690     0.0000000    -0.0000320
  C       -1.2510148     2.7059639     0.0000170
  C       -1.1413450    -2.5387140     0.0000190
  H        1.6245090     2.1778770    -0.0000300
  H        1.6245090    -2.1778770    -0.0000270
  H       -1.7933300     2.5679320     0.8776520
  H       -1.7934040     2.5679060    -0.8775670
  H       -0.4992340     3.4225460    -0.0000240
  H       -0.4992350    -3.4225460    -0.0000280
  H       -1.7934120    -2.5679030    -0.8775580
  H       -1.7933230    -2.5679350     0.8776610
units angstrom
no_reorient  #important for SAPT in psi4, default
symmetry c1  #important for SAPT in psi4, default
}

set PROPERTIES_ORIGIN ["COM"]
properties('MP2/aug-cc-pvtz', properties = ['dipole'])
--------------------------------------------------------------------------

    Molecular point group: c1
  Charge       = 0
  Multiplicity = 1
  Basis Set: AUG-CC-PVTZ
    Blend: AUG-CC-PVTZ
  Basis Set: (AUG-CC-PVTZ AUX)
    Blend: AUG-CC-PVTZ-JKFIT

    Orbital Energies [Eh]
    ---------------------

    Doubly Occupied:

       1A    -20.576642     2A    -20.566234     3A    -11.359758
       4A    -11.352656     5A    -11.290458     6A    -11.286864
       7A    -11.269603     8A    -11.269408     9A    -11.246740
      10A    -11.242888    11A     -1.400400    12A     -1.388423
      13A     -1.155742    14A     -1.090182    15A     -1.001176
      16A     -0.966524    17A     -0.931432    18A     -0.824088
      19A     -0.805948    20A     -0.718267    21A     -0.696082
      22A     -0.650963    23A     -0.624085    24A     -0.616887
      25A     -0.606508    26A     -0.601335    27A     -0.595921
      28A     -0.569832    29A     -0.560478    30A     -0.558837
      31A     -0.535943    32A     -0.516282    33A     -0.457566
      34A     -0.426583    35A     -0.400214    36A     -0.386350

  @DF-RHF Final Energy:  -457.44475519531915

   => Energetics <=

    Nuclear Repulsion Energy =            487.0750857591281147
    One-Electron Energy =               -1587.9450857122162688
    Two-Electron Energy =                 643.4252447577690646
    Total Energy =                       -457.4447551953190896
  Basis Set: (AUG-CC-PVTZ AUX)
    Blend: AUG-CC-PVTZ-RI
    Molecular point group: c1

    Geometry (in Angstrom), charge = 0, multiplicity = 1:

       Center              X                  Y                   Z               Mass
    ------------   -----------------  -----------------  -----------------  -----------------
         O           -2.336038841619    -0.014751657191     0.000053384900    15.994914619570
         O            3.004180158381    -0.014751657191    -0.000055615100    15.994914619570
         C           -0.346893841619     1.272441342809     0.000000384900    12.000000000000
         C           -0.346893841619    -1.301944657191     0.000001384900    12.000000000000
         C           -1.096517841619    -0.014751657191     0.000021384900    12.000000000000
         C            1.005392158381     1.250439342809    -0.000016615100    12.000000000000
         C            1.005392158381    -1.279942657191    -0.000015615100    12.000000000000
         C            1.764768158381    -0.014751657191    -0.000031615100    12.000000000000
         C           -1.277215641619     2.691212242809     0.000017384900    12.000000000000
         C           -1.167545841619    -2.553465657191     0.000019384900    12.000000000000
         H            1.598308158381     2.163125342809    -0.000029615100     1.007825032230
         H            1.598308158381    -2.192628657191    -0.000026615100     1.007825032230
         H           -1.819530841619     2.553180342809     0.877652384900     1.007825032230
         H           -1.819604841619     2.553154342809    -0.877566615100     1.007825032230
         H           -0.525434841619     3.407794342809    -0.000023615100     1.007825032230
         H           -0.525435841619    -3.437297657191    -0.000027615100     1.007825032230
         H           -1.819612841619    -2.582654657191    -0.877557615100     1.007825032230
         H           -1.819523841619    -2.582686657191     0.877661384900     1.007825032230

  Basis Set: AUG-CC-PVTZ
    Blend: AUG-CC-PVTZ
  Basis Set: (AUG-CC-PVTZ AUX)
    Blend: AUG-CC-PVTZ-JKFIT
	 Reference Energy          =    -457.4447551953191464 [Eh]
	 Singles Energy            =      -0.0000000000000000 [Eh]
	 Same-Spin Energy          =      -0.4663164417006233 [Eh]
	 Opposite-Spin Energy      =      -1.4775515159769208 [Eh]
	 Correlation Energy        =      -1.9438679576775439 [Eh]
	 Total Energy              =    -459.3886231529966722 [Eh]

	 ================> DF-SCS-MP2 Energies <==================
	-----------------------------------------------------------
	 SCS Same-Spin Scale       =       0.3333333333333333 [-]
	 SCS Opposite-Spin Scale   =       1.2000000000000000 [-]
	 SCS Same-Spin Energy      =      -0.1554388139002078 [Eh]
	 SCS Opposite-Spin Energy  =      -1.7730618191723049 [Eh]
	 SCS Correlation Energy    =      -1.9285006330725125 [Eh]
	 SCS Total Energy          =    -459.3732558283916774 [Eh]
	-----------------------------------------------------------

  Dipole Moment: [D]
     X:    -1.0513      Y:    -0.0583      Z:     0.0000     Total:     1.0529

*** Psi4 exiting successfully. Buy a developer a beer!
