                               Psi4 1.4a3.dev225

  ==> Input File <==

--------------------------------------------------------------------------
#psi4
#
memory 32 gb

molecule  {
0 1
  O       -2.3098380     0.0000000     0.0000530
  O        3.0303810     0.0000000    -0.0000560
  C       -0.3206930     1.2871930     0.0000000
  C       -0.3206930    -1.2871930     0.0000010
  C       -1.1582810    -0.0554267     0.0000217
  C        1.0315930     1.2651910    -0.0000170
  C        1.0315930    -1.2651910    -0.0000160
  C        1.7909690     0.0000000    -0.0000320
  C       -1.1413450     2.5387140     0.0000150
  C       -1.1413450    -2.5387140     0.0000190
  H        1.6245090     2.1778770    -0.0000300
  H        1.6245090    -2.1778770    -0.0000270
  H       -1.7933300     2.5679320     0.8776520
  H       -1.7934040     2.5679060    -0.8775670
  H       -0.4992340     3.4225460    -0.0000240
  H       -0.4992350    -3.4225460    -0.0000280
  H       -1.7934120    -2.5679030    -0.8775580
  H       -1.7933230    -2.5679350     0.8776610
units angstrom
no_reorient  #important for SAPT in psi4, default
symmetry c1  #important for SAPT in psi4, default
}

set PROPERTIES_ORIGIN ["COM"]
properties('MP2/aug-cc-pvtz', properties = ['dipole'])
--------------------------------------------------------------------------

    Molecular point group: c1
  Charge       = 0
  Multiplicity = 1
  Basis Set: AUG-CC-PVTZ
    Blend: AUG-CC-PVTZ
  Basis Set: (AUG-CC-PVTZ AUX)
    Blend: AUG-CC-PVTZ-JKFIT

    Orbital Energies [Eh]
    ---------------------

    Doubly Occupied:

       1A    -20.585741     2A    -20.560778     3A    -11.358683
       4A    -11.348371     5A    -11.284815     6A    -11.284282
       7A    -11.271295     8A    -11.259447     9A    -11.243021
      10A    -11.240907    11A     -1.465067    12A     -1.383842
      13A     -1.152352    14A     -1.095959    15A     -1.005661
      16A     -0.962576    17A     -0.917288    18A     -0.815154
      19A     -0.802822    20A     -0.724910    21A     -0.711859
      22A     -0.656335    23A     -0.628184    24A     -0.622546
      25A     -0.603629    26A     -0.588604    27A     -0.587899
      28A     -0.576675    29A     -0.560902    30A     -0.556575
      31A     -0.552719    32A     -0.550414    33A     -0.450309
      34A     -0.420684    35A     -0.400440    36A     -0.380010

  @DF-RHF Final Energy:  -457.46689520709572

   => Energetics <=

    Nuclear Repulsion Energy =            490.5313889915834125
    One-Electron Energy =               -1594.7750572768691200
    Two-Electron Energy =                 646.7767730781901037
    Total Energy =                       -457.4668952070957175
  Basis Set: (AUG-CC-PVTZ AUX)
    Blend: AUG-CC-PVTZ-RI
    Molecular point group: c1

    Geometry (in Angstrom), charge = 0, multiplicity = 1:

       Center              X                  Y                   Z               Mass
    ------------   -----------------  -----------------  -----------------  -----------------
         O           -2.337953321213     0.004888706526     0.000053499562    15.994914619570
         O            3.002265678787     0.004888706526    -0.000055500438    15.994914619570
         C           -0.348808321213     1.292081706526     0.000000499562    12.000000000000
         C           -0.348808321213    -1.282304293474     0.000001499562    12.000000000000
         C           -1.186396321213    -0.050537993474     0.000022199562    12.000000000000
         C            1.003477678787     1.270079706526    -0.000016500438    12.000000000000
         C            1.003477678787    -1.260302293474    -0.000015500438    12.000000000000
         C            1.762853678787     0.004888706526    -0.000031500438    12.000000000000
         C           -1.169460321213     2.543602706526     0.000015499562    12.000000000000
         C           -1.169460321213    -2.533825293474     0.000019499562    12.000000000000
         H            1.596393678787     2.182765706526    -0.000029500438     1.007825032230
         H            1.596393678787    -2.172988293474    -0.000026500438     1.007825032230
         H           -1.821445321213     2.572820706526     0.877652499562     1.007825032230
         H           -1.821519321213     2.572794706526    -0.877566500438     1.007825032230
         H           -0.527349321213     3.427434706526    -0.000023500438     1.007825032230
         H           -0.527350321213    -3.417657293474    -0.000027500438     1.007825032230
         H           -1.821527321213    -2.563014293474    -0.877557500438     1.007825032230
         H           -1.821438321213    -2.563046293474     0.877661499562     1.007825032230

  Basis Set: AUG-CC-PVTZ
    Blend: AUG-CC-PVTZ
  Basis Set: (AUG-CC-PVTZ AUX)
    Blend: AUG-CC-PVTZ-JKFIT
	 Reference Energy          =    -457.4668952070957175 [Eh]
	 Singles Energy            =      -0.0000000000000000 [Eh]
	 Same-Spin Energy          =      -0.4640647831179753 [Eh]
	 Opposite-Spin Energy      =      -1.4711113320013642 [Eh]
	 Correlation Energy        =      -1.9351761151193396 [Eh]
	 Total Energy              =    -459.4020713222150789 [Eh]

	 ================> DF-SCS-MP2 Energies <==================
	-----------------------------------------------------------
	 SCS Same-Spin Scale       =       0.3333333333333333 [-]
	 SCS Opposite-Spin Scale   =       1.2000000000000000 [-]
	 SCS Same-Spin Energy      =      -0.1546882610393251 [Eh]
	 SCS Opposite-Spin Energy  =      -1.7653335984016369 [Eh]
	 SCS Correlation Energy    =      -1.9200218594409622 [Eh]
	 SCS Total Energy          =    -459.3869170665366823 [Eh]
	-----------------------------------------------------------

  Dipole Moment: [D]
     X:    -1.6005      Y:    -0.2391      Z:     0.0000     Total:     1.6183

*** Psi4 exiting successfully. Buy a developer a beer!
