                               Psi4 1.4a3.dev225

  ==> Input File <==

--------------------------------------------------------------------------
#psi4
#
memory 32 gb

molecule  {
0 1
  O       -2.3098380     0.0000000     0.0000530
  O        3.0303810     0.0000000    -0.0000560
  C       -0.3206930     1.2871930     0.0000000
  C       -0.3206930    -1.2871930     0.0000010
  C       -0.9787009     0.0491556     0.0000202
  C        1.0315930     1.2651910    -0.0000170
  C        1.0315930    -1.2651910    -0.0000160
  C        1.7909690     0.0000000    -0.0000320
  C       -1.1413450     2.5387140     0.0000150
  C       -1.1413450    -2.5387140     0.0000190
  H        1.6245090     2.1778770    -0.0000300
  H        1.6245090    -2.1778770    -0.0000270
  H       -1.7933300     2.5679320     0.8776520
  H       -1.7934040     2.5679060    -0.8775670
  H       -0.4992340     3.4225460    -0.0000240
  H       -0.4992350    -3.4225460    -0.0000280
  H       -1.7934120    -2.5679030    -0.8775580
  H       -1.7933230    -2.5679350     0.8776610
units angstrom
no_reorient  #important for SAPT in psi4, default
symmetry c1  #important for SAPT in psi4, default
}

set PROPERTIES_ORIGIN ["COM"]
properties('MP2/aug-cc-pvtz', properties = ['dipole'])
--------------------------------------------------------------------------

    Molecular point group: c1
  Charge       = 0
  Multiplicity = 1
  Basis Set: AUG-CC-PVTZ
    Blend: AUG-CC-PVTZ
  Basis Set: (AUG-CC-PVTZ AUX)
    Blend: AUG-CC-PVTZ-JKFIT

    Orbital Energies [Eh]
    ---------------------

    Doubly Occupied:

       1A    -20.573632     2A    -20.569352     3A    -11.361726
       4A    -11.358231     5A    -11.291721     6A    -11.286228
       7A    -11.281592     8A    -11.269924     9A    -11.245180
      10A    -11.244341    11A     -1.395164    12A     -1.346177
      13A     -1.171138    14A     -1.108474    15A     -1.009263
      16A     -0.967265    17A     -0.943343    18A     -0.833628
      19A     -0.811017    20A     -0.722393    21A     -0.691016
      22A     -0.655401    23A     -0.616864    24A     -0.611639
      25A     -0.601152    26A     -0.593253    27A     -0.589336
      28A     -0.574536    29A     -0.558656    30A     -0.548887
      31A     -0.540836    32A     -0.509923    33A     -0.460410
      34A     -0.444689    35A     -0.395348    36A     -0.388176

  @DF-RHF Final Energy:  -457.44449335367796

   => Energetics <=

    Nuclear Repulsion Energy =            490.7662495660861737
    One-Electron Energy =               -1595.2816668550067334
    Two-Electron Energy =                 647.0709239352426039
    Total Energy =                       -457.4444933536780127
  Basis Set: (AUG-CC-PVTZ AUX)
    Blend: AUG-CC-PVTZ-RI
    Molecular point group: c1

    Geometry (in Angstrom), charge = 0, multiplicity = 1:

       Center              X                  Y                   Z               Mass
    ------------   -----------------  -----------------  -----------------  -----------------
         O           -2.353792517969    -0.004335587407     0.000053631864    15.994914619570
         O            2.986426482031    -0.004335587407    -0.000055368136    15.994914619570
         C           -0.364647517969     1.282857412593     0.000000631864    12.000000000000
         C           -0.364647517969    -1.291528587407     0.000001631864    12.000000000000
         C           -1.022655417969     0.044820012593     0.000020831864    12.000000000000
         C            0.987638482031     1.260855412593    -0.000016368136    12.000000000000
         C            0.987638482031    -1.269526587407    -0.000015368136    12.000000000000
         C            1.747014482031    -0.004335587407    -0.000031368136    12.000000000000
         C           -1.185299517969     2.534378412593     0.000015631864    12.000000000000
         C           -1.185299517969    -2.543049587407     0.000019631864    12.000000000000
         H            1.580554482031     2.173541412593    -0.000029368136     1.007825032230
         H            1.580554482031    -2.182212587407    -0.000026368136     1.007825032230
         H           -1.837284517969     2.563596412593     0.877652631864     1.007825032230
         H           -1.837358517969     2.563570412593    -0.877566368136     1.007825032230
         H           -0.543188517969     3.418210412593    -0.000023368136     1.007825032230
         H           -0.543189517969    -3.426881587407    -0.000027368136     1.007825032230
         H           -1.837366517969    -2.572238587407    -0.877557368136     1.007825032230
         H           -1.837277517969    -2.572270587407     0.877661631864     1.007825032230

  Basis Set: AUG-CC-PVTZ
    Blend: AUG-CC-PVTZ
  Basis Set: (AUG-CC-PVTZ AUX)
    Blend: AUG-CC-PVTZ-JKFIT
	 Reference Energy          =    -457.4444933536779558 [Eh]
	 Singles Energy            =      -0.0000000000000000 [Eh]
	 Same-Spin Energy          =      -0.4710258043104175 [Eh]
	 Opposite-Spin Energy      =      -1.4853337835756091 [Eh]
	 Correlation Energy        =      -1.9563595878860265 [Eh]
	 Total Energy              =    -459.4008529415639828 [Eh]

	 ================> DF-SCS-MP2 Energies <==================
	-----------------------------------------------------------
	 SCS Same-Spin Scale       =       0.3333333333333333 [-]
	 SCS Opposite-Spin Scale   =       1.2000000000000000 [-]
	 SCS Same-Spin Energy      =      -0.1570086014368058 [Eh]
	 SCS Opposite-Spin Energy  =      -1.7824005402907308 [Eh]
	 SCS Correlation Energy    =      -1.9394091417275365 [Eh]
	 SCS Total Energy          =    -459.3839024954054935 [Eh]
	-----------------------------------------------------------

  Dipole Moment: [D]
     X:    -0.8540      Y:     0.1623      Z:     0.0000     Total:     0.8692

*** Psi4 exiting successfully. Buy a developer a beer!
