                               Psi4 1.4a3.dev225

  ==> Input File <==

--------------------------------------------------------------------------
#psi4
#
memory 32 gb

molecule  {
0 1
  O       -2.3098380     0.0000000     0.0000530
  O        3.0303810     0.0000000    -0.0000560
  C       -0.3206930     1.2871930     0.0000000
  C       -0.3206930    -1.2871930     0.0000010
  C       -1.0703170     0.0000000     0.0000210
  C        1.1315798     1.2635642    -0.0000183
  C        1.0315930    -1.2651910    -0.0000160
  C        1.7909690     0.0000000    -0.0000320
  C       -1.1413450     2.5387140     0.0000150
  C       -1.1413450    -2.5387140     0.0000190
  H        1.6245090     2.1778770    -0.0000300
  H        1.6245090    -2.1778770    -0.0000270
  H       -1.7933300     2.5679320     0.8776520
  H       -1.7934040     2.5679060    -0.8775670
  H       -0.4992340     3.4225460    -0.0000240
  H       -0.4992350    -3.4225460    -0.0000280
  H       -1.7934120    -2.5679030    -0.8775580
  H       -1.7933230    -2.5679350     0.8776610
units angstrom
no_reorient  #important for SAPT in psi4, default
symmetry c1  #important for SAPT in psi4, default
}

set PROPERTIES_ORIGIN ["COM"]
properties('MP2/aug-cc-pvtz', properties = ['dipole'])
--------------------------------------------------------------------------

    Molecular point group: c1
  Charge       = 0
  Multiplicity = 1
  Basis Set: AUG-CC-PVTZ
    Blend: AUG-CC-PVTZ
  Basis Set: (AUG-CC-PVTZ AUX)
    Blend: AUG-CC-PVTZ-JKFIT

    Orbital Energies [Eh]
    ---------------------

    Doubly Occupied:

       1A    -20.579440     2A    -20.561562     3A    -11.361680
       4A    -11.347171     5A    -11.303861     6A    -11.286666
       7A    -11.274596     8A    -11.271244     9A    -11.246553
      10A    -11.243089    11A     -1.403277    12A     -1.388316
      13A     -1.154043    14A     -1.094865    15A     -1.011436
      16A     -0.966956    17A     -0.931928    18A     -0.826579
      19A     -0.803510    20A     -0.720470    21A     -0.700989
      22A     -0.653352    23A     -0.622551    24A     -0.617618
      25A     -0.609850    26A     -0.591974    27A     -0.589529
      28A     -0.577161    29A     -0.555760    30A     -0.550258
      31A     -0.544905    32A     -0.534186    33A     -0.455311
      34A     -0.441662    35A     -0.394694    36A     -0.369350

  @DF-RHF Final Energy:  -457.45293925412608

   => Energetics <=

    Nuclear Repulsion Energy =            489.6140483789592395
    One-Electron Energy =               -1592.9611900444131152
    Two-Electron Energy =                 645.8942024113276830
    Total Energy =                       -457.4529392541261359
  Basis Set: (AUG-CC-PVTZ AUX)
    Blend: AUG-CC-PVTZ-RI
    Molecular point group: c1

    Geometry (in Angstrom), charge = 0, multiplicity = 1:

       Center              X                  Y                   Z               Mass
    ------------   -----------------  -----------------  -----------------  -----------------
         O           -2.354530824520     0.000143485861     0.000053675964    15.994914619570
         O            2.985688175480     0.000143485861    -0.000055324036    15.994914619570
         C           -0.365385824520     1.287336485861     0.000000675964    12.000000000000
         C           -0.365385824520    -1.287049514139     0.000001675964    12.000000000000
         C           -1.115009824520     0.000143485861     0.000021675964    12.000000000000
         C            1.086886975480     1.263707685861    -0.000017624036    12.000000000000
         C            0.986900175480    -1.265047514139    -0.000015324036    12.000000000000
         C            1.746276175480     0.000143485861    -0.000031324036    12.000000000000
         C           -1.186037824520     2.538857485861     0.000015675964    12.000000000000
         C           -1.186037824520    -2.538570514139     0.000019675964    12.000000000000
         H            1.579816175480     2.178020485861    -0.000029324036     1.007825032230
         H            1.579816175480    -2.177733514139    -0.000026324036     1.007825032230
         H           -1.838022824520     2.568075485861     0.877652675964     1.007825032230
         H           -1.838096824520     2.568049485861    -0.877566324036     1.007825032230
         H           -0.543926824520     3.422689485861    -0.000023324036     1.007825032230
         H           -0.543927824520    -3.422402514139    -0.000027324036     1.007825032230
         H           -1.838104824520    -2.567759514139    -0.877557324036     1.007825032230
         H           -1.838015824520    -2.567791514139     0.877661675964     1.007825032230

  Basis Set: AUG-CC-PVTZ
    Blend: AUG-CC-PVTZ
  Basis Set: (AUG-CC-PVTZ AUX)
    Blend: AUG-CC-PVTZ-JKFIT
	 Reference Energy          =    -457.4529392541260790 [Eh]
	 Singles Energy            =      -0.0000000000000000 [Eh]
	 Same-Spin Energy          =      -0.4687266325625044 [Eh]
	 Opposite-Spin Energy      =      -1.4806131188153215 [Eh]
	 Correlation Energy        =      -1.9493397513778259 [Eh]
	 Total Energy              =    -459.4022790055038854 [Eh]

	 ================> DF-SCS-MP2 Energies <==================
	-----------------------------------------------------------
	 SCS Same-Spin Scale       =       0.3333333333333333 [-]
	 SCS Opposite-Spin Scale   =       1.2000000000000000 [-]
	 SCS Same-Spin Energy      =      -0.1562422108541681 [Eh]
	 SCS Opposite-Spin Energy  =      -1.7767357425783858 [Eh]
	 SCS Correlation Energy    =      -1.9329779534325540 [Eh]
	 SCS Total Energy          =    -459.3859172075586343 [Eh]
	-----------------------------------------------------------

  Dipole Moment: [D]
     X:    -1.1724      Y:     0.1425      Z:     0.0000     Total:     1.1810

*** Psi4 exiting successfully. Buy a developer a beer!
