                               Psi4 1.4a3.dev225

  ==> Input File <==

--------------------------------------------------------------------------
#psi4
#
memory 32 gb

molecule  {
0 1
  O       -2.3098380     0.0000000     0.0000530
  O        3.0303810     0.0000000    -0.0000560
  C       -0.3206930     1.2871930     0.0000000
  C       -0.3206930    -1.2871930     0.0000010
  C       -1.0703170     0.0000000     0.0000210
  C        1.0315930     1.2651910    -0.0000170
  C        1.0315930    -1.2651910    -0.0000160
  C        1.7909690     0.0000000    -0.0000320
  C       -1.1413450     2.5387140     0.0000150
  C       -1.1413450    -2.5387140     0.0000190
  H        1.6245090     2.1778770    -0.0000300
  H        1.6245090    -2.1778770    -0.0000270
  H       -1.7933300     2.5679320     0.8776520
  H       -1.7934040     2.5679060    -0.8775670
  H       -0.3816806     3.5843521    -0.0000311
  H       -0.4992350    -3.4225460    -0.0000280
  H       -1.7934120    -2.5679030    -0.8775580
  H       -1.7933230    -2.5679350     0.8776610
units angstrom
no_reorient  #important for SAPT in psi4, default
symmetry c1  #important for SAPT in psi4, default
}

set PROPERTIES_ORIGIN ["COM"]
properties('MP2/aug-cc-pvtz', properties = ['dipole'])
--------------------------------------------------------------------------

    Molecular point group: c1
  Charge       = 0
  Multiplicity = 1
  Basis Set: AUG-CC-PVTZ
    Blend: AUG-CC-PVTZ
  Basis Set: (AUG-CC-PVTZ AUX)
    Blend: AUG-CC-PVTZ-JKFIT

    Orbital Energies [Eh]
    ---------------------

    Doubly Occupied:

       1A    -20.579212     2A    -20.567803     3A    -11.362394
       4A    -11.353795     5A    -11.289140     6A    -11.288465
       7A    -11.271257     8A    -11.271145     9A    -11.265680
      10A    -11.244118    11A     -1.403542    12A     -1.389837
      13A     -1.161419    14A     -1.101729    15A     -1.004953
      16A     -0.962405    17A     -0.926880    18A     -0.819600
      19A     -0.808533    20A     -0.721323    21A     -0.698125
      22A     -0.655866    23A     -0.620106    24A     -0.613272
      25A     -0.608126    26A     -0.591278    27A     -0.587601
      28A     -0.573659    29A     -0.555909    30A     -0.551691
      31A     -0.534872    32A     -0.517142    33A     -0.458842
      34A     -0.436773    35A     -0.400588    36A     -0.385522

  @DF-RHF Final Energy:  -457.45100720954861

   => Energetics <=

    Nuclear Repulsion Energy =            489.7249123936359751
    One-Electron Energy =               -1593.1866318551606128
    Two-Electron Energy =                 646.0107122519759741
    Total Energy =                       -457.4510072095486066
  Basis Set: (AUG-CC-PVTZ AUX)
    Blend: AUG-CC-PVTZ-RI
    Molecular point group: c1

    Geometry (in Angstrom), charge = 0, multiplicity = 1:

       Center              X                  Y                   Z               Mass
    ------------   -----------------  -----------------  -----------------  -----------------
         O           -2.346582650828    -0.001198598500     0.000053613897    15.994914619570
         O            2.993636349172    -0.001198598500    -0.000055386103    15.994914619570
         C           -0.357437650828     1.285994401500     0.000000613897    12.000000000000
         C           -0.357437650828    -1.288391598500     0.000001613897    12.000000000000
         C           -1.107061650828    -0.001198598500     0.000021613897    12.000000000000
         C            0.994848349172     1.263992401500    -0.000016386103    12.000000000000
         C            0.994848349172    -1.266389598500    -0.000015386103    12.000000000000
         C            1.754224349172    -0.001198598500    -0.000031386103    12.000000000000
         C           -1.178089650828     2.537515401500     0.000015613897    12.000000000000
         C           -1.178089650828    -2.539912598500     0.000019613897    12.000000000000
         H            1.587764349172     2.176678401500    -0.000029386103     1.007825032230
         H            1.587764349172    -2.179075598500    -0.000026386103     1.007825032230
         H           -1.830074650828     2.566733401500     0.877652613897     1.007825032230
         H           -1.830148650828     2.566707401500    -0.877566386103     1.007825032230
         H           -0.418425250828     3.583153501500    -0.000030486103     1.007825032230
         H           -0.535979650828    -3.423744598500    -0.000027386103     1.007825032230
         H           -1.830156650828    -2.569101598500    -0.877557386103     1.007825032230
         H           -1.830067650828    -2.569133598500     0.877661613897     1.007825032230

  Basis Set: AUG-CC-PVTZ
    Blend: AUG-CC-PVTZ
  Basis Set: (AUG-CC-PVTZ AUX)
    Blend: AUG-CC-PVTZ-JKFIT
	 Reference Energy          =    -457.4510072095486066 [Eh]
	 Singles Energy            =      -0.0000000000000000 [Eh]
	 Same-Spin Energy          =      -0.4669210066520591 [Eh]
	 Opposite-Spin Energy      =      -1.4787514761044105 [Eh]
	 Correlation Energy        =      -1.9456724827564695 [Eh]
	 Total Energy              =    -459.3966796923050993 [Eh]

	 ================> DF-SCS-MP2 Energies <==================
	-----------------------------------------------------------
	 SCS Same-Spin Scale       =       0.3333333333333333 [-]
	 SCS Opposite-Spin Scale   =       1.2000000000000000 [-]
	 SCS Same-Spin Energy      =      -0.1556403355506863 [Eh]
	 SCS Opposite-Spin Energy  =      -1.7745017713252926 [Eh]
	 SCS Correlation Energy    =      -1.9301421068759790 [Eh]
	 SCS Total Energy          =    -459.3811493164245690 [Eh]
	-----------------------------------------------------------

  Dipole Moment: [D]
     X:    -1.1544      Y:    -0.1302      Z:     0.0000     Total:     1.1617

*** Psi4 exiting successfully. Buy a developer a beer!
