                               Psi4 1.4a3.dev225

  ==> Input File <==

--------------------------------------------------------------------------
#psi4
#
memory 32 gb

molecule  {
0 1
  O       -2.3098380     0.0000000     0.0000530
  O        3.0303810     0.0000000    -0.0000560
  C       -0.3206930     1.2871930     0.0000000
  C       -0.3206930    -1.2871930     0.0000010
  C       -1.1203170     0.0000000     0.0000223
  C        1.0315930     1.2651910    -0.0000170
  C        1.0315930    -1.2651910    -0.0000160
  C        1.7909690     0.0000000    -0.0000320
  C       -1.1413450     2.5387140     0.0000150
  C       -1.1413450    -2.5387140     0.0000190
  H        1.6245090     2.1778770    -0.0000300
  H        1.6245090    -2.1778770    -0.0000270
  H       -1.7933300     2.5679320     0.8776520
  H       -1.7934040     2.5679060    -0.8775670
  H       -0.4992340     3.4225460    -0.0000240
  H       -0.4992350    -3.4225460    -0.0000280
  H       -1.7934120    -2.5679030    -0.8775580
  H       -1.7933230    -2.5679350     0.8776610
units angstrom
no_reorient  #important for SAPT in psi4, default
symmetry c1  #important for SAPT in psi4, default
}

set PROPERTIES_ORIGIN ["COM"]
properties('MP2/aug-cc-pvtz', properties = ['dipole'])
--------------------------------------------------------------------------

    Molecular point group: c1
  Charge       = 0
  Multiplicity = 1
  Basis Set: AUG-CC-PVTZ
    Blend: AUG-CC-PVTZ
  Basis Set: (AUG-CC-PVTZ AUX)
    Blend: AUG-CC-PVTZ-JKFIT

    Orbital Energies [Eh]
    ---------------------

    Doubly Occupied:

       1A    -20.582271     2A    -20.563370     3A    -11.359343
       4A    -11.350472     5A    -11.286197     6A    -11.286173
       7A    -11.267447     8A    -11.267424     9A    -11.242607
      10A    -11.242607    11A     -1.437038    12A     -1.386117
      13A     -1.155391    14A     -1.098898    15A     -1.006187
      16A     -0.963681    17A     -0.922001    18A     -0.818029
      19A     -0.805775    20A     -0.723196    21A     -0.704412
      22A     -0.656078    23A     -0.622221    24A     -0.619375
      25A     -0.605246    26A     -0.590492    27A     -0.589016
      28A     -0.575180    29A     -0.553533    30A     -0.553053
      31A     -0.552605    32A     -0.548126    33A     -0.454496
      34A     -0.428530    35A     -0.400261    36A     -0.382409

  @DF-RHF Final Energy:  -457.47414958424093

   => Energetics <=

    Nuclear Repulsion Energy =            490.5040314978041351
    One-Electron Energy =               -1594.7578519505782424
    Two-Electron Energy =                 646.7796708685331168
    Total Energy =                       -457.4741495842409904
  Basis Set: (AUG-CC-PVTZ AUX)
    Blend: AUG-CC-PVTZ-RI
    Molecular point group: c1

    Geometry (in Angstrom), charge = 0, multiplicity = 1:

       Center              X                  Y                   Z               Mass
    ------------   -----------------  -----------------  -----------------  -----------------
         O           -2.341301795045    -0.000000000000     0.000053446641    15.994914619570
         O            2.998917204955    -0.000000000000    -0.000055553359    15.994914619570
         C           -0.352156795045     1.287193000000     0.000000446641    12.000000000000
         C           -0.352156795045    -1.287193000000     0.000001446641    12.000000000000
         C           -1.151780795045    -0.000000000000     0.000022746641    12.000000000000
         C            1.000129204955     1.265191000000    -0.000016553359    12.000000000000
         C            1.000129204955    -1.265191000000    -0.000015553359    12.000000000000
         C            1.759505204955    -0.000000000000    -0.000031553359    12.000000000000
         C           -1.172808795045     2.538714000000     0.000015446641    12.000000000000
         C           -1.172808795045    -2.538714000000     0.000019446641    12.000000000000
         H            1.593045204955     2.177877000000    -0.000029553359     1.007825032230
         H            1.593045204955    -2.177877000000    -0.000026553359     1.007825032230
         H           -1.824793795045     2.567932000000     0.877652446641     1.007825032230
         H           -1.824867795045     2.567906000000    -0.877566553359     1.007825032230
         H           -0.530697795045     3.422546000000    -0.000023553359     1.007825032230
         H           -0.530698795045    -3.422546000000    -0.000027553359     1.007825032230
         H           -1.824875795045    -2.567903000000    -0.877557553359     1.007825032230
         H           -1.824786795045    -2.567935000000     0.877661446641     1.007825032230

  Basis Set: AUG-CC-PVTZ
    Blend: AUG-CC-PVTZ
  Basis Set: (AUG-CC-PVTZ AUX)
    Blend: AUG-CC-PVTZ-JKFIT
	 Reference Energy          =    -457.4741495842409336 [Eh]
	 Singles Energy            =      -0.0000000000000000 [Eh]
	 Same-Spin Energy          =      -0.4650228818809216 [Eh]
	 Opposite-Spin Energy      =      -1.4731948861618385 [Eh]
	 Correlation Energy        =      -1.9382177680427599 [Eh]
	 Total Energy              =    -459.4123673522836953 [Eh]

	 ================> DF-SCS-MP2 Energies <==================
	-----------------------------------------------------------
	 SCS Same-Spin Scale       =       0.3333333333333333 [-]
	 SCS Opposite-Spin Scale   =       1.2000000000000000 [-]
	 SCS Same-Spin Energy      =      -0.1550076272936405 [Eh]
	 SCS Opposite-Spin Energy  =      -1.7678338633942061 [Eh]
	 SCS Correlation Energy    =      -1.9228414906878466 [Eh]
	 SCS Total Energy          =    -459.3969910749287919 [Eh]
	-----------------------------------------------------------

  Dipole Moment: [D]
     X:    -1.3775      Y:    -0.0000      Z:     0.0000     Total:     1.3775

*** Psi4 exiting successfully. Buy a developer a beer!
