                               Psi4 1.4a3.dev225

  ==> Input File <==

--------------------------------------------------------------------------
#psi4
#
memory 32 gb

molecule  {
0 1
  O       -2.3098380     0.0000000     0.0000530
  O        3.0303810     0.0000000    -0.0000560
  C       -0.3206930     1.2871930     0.0000000
  C       -0.3206930    -1.2871930     0.0000010
  C       -1.0703170     0.0000000     0.0000210
  C        1.0315930     1.2651910    -0.0000170
  C        1.0315930    -1.2651910    -0.0000160
  C        1.7909690     0.0000000    -0.0000320
  C       -1.1413450     2.5387140     0.0000150
  C       -1.1413450    -2.5387140     0.0000190
  H        1.6245090     2.1778770    -0.0000300
  H        1.6245090    -2.1778770    -0.0000270
  H       -1.7933300     2.5679320     0.8776520
  H       -1.7934040     2.5679060    -0.8775670
  H       -0.4874787     3.4387266    -0.0000247
  H       -0.4992350    -3.4225460    -0.0000280
  H       -1.7934120    -2.5679030    -0.8775580
  H       -1.7933230    -2.5679350     0.8776610
units angstrom
no_reorient  #important for SAPT in psi4, default
symmetry c1  #important for SAPT in psi4, default
}

set PROPERTIES_ORIGIN ["COM"]
properties('MP2/aug-cc-pvtz', properties = ['dipole'])
--------------------------------------------------------------------------

    Molecular point group: c1
  Charge       = 0
  Multiplicity = 1
  Basis Set: AUG-CC-PVTZ
    Blend: AUG-CC-PVTZ
  Basis Set: (AUG-CC-PVTZ AUX)
    Blend: AUG-CC-PVTZ-JKFIT

    Orbital Energies [Eh]
    ---------------------

    Doubly Occupied:

       1A    -20.578120     2A    -20.566968     3A    -11.360713
       4A    -11.353257     5A    -11.287692     6A    -11.287633
       7A    -11.270400     8A    -11.270377     9A    -11.245774
      10A    -11.243469    11A     -1.402248    12A     -1.389134
      13A     -1.160845    14A     -1.102152    15A     -1.006836
      16A     -0.964565    17A     -0.929355    18A     -0.822665
      19A     -0.807960    20A     -0.721913    21A     -0.697294
      22A     -0.655578    23A     -0.618543    24A     -0.612952
      25A     -0.607486    26A     -0.592370    27A     -0.589391
      28A     -0.574237    29A     -0.554982    30A     -0.550849
      31A     -0.546919    32A     -0.533513    33A     -0.458625
      34A     -0.435778    35A     -0.399793    36A     -0.384769

  @DF-RHF Final Energy:  -457.47104748105954

   => Energetics <=

    Nuclear Repulsion Energy =            490.4444963675902045
    One-Electron Energy =               -1594.6607825772914566
    Two-Electron Energy =                 646.7452387286415387
    Total Energy =                       -457.4710474810595997
  Basis Set: (AUG-CC-PVTZ AUX)
    Blend: AUG-CC-PVTZ-RI
    Molecular point group: c1

    Geometry (in Angstrom), charge = 0, multiplicity = 1:

       Center              X                  Y                   Z               Mass
    ------------   -----------------  -----------------  -----------------  -----------------
         O           -2.345798938447    -0.000119859776     0.000053566488    15.994914619570
         O            2.994420061553    -0.000119859776    -0.000055433512    15.994914619570
         C           -0.356653938447     1.287073140224     0.000000566488    12.000000000000
         C           -0.356653938447    -1.287312859776     0.000001566488    12.000000000000
         C           -1.106277938447    -0.000119859776     0.000021566488    12.000000000000
         C            0.995632061553     1.265071140224    -0.000016433512    12.000000000000
         C            0.995632061553    -1.265310859776    -0.000015433512    12.000000000000
         C            1.755008061553    -0.000119859776    -0.000031433512    12.000000000000
         C           -1.177305938447     2.538594140224     0.000015566488    12.000000000000
         C           -1.177305938447    -2.538833859776     0.000019566488    12.000000000000
         H            1.588548061553     2.177757140224    -0.000029433512     1.007825032230
         H            1.588548061553    -2.177996859776    -0.000026433512     1.007825032230
         H           -1.829290938447     2.567812140224     0.877652566488     1.007825032230
         H           -1.829364938447     2.567786140224    -0.877566433512     1.007825032230
         H           -0.523439638447     3.438606740224    -0.000024133512     1.007825032230
         H           -0.535195938447    -3.422665859776    -0.000027433512     1.007825032230
         H           -1.829372938447    -2.568022859776    -0.877557433512     1.007825032230
         H           -1.829283938447    -2.568054859776     0.877661566488     1.007825032230

  Basis Set: AUG-CC-PVTZ
    Blend: AUG-CC-PVTZ
  Basis Set: (AUG-CC-PVTZ AUX)
    Blend: AUG-CC-PVTZ-JKFIT
	 Reference Energy          =    -457.4710474810595429 [Eh]
	 Singles Energy            =      -0.0000000000000000 [Eh]
	 Same-Spin Energy          =      -0.4668268485804462 [Eh]
	 Opposite-Spin Energy      =      -1.4770603508043225 [Eh]
	 Correlation Energy        =      -1.9438871993847688 [Eh]
	 Total Energy              =    -459.4149346804443326 [Eh]

	 ================> DF-SCS-MP2 Energies <==================
	-----------------------------------------------------------
	 SCS Same-Spin Scale       =       0.3333333333333333 [-]
	 SCS Opposite-Spin Scale   =       1.2000000000000000 [-]
	 SCS Same-Spin Energy      =      -0.1556089495268154 [Eh]
	 SCS Opposite-Spin Energy  =      -1.7724724209651870 [Eh]
	 SCS Correlation Energy    =      -1.9280813704920023 [Eh]
	 SCS Total Energy          =    -459.3991288515515521 [Eh]
	-----------------------------------------------------------

  Dipole Moment: [D]
     X:    -1.1338      Y:    -0.0107      Z:     0.0000     Total:     1.1338

*** Psi4 exiting successfully. Buy a developer a beer!
