                               Psi4 1.4a3.dev225

  ==> Input File <==

--------------------------------------------------------------------------
#psi4
#
memory 32 gb

molecule  {
0 1
  O       -2.3098380     0.0000000     0.0000530
  O        3.0303810     0.0000000    -0.0000560
  C       -0.3206930     1.2871930     0.0000000
  C       -0.3206930    -1.2871930     0.0000010
  C       -1.0703170     0.0000000     0.0000210
  C        1.0315930     1.2651910    -0.0000170
  C        1.0315930    -1.2651910    -0.0000160
  C        1.7909690     0.0000000    -0.0000320
  C       -1.1961799     2.6223390     0.0000160
  C       -1.1413450    -2.5387140     0.0000190
  H        1.6245090     2.1778770    -0.0000300
  H        1.6245090    -2.1778770    -0.0000270
  H       -1.7933300     2.5679320     0.8776520
  H       -1.7934040     2.5679060    -0.8775670
  H       -0.4992340     3.4225460    -0.0000240
  H       -0.4992350    -3.4225460    -0.0000280
  H       -1.7934120    -2.5679030    -0.8775580
  H       -1.7933230    -2.5679350     0.8776610
units angstrom
no_reorient  #important for SAPT in psi4, default
symmetry c1  #important for SAPT in psi4, default
}

set PROPERTIES_ORIGIN ["COM"]
properties('MP2/aug-cc-pvtz', properties = ['dipole'])
--------------------------------------------------------------------------

    Molecular point group: c1
  Charge       = 0
  Multiplicity = 1
  Basis Set: AUG-CC-PVTZ
    Blend: AUG-CC-PVTZ
  Basis Set: (AUG-CC-PVTZ AUX)
    Blend: AUG-CC-PVTZ-JKFIT

    Orbital Energies [Eh]
    ---------------------

    Doubly Occupied:

       1A    -20.577392     2A    -20.566707     3A    -11.360224
       4A    -11.353086     5A    -11.289833     6A    -11.287297
       7A    -11.270045     8A    -11.270020     9A    -11.243325
      10A    -11.243208    11A     -1.401290    12A     -1.388880
      13A     -1.157854    14A     -1.095435    15A     -1.003775
      16A     -0.965459    17A     -0.930823    18A     -0.823924
      19A     -0.807037    20A     -0.720075    21A     -0.696701
      22A     -0.652712    23A     -0.619924    24A     -0.613120
      25A     -0.605581    26A     -0.595722    27A     -0.591523
      28A     -0.569202    29A     -0.561040    30A     -0.557532
      31A     -0.537787    32A     -0.535302    33A     -0.458253
      34A     -0.432293    35A     -0.400293    36A     -0.386066

  @DF-RHF Final Energy:  -457.46456383395650

   => Energetics <=

    Nuclear Repulsion Energy =            488.7644336493751211
    One-Electron Energy =               -1591.3205193024984965
    Two-Electron Energy =                 645.0915218191668146
    Total Energy =                       -457.4645638339565039
  Basis Set: (AUG-CC-PVTZ AUX)
    Blend: AUG-CC-PVTZ-RI
    Molecular point group: c1

    Geometry (in Angstrom), charge = 0, multiplicity = 1:

       Center              X                  Y                   Z               Mass
    ------------   -----------------  -----------------  -----------------  -----------------
         O           -2.340875350620    -0.007375833006     0.000053473101    15.994914619570
         O            2.999343649380    -0.007375833006    -0.000055526899    15.994914619570
         C           -0.351730350620     1.279817166994     0.000000473101    12.000000000000
         C           -0.351730350620    -1.294568833006     0.000001473101    12.000000000000
         C           -1.101354350620    -0.007375833006     0.000021473101    12.000000000000
         C            1.000555649380     1.257815166994    -0.000016526899    12.000000000000
         C            1.000555649380    -1.272566833006    -0.000015526899    12.000000000000
         C            1.759931649380    -0.007375833006    -0.000031526899    12.000000000000
         C           -1.227217250620     2.614963166994     0.000016473101    12.000000000000
         C           -1.172382350620    -2.546089833006     0.000019473101    12.000000000000
         H            1.593471649380     2.170501166994    -0.000029526899     1.007825032230
         H            1.593471649380    -2.185252833006    -0.000026526899     1.007825032230
         H           -1.824367350620     2.560556166994     0.877652473101     1.007825032230
         H           -1.824441350620     2.560530166994    -0.877566526899     1.007825032230
         H           -0.530271350620     3.415170166994    -0.000023526899     1.007825032230
         H           -0.530272350620    -3.429921833006    -0.000027526899     1.007825032230
         H           -1.824449350620    -2.575278833006    -0.877557526899     1.007825032230
         H           -1.824360350620    -2.575310833006     0.877661473101     1.007825032230

  Basis Set: AUG-CC-PVTZ
    Blend: AUG-CC-PVTZ
  Basis Set: (AUG-CC-PVTZ AUX)
    Blend: AUG-CC-PVTZ-JKFIT
	 Reference Energy          =    -457.4645638339565039 [Eh]
	 Singles Energy            =      -0.0000000000000000 [Eh]
	 Same-Spin Energy          =      -0.4662163084372787 [Eh]
	 Opposite-Spin Energy      =      -1.4766332142862859 [Eh]
	 Correlation Energy        =      -1.9428495227235647 [Eh]
	 Total Energy              =    -459.4074133566800811 [Eh]

	 ================> DF-SCS-MP2 Energies <==================
	-----------------------------------------------------------
	 SCS Same-Spin Scale       =       0.3333333333333333 [-]
	 SCS Opposite-Spin Scale   =       1.2000000000000000 [-]
	 SCS Same-Spin Energy      =      -0.1554054361457596 [Eh]
	 SCS Opposite-Spin Energy  =      -1.7719598571435431 [Eh]
	 SCS Correlation Energy    =      -1.9273652932893026 [Eh]
	 SCS Total Energy          =    -459.3919291272458167 [Eh]
	-----------------------------------------------------------

  Dipole Moment: [D]
     X:    -1.0871      Y:    -0.0296      Z:     0.0000     Total:     1.0875

*** Psi4 exiting successfully. Buy a developer a beer!
