                               Psi4 1.4a3.dev225

  ==> Input File <==

--------------------------------------------------------------------------
#psi4
#
memory 32 gb

molecule  {
0 1
  O       -2.3098380     0.0000000     0.0000530
  O        3.0303810     0.0000000    -0.0000560
  C       -0.3206930     1.2871930     0.0000000
  C       -0.3206930    -1.2871930     0.0000010
  C       -1.0703170     0.0000000     0.0000210
  C        1.0315930     1.2651910    -0.0000170
  C        0.9815996    -1.2660044    -0.0000154
  C        1.7909690     0.0000000    -0.0000320
  C       -1.1413450     2.5387140     0.0000150
  C       -1.1413450    -2.5387140     0.0000190
  H        1.6245090     2.1778770    -0.0000300
  H        1.6245090    -2.1778770    -0.0000270
  H       -1.7933300     2.5679320     0.8776520
  H       -1.7934040     2.5679060    -0.8775670
  H       -0.4992340     3.4225460    -0.0000240
  H       -0.4992350    -3.4225460    -0.0000280
  H       -1.7934120    -2.5679030    -0.8775580
  H       -1.7933230    -2.5679350     0.8776610
units angstrom
no_reorient  #important for SAPT in psi4, default
symmetry c1  #important for SAPT in psi4, default
}

set PROPERTIES_ORIGIN ["COM"]
properties('MP2/aug-cc-pvtz', properties = ['dipole'])
--------------------------------------------------------------------------

    Molecular point group: c1
  Charge       = 0
  Multiplicity = 1
  Basis Set: AUG-CC-PVTZ
    Blend: AUG-CC-PVTZ
  Basis Set: (AUG-CC-PVTZ AUX)
    Blend: AUG-CC-PVTZ-JKFIT

    Orbital Energies [Eh]
    ---------------------

    Doubly Occupied:

       1A    -20.577494     2A    -20.569363     3A    -11.360162
       4A    -11.356150     5A    -11.288088     6A    -11.278599
       7A    -11.270017     8A    -11.267660     9A    -11.243640
      10A    -11.241952    11A     -1.401723    12A     -1.389609
      13A     -1.165640    14A     -1.106564    15A     -1.005404
      16A     -0.964576    17A     -0.928230    18A     -0.821267
      19A     -0.810865    20A     -0.723140    21A     -0.695191
      22A     -0.656714    23A     -0.619163    24A     -0.611386
      25A     -0.606200    26A     -0.592562    27A     -0.589338
      28A     -0.571102    29A     -0.554615    30A     -0.552921
      31A     -0.548437    32A     -0.533141    33A     -0.460016
      34A     -0.431315    35A     -0.406621    36A     -0.389059

  @DF-RHF Final Energy:  -457.47008206134313

   => Energetics <=

    Nuclear Repulsion Energy =            491.0610030606999885
    One-Electron Energy =               -1595.8863247274748574
    Two-Electron Energy =                 647.3552396054317342
    Total Energy =                       -457.4700820613431915
  Basis Set: (AUG-CC-PVTZ AUX)
    Blend: AUG-CC-PVTZ-RI
    Molecular point group: c1

    Geometry (in Angstrom), charge = 0, multiplicity = 1:

       Center              X                  Y                   Z               Mass
    ------------   -----------------  -----------------  -----------------  -----------------
         O           -2.341302377173     0.000071742931     0.000053508382    15.994914619570
         O            2.998916622827     0.000071742931    -0.000055491618    15.994914619570
         C           -0.352157377173     1.287264742931     0.000000508382    12.000000000000
         C           -0.352157377173    -1.287121257069     0.000001508382    12.000000000000
         C           -1.101781377173     0.000071742931     0.000021508382    12.000000000000
         C            1.000128622827     1.265262742931    -0.000016491618    12.000000000000
         C            0.950135222827    -1.265932657069    -0.000014891618    12.000000000000
         C            1.759504622827     0.000071742931    -0.000031491618    12.000000000000
         C           -1.172809377173     2.538785742931     0.000015508382    12.000000000000
         C           -1.172809377173    -2.538642257069     0.000019508382    12.000000000000
         H            1.593044622827     2.177948742931    -0.000029491618     1.007825032230
         H            1.593044622827    -2.177805257069    -0.000026491618     1.007825032230
         H           -1.824794377173     2.568003742931     0.877652508382     1.007825032230
         H           -1.824868377173     2.567977742931    -0.877566491618     1.007825032230
         H           -0.530698377173     3.422617742931    -0.000023491618     1.007825032230
         H           -0.530699377173    -3.422474257069    -0.000027491618     1.007825032230
         H           -1.824876377173    -2.567831257069    -0.877557491618     1.007825032230
         H           -1.824787377173    -2.567863257069     0.877661508382     1.007825032230

  Basis Set: AUG-CC-PVTZ
    Blend: AUG-CC-PVTZ
  Basis Set: (AUG-CC-PVTZ AUX)
    Blend: AUG-CC-PVTZ-JKFIT
	 Reference Energy          =    -457.4700820613431347 [Eh]
	 Singles Energy            =      -0.0000000000000000 [Eh]
	 Same-Spin Energy          =      -0.4662349210978536 [Eh]
	 Opposite-Spin Energy      =      -1.4757534026259518 [Eh]
	 Correlation Energy        =      -1.9419883237238054 [Eh]
	 Total Energy              =    -459.4120703850669543 [Eh]

	 ================> DF-SCS-MP2 Energies <==================
	-----------------------------------------------------------
	 SCS Same-Spin Scale       =       0.3333333333333333 [-]
	 SCS Opposite-Spin Scale   =       1.2000000000000000 [-]
	 SCS Same-Spin Energy      =      -0.1554116403659512 [Eh]
	 SCS Opposite-Spin Energy  =      -1.7709040831511420 [Eh]
	 SCS Correlation Energy    =      -1.9263157235170931 [Eh]
	 SCS Total Energy          =    -459.3963977848602553 [Eh]
	-----------------------------------------------------------

  Dipole Moment: [D]
     X:    -1.0965      Y:     0.0854      Z:     0.0000     Total:     1.0998

*** Psi4 exiting successfully. Buy a developer a beer!
