                               Psi4 1.4a3.dev225

  ==> Input File <==

--------------------------------------------------------------------------
#psi4
#
memory 32 gb

molecule  {
0 1
  O       -2.3098380     0.0000000     0.0000530
  O        3.0303810     0.0000000    -0.0000560
  C       -0.3206930     1.2871930     0.0000000
  C       -0.3206930    -1.2871930     0.0000010
  C       -1.0703170     0.0000000     0.0000210
  C        1.0315930     1.2651910    -0.0000170
  C        1.0315930    -1.2651910    -0.0000160
  C        1.5909690     0.0000000    -0.0000281
  C       -1.1413450     2.5387140     0.0000150
  C       -1.1413450    -2.5387140     0.0000190
  H        1.6245090     2.1778770    -0.0000300
  H        1.6245090    -2.1778770    -0.0000270
  H       -1.7933300     2.5679320     0.8776520
  H       -1.7934040     2.5679060    -0.8775670
  H       -0.4992340     3.4225460    -0.0000240
  H       -0.4992350    -3.4225460    -0.0000280
  H       -1.7934120    -2.5679030    -0.8775580
  H       -1.7933230    -2.5679350     0.8776610
units angstrom
no_reorient  #important for SAPT in psi4, default
symmetry c1  #important for SAPT in psi4, default
}

set PROPERTIES_ORIGIN ["COM"]
properties('MP2/aug-cc-pvtz', properties = ['dipole'])
--------------------------------------------------------------------------

    Molecular point group: c1
  Charge       = 0
  Multiplicity = 1
  Basis Set: AUG-CC-PVTZ
    Blend: AUG-CC-PVTZ
  Basis Set: (AUG-CC-PVTZ AUX)
    Blend: AUG-CC-PVTZ-JKFIT

    Orbital Energies [Eh]
    ---------------------

    Doubly Occupied:

       1A    -20.590715     2A    -20.546325     3A    -11.370413
       4A    -11.352901     5A    -11.298240     6A    -11.298215
       7A    -11.273136     8A    -11.273107     9A    -11.249699
      10A    -11.249698    11A     -1.413254    12A     -1.284266
      13A     -1.177752    14A     -1.117146    15A     -1.025095
      16A     -0.983888    17A     -0.939194    18A     -0.831412
      19A     -0.818180    20A     -0.729712    21A     -0.711057
      22A     -0.633856    23A     -0.633361    24A     -0.626869
      25A     -0.621904    26A     -0.596084    27A     -0.577652
      28A     -0.571427    29A     -0.556839    30A     -0.548945
      31A     -0.516533    32A     -0.516354    33A     -0.460972
      34A     -0.438649    35A     -0.393667    36A     -0.373325

  @DF-RHF Final Energy:  -457.39732554223752

   => Energetics <=

    Nuclear Repulsion Energy =            491.8963229291494486
    One-Electron Energy =               -1597.3876097587151435
    Two-Electron Energy =                 648.0939612873281703
    Total Energy =                       -457.3973255422375814
  Basis Set: (AUG-CC-PVTZ AUX)
    Blend: AUG-CC-PVTZ-RI
    Molecular point group: c1

    Geometry (in Angstrom), charge = 0, multiplicity = 1:

       Center              X                  Y                   Z               Mass
    ------------   -----------------  -----------------  -----------------  -----------------
         O           -2.328071601313    -0.000000000000     0.000053217317    15.994914619570
         O            3.012147398687    -0.000000000000    -0.000055782683    15.994914619570
         C           -0.338926601313     1.287193000000     0.000000217317    12.000000000000
         C           -0.338926601313    -1.287193000000     0.000001217317    12.000000000000
         C           -1.088550601313    -0.000000000000     0.000021217317    12.000000000000
         C            1.013359398687     1.265191000000    -0.000016782683    12.000000000000
         C            1.013359398687    -1.265191000000    -0.000015782683    12.000000000000
         C            1.572735398687    -0.000000000000    -0.000027882683    12.000000000000
         C           -1.159578601313     2.538714000000     0.000015217317    12.000000000000
         C           -1.159578601313    -2.538714000000     0.000019217317    12.000000000000
         H            1.606275398687     2.177877000000    -0.000029782683     1.007825032230
         H            1.606275398687    -2.177877000000    -0.000026782683     1.007825032230
         H           -1.811563601313     2.567932000000     0.877652217317     1.007825032230
         H           -1.811637601313     2.567906000000    -0.877566782683     1.007825032230
         H           -0.517467601313     3.422546000000    -0.000023782683     1.007825032230
         H           -0.517468601313    -3.422546000000    -0.000027782683     1.007825032230
         H           -1.811645601313    -2.567903000000    -0.877557782683     1.007825032230
         H           -1.811556601313    -2.567935000000     0.877661217317     1.007825032230

  Basis Set: AUG-CC-PVTZ
    Blend: AUG-CC-PVTZ
  Basis Set: (AUG-CC-PVTZ AUX)
    Blend: AUG-CC-PVTZ-JKFIT
	 Reference Energy          =    -457.3973255422375246 [Eh]
	 Singles Energy            =      -0.0000000000000000 [Eh]
	 Same-Spin Energy          =      -0.4768964436626478 [Eh]
	 Opposite-Spin Energy      =      -1.4958257985304040 [Eh]
	 Correlation Energy        =      -1.9727222421930519 [Eh]
	 Total Energy              =    -459.3700477844305965 [Eh]

	 ================> DF-SCS-MP2 Energies <==================
	-----------------------------------------------------------
	 SCS Same-Spin Scale       =       0.3333333333333333 [-]
	 SCS Opposite-Spin Scale   =       1.2000000000000000 [-]
	 SCS Same-Spin Energy      =      -0.1589654812208826 [Eh]
	 SCS Opposite-Spin Energy  =      -1.7949909582364847 [Eh]
	 SCS Correlation Energy    =      -1.9539564394573672 [Eh]
	 SCS Total Energy          =    -459.3512819816949104 [Eh]
	-----------------------------------------------------------

  Dipole Moment: [D]
     X:    -1.2486      Y:    -0.0000      Z:     0.0000     Total:     1.2486

*** Psi4 exiting successfully. Buy a developer a beer!
