                               Psi4 1.4a3.dev225

  ==> Input File <==

--------------------------------------------------------------------------
#psi4
#
memory 32 gb

molecule  {
0 1
  O       -2.3098380     0.0000000     0.0000530
  O        3.0303810     0.0000000    -0.0000560
  C       -0.3206930     1.2871930     0.0000000
  C       -0.3206930    -1.2871930     0.0000010
  C       -1.0703170     0.0000000     0.0000210
  C        1.0315930     1.2651910    -0.0000170
  C        1.0315930    -1.2651910    -0.0000160
  C        1.8346609    -0.0272726    -0.0000328
  C       -1.1413450     2.5387140     0.0000150
  C       -1.1413450    -2.5387140     0.0000190
  H        1.6245090     2.1778770    -0.0000300
  H        1.6245090    -2.1778770    -0.0000270
  H       -1.7933300     2.5679320     0.8776520
  H       -1.7934040     2.5679060    -0.8775670
  H       -0.4992340     3.4225460    -0.0000240
  H       -0.4992350    -3.4225460    -0.0000280
  H       -1.7934120    -2.5679030    -0.8775580
  H       -1.7933230    -2.5679350     0.8776610
units angstrom
no_reorient  #important for SAPT in psi4, default
symmetry c1  #important for SAPT in psi4, default
}

set PROPERTIES_ORIGIN ["COM"]
properties('MP2/aug-cc-pvtz', properties = ['dipole'])
--------------------------------------------------------------------------

    Molecular point group: c1
  Charge       = 0
  Multiplicity = 1
  Basis Set: AUG-CC-PVTZ
    Blend: AUG-CC-PVTZ
  Basis Set: (AUG-CC-PVTZ AUX)
    Blend: AUG-CC-PVTZ-JKFIT

    Orbital Energies [Eh]
    ---------------------

    Doubly Occupied:

       1A    -20.575348     2A    -20.570641     3A    -11.358328
       4A    -11.352613     5A    -11.288276     6A    -11.282180
       7A    -11.269433     8A    -11.268713     9A    -11.243300
      10A    -11.240519    11A     -1.419774    12A     -1.399515
      13A     -1.156283    14A     -1.099249    15A     -1.003067
      16A     -0.960875    17A     -0.927172    18A     -0.821641
      19A     -0.804722    20A     -0.721803    21A     -0.694125
      22A     -0.667426    23A     -0.617386    24A     -0.610378
      25A     -0.603211    26A     -0.595274    27A     -0.587603
      28A     -0.577850    29A     -0.567234    30A     -0.551913
      31A     -0.547249    32A     -0.533343    33A     -0.457862
      34A     -0.428768    35A     -0.402395    36A     -0.382324

  @DF-RHF Final Energy:  -457.47338323389550

   => Energetics <=

    Nuclear Repulsion Energy =            490.3719863109699304
    One-Electron Energy =               -1594.5151572289162232
    Two-Electron Energy =                 646.6697876840507888
    Total Energy =                       -457.4733832338954471
  Basis Set: (AUG-CC-PVTZ AUX)
    Blend: AUG-CC-PVTZ-RI
    Molecular point group: c1

    Geometry (in Angstrom), charge = 0, multiplicity = 1:

       Center              X                  Y                   Z               Mass
    ------------   -----------------  -----------------  -----------------  -----------------
         O           -2.349565541633     0.002405478544     0.000053631864    15.994914619570
         O            2.990653458367     0.002405478544    -0.000055368136    15.994914619570
         C           -0.360420541633     1.289598478544     0.000000631864    12.000000000000
         C           -0.360420541633    -1.284787521456     0.000001631864    12.000000000000
         C           -1.110044541633     0.002405478544     0.000021631864    12.000000000000
         C            0.991865458367     1.267596478544    -0.000016368136    12.000000000000
         C            0.991865458367    -1.262785521456    -0.000015368136    12.000000000000
         C            1.794933358367    -0.024867121456    -0.000032168136    12.000000000000
         C           -1.181072541633     2.541119478544     0.000015631864    12.000000000000
         C           -1.181072541633    -2.536308521456     0.000019631864    12.000000000000
         H            1.584781458367     2.180282478544    -0.000029368136     1.007825032230
         H            1.584781458367    -2.175471521456    -0.000026368136     1.007825032230
         H           -1.833057541633     2.570337478544     0.877652631864     1.007825032230
         H           -1.833131541633     2.570311478544    -0.877566368136     1.007825032230
         H           -0.538961541633     3.424951478544    -0.000023368136     1.007825032230
         H           -0.538962541633    -3.420140521456    -0.000027368136     1.007825032230
         H           -1.833139541633    -2.565497521456    -0.877557368136     1.007825032230
         H           -1.833050541633    -2.565529521456     0.877661631864     1.007825032230

  Basis Set: AUG-CC-PVTZ
    Blend: AUG-CC-PVTZ
  Basis Set: (AUG-CC-PVTZ AUX)
    Blend: AUG-CC-PVTZ-JKFIT
	 Reference Energy          =    -457.4733832338955040 [Eh]
	 Singles Energy            =      -0.0000000000000000 [Eh]
	 Same-Spin Energy          =      -0.4652286644192865 [Eh]
	 Opposite-Spin Energy      =      -1.4738615795056296 [Eh]
	 Correlation Energy        =      -1.9390902439249160 [Eh]
	 Total Energy              =    -459.4124734778204129 [Eh]

	 ================> DF-SCS-MP2 Energies <==================
	-----------------------------------------------------------
	 SCS Same-Spin Scale       =       0.3333333333333333 [-]
	 SCS Opposite-Spin Scale   =       1.2000000000000000 [-]
	 SCS Same-Spin Energy      =      -0.1550762214730955 [Eh]
	 SCS Opposite-Spin Energy  =      -1.7686338954067555 [Eh]
	 SCS Correlation Energy    =      -1.9237101168798509 [Eh]
	 SCS Total Energy          =    -459.3970933507753784 [Eh]
	-----------------------------------------------------------

  Dipole Moment: [D]
     X:    -0.9127      Y:    -0.1296      Z:     0.0000     Total:     0.9219

*** Psi4 exiting successfully. Buy a developer a beer!
