                               Psi4 1.4a3.dev225

  ==> Input File <==

--------------------------------------------------------------------------
#psi4
#
memory 32 gb

molecule  {
0 1
  O       -2.3098380     0.0000000     0.0000530
  O        3.0303810     0.0000000    -0.0000560
  C       -0.3206930     1.2871930     0.0000000
  C       -0.3206930    -1.2871930     0.0000010
  C       -1.0703170     0.0000000     0.0000210
  C        1.0315930     1.2651910    -0.0000170
  C        1.0315930    -1.2651910    -0.0000160
  C        1.7409690     0.0000000    -0.0000310
  C       -1.1413450     2.5387140     0.0000150
  C       -1.1413450    -2.5387140     0.0000190
  H        1.6245090     2.1778770    -0.0000300
  H        1.6245090    -2.1778770    -0.0000270
  H       -1.7933300     2.5679320     0.8776520
  H       -1.7934040     2.5679060    -0.8775670
  H       -0.4992340     3.4225460    -0.0000240
  H       -0.4992350    -3.4225460    -0.0000280
  H       -1.7934120    -2.5679030    -0.8775580
  H       -1.7933230    -2.5679350     0.8776610
units angstrom
no_reorient  #important for SAPT in psi4, default
symmetry c1  #important for SAPT in psi4, default
}

set PROPERTIES_ORIGIN ["COM"]
properties('MP2/aug-cc-pvtz', properties = ['dipole'])
--------------------------------------------------------------------------

    Molecular point group: c1
  Charge       = 0
  Multiplicity = 1
  Basis Set: AUG-CC-PVTZ
    Blend: AUG-CC-PVTZ
  Basis Set: (AUG-CC-PVTZ AUX)
    Blend: AUG-CC-PVTZ-JKFIT

    Orbital Energies [Eh]
    ---------------------

    Doubly Occupied:

       1A    -20.581090     2A    -20.562492     3A    -11.363045
       4A    -11.353685     5A    -11.290233     6A    -11.290208
       7A    -11.271326     8A    -11.271302     9A    -11.245056
      10A    -11.245055    11A     -1.404781    12A     -1.357374
      13A     -1.166067    14A     -1.105757    15A     -1.012368
      16A     -0.969525    17A     -0.932418    18A     -0.825301
      19A     -0.811002    20A     -0.723144    21A     -0.700760
      22A     -0.644697    23A     -0.620206    24A     -0.615894
      25A     -0.613164    26A     -0.590992    27A     -0.589757
      28A     -0.571819    29A     -0.550950    30A     -0.548726
      31A     -0.547409    32A     -0.530145    33A     -0.458144
      34A     -0.441427    35A     -0.395172    36A     -0.387129

  @DF-RHF Final Energy:  -457.46138757842283

   => Energetics <=

    Nuclear Repulsion Energy =            490.7864651421284634
    One-Electron Energy =               -1595.3204649292374597
    Two-Electron Energy =                 647.0726122086862233
    Total Energy =                       -457.4613875784227730
  Basis Set: (AUG-CC-PVTZ AUX)
    Blend: AUG-CC-PVTZ-RI
    Molecular point group: c1

    Geometry (in Angstrom), charge = 0, multiplicity = 1:

       Center              X                  Y                   Z               Mass
    ------------   -----------------  -----------------  -----------------  -----------------
         O           -2.341301795045    -0.000000000000     0.000053473101    15.994914619570
         O            2.998917204955    -0.000000000000    -0.000055526899    15.994914619570
         C           -0.352156795045     1.287193000000     0.000000473101    12.000000000000
         C           -0.352156795045    -1.287193000000     0.000001473101    12.000000000000
         C           -1.101780795045    -0.000000000000     0.000021473101    12.000000000000
         C            1.000129204955     1.265191000000    -0.000016526899    12.000000000000
         C            1.000129204955    -1.265191000000    -0.000015526899    12.000000000000
         C            1.709505204955    -0.000000000000    -0.000030526899    12.000000000000
         C           -1.172808795045     2.538714000000     0.000015473101    12.000000000000
         C           -1.172808795045    -2.538714000000     0.000019473101    12.000000000000
         H            1.593045204955     2.177877000000    -0.000029526899     1.007825032230
         H            1.593045204955    -2.177877000000    -0.000026526899     1.007825032230
         H           -1.824793795045     2.567932000000     0.877652473101     1.007825032230
         H           -1.824867795045     2.567906000000    -0.877566526899     1.007825032230
         H           -0.530697795045     3.422546000000    -0.000023526899     1.007825032230
         H           -0.530698795045    -3.422546000000    -0.000027526899     1.007825032230
         H           -1.824875795045    -2.567903000000    -0.877557526899     1.007825032230
         H           -1.824786795045    -2.567935000000     0.877661473101     1.007825032230

  Basis Set: AUG-CC-PVTZ
    Blend: AUG-CC-PVTZ
  Basis Set: (AUG-CC-PVTZ AUX)
    Blend: AUG-CC-PVTZ-JKFIT
	 Reference Energy          =    -457.4613875784228298 [Eh]
	 Singles Energy            =      -0.0000000000000000 [Eh]
	 Same-Spin Energy          =      -0.4689641937525060 [Eh]
	 Opposite-Spin Energy      =      -1.4809712165748166 [Eh]
	 Correlation Energy        =      -1.9499354103273225 [Eh]
	 Total Energy              =    -459.4113229887501575 [Eh]

	 ================> DF-SCS-MP2 Energies <==================
	-----------------------------------------------------------
	 SCS Same-Spin Scale       =       0.3333333333333333 [-]
	 SCS Opposite-Spin Scale   =       1.2000000000000000 [-]
	 SCS Same-Spin Energy      =      -0.1563213979175020 [Eh]
	 SCS Opposite-Spin Energy  =      -1.7771654598897799 [Eh]
	 SCS Correlation Energy    =      -1.9334868578072819 [Eh]
	 SCS Total Energy          =    -459.3948744362301113 [Eh]
	-----------------------------------------------------------

  Dipole Moment: [D]
     X:    -1.3098      Y:    -0.0000      Z:     0.0000     Total:     1.3098

*** Psi4 exiting successfully. Buy a developer a beer!
