                               Psi4 1.4a3.dev225

  ==> Input File <==

--------------------------------------------------------------------------
#psi4
#
memory 32 gb

molecule  {
0 1
  O       -2.3098380     0.0000000     0.0000530
  O        3.0303810     0.0000000    -0.0000560
  C       -0.3206930     1.2871930     0.0000000
  C       -0.3206930    -1.2871930     0.0000010
  C       -0.9316622     0.0713057     0.0000198
  C        1.0315930     1.2651910    -0.0000170
  C        1.0315930    -1.2651910    -0.0000160
  C        1.7909690     0.0000000    -0.0000320
  C       -1.1413450     2.5387140     0.0000150
  C       -1.1413450    -2.5387140     0.0000190
  H        1.6245090     2.1778770    -0.0000300
  H        1.6245090    -2.1778770    -0.0000270
  H       -1.7933300     2.5679320     0.8776520
  H       -1.7934040     2.5679060    -0.8775670
  H       -0.4992340     3.4225460    -0.0000240
  H       -0.4992350    -3.4225460    -0.0000280
  H       -1.7934120    -2.5679030    -0.8775580
  H       -1.7933230    -2.5679350     0.8776610
units angstrom
no_reorient  #important for SAPT in psi4, default
symmetry c1  #important for SAPT in psi4, default
}

set PROPERTIES_ORIGIN ["COM"]
properties('MP2/aug-cc-pvtz', properties = ['dipole'])
--------------------------------------------------------------------------

    Molecular point group: c1
  Charge       = 0
  Multiplicity = 1
  Basis Set: AUG-CC-PVTZ
    Blend: AUG-CC-PVTZ
  Basis Set: (AUG-CC-PVTZ AUX)
    Blend: AUG-CC-PVTZ-JKFIT

    Orbital Energies [Eh]
    ---------------------

    Doubly Occupied:

       1A    -20.577332     2A    -20.563854     3A    -11.361385
       4A    -11.360909     5A    -11.294095     6A    -11.288182
       7A    -11.284136     8A    -11.269819     9A    -11.245932
      10A    -11.244835    11A     -1.398351    12A     -1.321970
      13A     -1.176389    14A     -1.111583    15A     -1.010403
      16A     -0.968429    17A     -0.950056    18A     -0.838862
      19A     -0.812388    20A     -0.723391    21A     -0.690237
      22A     -0.655828    23A     -0.617520    24A     -0.613869
      25A     -0.602667    26A     -0.589262    27A     -0.585647
      28A     -0.574795    29A     -0.560630    30A     -0.549816
      31A     -0.532181    32A     -0.501729    33A     -0.458602
      34A     -0.447286    35A     -0.391759    36A     -0.388877

  @DF-RHF Final Energy:  -457.42071484732082

   => Energetics <=

    Nuclear Repulsion Energy =            490.9685951528222745
    One-Electron Energy =               -1595.6526064480840432
    Two-Electron Energy =                 647.2632964479410020
    Total Energy =                       -457.4207148473208235
  Basis Set: (AUG-CC-PVTZ AUX)
    Blend: AUG-CC-PVTZ-RI
    Molecular point group: c1

    Geometry (in Angstrom), charge = 0, multiplicity = 1:

       Center              X                  Y                   Z               Mass
    ------------   -----------------  -----------------  -----------------  -----------------
         O           -2.357941392062    -0.006289254835     0.000053667144    15.994914619570
         O            2.982277607938    -0.006289254835    -0.000055332856    15.994914619570
         C           -0.368796392062     1.280903745165     0.000000667144    12.000000000000
         C           -0.368796392062    -1.293482254835     0.000001667144    12.000000000000
         C           -0.979765592062     0.065016445165     0.000020467144    12.000000000000
         C            0.983489607938     1.258901745165    -0.000016332856    12.000000000000
         C            0.983489607938    -1.271480254835    -0.000015332856    12.000000000000
         C            1.742865607938    -0.006289254835    -0.000031332856    12.000000000000
         C           -1.189448392062     2.532424745165     0.000015667144    12.000000000000
         C           -1.189448392062    -2.545003254835     0.000019667144    12.000000000000
         H            1.576405607938     2.171587745165    -0.000029332856     1.007825032230
         H            1.576405607938    -2.184166254835    -0.000026332856     1.007825032230
         H           -1.841433392062     2.561642745165     0.877652667144     1.007825032230
         H           -1.841507392062     2.561616745165    -0.877566332856     1.007825032230
         H           -0.547337392062     3.416256745165    -0.000023332856     1.007825032230
         H           -0.547338392062    -3.428835254835    -0.000027332856     1.007825032230
         H           -1.841515392062    -2.574192254835    -0.877557332856     1.007825032230
         H           -1.841426392062    -2.574224254835     0.877661667144     1.007825032230

  Basis Set: AUG-CC-PVTZ
    Blend: AUG-CC-PVTZ
  Basis Set: (AUG-CC-PVTZ AUX)
    Blend: AUG-CC-PVTZ-JKFIT
	 Reference Energy          =    -457.4207148473208235 [Eh]
	 Singles Energy            =      -0.0000000000000000 [Eh]
	 Same-Spin Energy          =      -0.4736189061822532 [Eh]
	 Opposite-Spin Energy      =      -1.4904244116621104 [Eh]
	 Correlation Energy        =      -1.9640433178443635 [Eh]
	 Total Energy              =    -459.3847581651651808 [Eh]

	 ================> DF-SCS-MP2 Energies <==================
	-----------------------------------------------------------
	 SCS Same-Spin Scale       =       0.3333333333333333 [-]
	 SCS Opposite-Spin Scale   =       1.2000000000000000 [-]
	 SCS Same-Spin Energy      =      -0.1578729687274177 [Eh]
	 SCS Opposite-Spin Energy  =      -1.7885092939945324 [Eh]
	 SCS Correlation Energy    =      -1.9463822627219500 [Eh]
	 SCS Total Energy          =    -459.3670971100427778 [Eh]
	-----------------------------------------------------------

  Dipole Moment: [D]
     X:    -0.8217      Y:     0.2239      Z:     0.0000     Total:     0.8516

*** Psi4 exiting successfully. Buy a developer a beer!
