                               Psi4 1.4a3.dev225

  ==> Input File <==

--------------------------------------------------------------------------
#psi4
#
memory 32 gb

molecule  {
0 1
  O       -2.3098380     0.0000000     0.0000530
  O        3.0303810     0.0000000    -0.0000560
  C       -0.3206930     1.2871930     0.0000000
  C       -0.3206930    -1.2871930     0.0000010
  C       -1.0703170     0.0000000     0.0000210
  C        1.0315930     1.2651910    -0.0000170
  C        1.0315930    -1.2651910    -0.0000160
  C        1.8012615     0.0171483    -0.0000322
  C       -1.1413450     2.5387140     0.0000150
  C       -1.1413450    -2.5387140     0.0000190
  H        1.6245090     2.1778770    -0.0000300
  H        1.6245090    -2.1778770    -0.0000270
  H       -1.7933300     2.5679320     0.8776520
  H       -1.7934040     2.5679060    -0.8775670
  H       -0.4992340     3.4225460    -0.0000240
  H       -0.4992350    -3.4225460    -0.0000280
  H       -1.7934120    -2.5679030    -0.8775580
  H       -1.7933230    -2.5679350     0.8776610
units angstrom
no_reorient  #important for SAPT in psi4, default
symmetry c1  #important for SAPT in psi4, default
}

set PROPERTIES_ORIGIN ["COM"]
properties('MP2/aug-cc-pvtz', properties = ['dipole'])
--------------------------------------------------------------------------

    Molecular point group: c1
  Charge       = 0
  Multiplicity = 1
  Basis Set: AUG-CC-PVTZ
    Blend: AUG-CC-PVTZ
  Basis Set: (AUG-CC-PVTZ AUX)
    Blend: AUG-CC-PVTZ-JKFIT

    Orbital Energies [Eh]
    ---------------------

    Doubly Occupied:

       1A    -20.577399     2A    -20.567767     3A    -11.360046
       4A    -11.353087     5A    -11.288971     6A    -11.285094
       7A    -11.270480     8A    -11.269614     9A    -11.243946
      10A    -11.242195    11A     -1.401738    12A     -1.395807
      13A     -1.159803    14A     -1.101567    15A     -1.006398
      16A     -0.963965    17A     -0.929161    18A     -0.822859
      19A     -0.807137    20A     -0.721901    21A     -0.696487
      22A     -0.658269    23A     -0.618127    24A     -0.612433
      25A     -0.606350    26A     -0.594089    27A     -0.588854
      28A     -0.575108    29A     -0.557410    30A     -0.551469
      31A     -0.548610    32A     -0.533554    33A     -0.458494
      34A     -0.434155    35A     -0.400478    36A     -0.384147

  @DF-RHF Final Energy:  -457.47245410767135

   => Energetics <=

    Nuclear Repulsion Energy =            490.4903388149019179
    One-Electron Energy =               -1594.7516462613800741
    Two-Electron Energy =                 646.7888533388068026
    Total Energy =                       -457.4724541076714104
  Basis Set: (AUG-CC-PVTZ AUX)
    Blend: AUG-CC-PVTZ-RI
    Molecular point group: c1

    Geometry (in Angstrom), charge = 0, multiplicity = 1:

       Center              X                  Y                   Z               Mass
    ------------   -----------------  -----------------  -----------------  -----------------
         O           -2.346619671416    -0.001512502208     0.000053578943    15.994914619570
         O            2.993599328584    -0.001512502208    -0.000055421057    15.994914619570
         C           -0.357474671416     1.285680497792     0.000000578943    12.000000000000
         C           -0.357474671416    -1.288705502208     0.000001578943    12.000000000000
         C           -1.107098671416    -0.001512502208     0.000021578943    12.000000000000
         C            0.994811328584     1.263678497792    -0.000016421057    12.000000000000
         C            0.994811328584    -1.266703502208    -0.000015421057    12.000000000000
         C            1.764479828584     0.015635797792    -0.000031621057    12.000000000000
         C           -1.178126671416     2.537201497792     0.000015578943    12.000000000000
         C           -1.178126671416    -2.540226502208     0.000019578943    12.000000000000
         H            1.587727328584     2.176364497792    -0.000029421057     1.007825032230
         H            1.587727328584    -2.179389502208    -0.000026421057     1.007825032230
         H           -1.830111671416     2.566419497792     0.877652578943     1.007825032230
         H           -1.830185671416     2.566393497792    -0.877566421057     1.007825032230
         H           -0.536015671416     3.421033497792    -0.000023421057     1.007825032230
         H           -0.536016671416    -3.424058502208    -0.000027421057     1.007825032230
         H           -1.830193671416    -2.569415502208    -0.877557421057     1.007825032230
         H           -1.830104671416    -2.569447502208     0.877661578943     1.007825032230

  Basis Set: AUG-CC-PVTZ
    Blend: AUG-CC-PVTZ
  Basis Set: (AUG-CC-PVTZ AUX)
    Blend: AUG-CC-PVTZ-JKFIT
	 Reference Energy          =    -457.4724541076713535 [Eh]
	 Singles Energy            =      -0.0000000000000000 [Eh]
	 Same-Spin Energy          =      -0.4664324224448533 [Eh]
	 Opposite-Spin Energy      =      -1.4761700752543834 [Eh]
	 Correlation Energy        =      -1.9426024976992367 [Eh]
	 Total Energy              =    -459.4150566053705802 [Eh]

	 ================> DF-SCS-MP2 Energies <==================
	-----------------------------------------------------------
	 SCS Same-Spin Scale       =       0.3333333333333333 [-]
	 SCS Opposite-Spin Scale   =       1.2000000000000000 [-]
	 SCS Same-Spin Energy      =      -0.1554774741482844 [Eh]
	 SCS Opposite-Spin Energy  =      -1.7714040903052599 [Eh]
	 SCS Correlation Energy    =      -1.9268815644535444 [Eh]
	 SCS Total Energy          =    -459.3993356721248915 [Eh]
	-----------------------------------------------------------

  Dipole Moment: [D]
     X:    -1.0858      Y:     0.0790      Z:     0.0000     Total:     1.0887

*** Psi4 exiting successfully. Buy a developer a beer!
