                               Psi4 1.4a3.dev225

  ==> Input File <==

--------------------------------------------------------------------------
#psi4
#
memory 32 gb

molecule  {
0 1
  O       -2.3098380     0.0000000     0.0000530
  O        3.0303810     0.0000000    -0.0000560
  C       -0.3206930     1.2871930     0.0000000
  C       -0.3206930    -1.2871930     0.0000010
  C       -1.0703170     0.0000000     0.0000210
  C        1.0315930     1.2651910    -0.0000170
  C        1.0315930    -1.2651910    -0.0000160
  C        1.8167003     0.0428707    -0.0000325
  C       -1.1413450     2.5387140     0.0000150
  C       -1.1413450    -2.5387140     0.0000190
  H        1.6245090     2.1778770    -0.0000300
  H        1.6245090    -2.1778770    -0.0000270
  H       -1.7933300     2.5679320     0.8776520
  H       -1.7934040     2.5679060    -0.8775670
  H       -0.4992340     3.4225460    -0.0000240
  H       -0.4992350    -3.4225460    -0.0000280
  H       -1.7934120    -2.5679030    -0.8775580
  H       -1.7933230    -2.5679350     0.8776610
units angstrom
no_reorient  #important for SAPT in psi4, default
symmetry c1  #important for SAPT in psi4, default
}

set PROPERTIES_ORIGIN ["COM"]
properties('MP2/aug-cc-pvtz', properties = ['dipole'])
--------------------------------------------------------------------------

    Molecular point group: c1
  Charge       = 0
  Multiplicity = 1
  Basis Set: AUG-CC-PVTZ
    Blend: AUG-CC-PVTZ
  Basis Set: (AUG-CC-PVTZ AUX)
    Blend: AUG-CC-PVTZ-JKFIT

    Orbital Energies [Eh]
    ---------------------

    Doubly Occupied:

       1A    -20.576496     2A    -20.569045     3A    -11.359293
       4A    -11.352935     5A    -11.291136     6A    -11.281497
       7A    -11.270354     8A    -11.268663     9A    -11.244769
      10A    -11.240395    11A     -1.406662    12A     -1.400363
      13A     -1.158577    14A     -1.100376    15A     -1.005936
      16A     -0.962050    17A     -0.928323    18A     -0.822868
      19A     -0.805585    20A     -0.721689    21A     -0.695382
      22A     -0.662483    23A     -0.617864    24A     -0.611505
      25A     -0.604599    26A     -0.594795    27A     -0.588254
      28A     -0.576289    29A     -0.561652    30A     -0.551916
      31A     -0.547829    32A     -0.533575    33A     -0.458100
      34A     -0.431288    35A     -0.401586    36A     -0.383135

  @DF-RHF Final Energy:  -457.47192782749858

   => Energetics <=

    Nuclear Repulsion Energy =            490.4307350497739435
    One-Electron Energy =               -1594.6308003279732475
    Two-Electron Energy =                 646.7281374507008422
    Total Energy =                       -457.4719278274985754
  Basis Set: (AUG-CC-PVTZ AUX)
    Blend: AUG-CC-PVTZ-RI
    Molecular point group: c1

    Geometry (in Angstrom), charge = 0, multiplicity = 1:

       Center              X                  Y                   Z               Mass
    ------------   -----------------  -----------------  -----------------  -----------------
         O           -2.347981393516    -0.003781251110     0.000053605403    15.994914619570
         O            2.992237606484    -0.003781251110    -0.000055394597    15.994914619570
         C           -0.358836393516     1.283411748890     0.000000605403    12.000000000000
         C           -0.358836393516    -1.290974251110     0.000001605403    12.000000000000
         C           -1.108460393516    -0.003781251110     0.000021605403    12.000000000000
         C            0.993449606484     1.261409748890    -0.000016394597    12.000000000000
         C            0.993449606484    -1.268972251110    -0.000015394597    12.000000000000
         C            1.778556906484     0.039089448890    -0.000031894597    12.000000000000
         C           -1.179488393516     2.534932748890     0.000015605403    12.000000000000
         C           -1.179488393516    -2.542495251110     0.000019605403    12.000000000000
         H            1.586365606484     2.174095748890    -0.000029394597     1.007825032230
         H            1.586365606484    -2.181658251110    -0.000026394597     1.007825032230
         H           -1.831473393516     2.564150748890     0.877652605403     1.007825032230
         H           -1.831547393516     2.564124748890    -0.877566394597     1.007825032230
         H           -0.537377393516     3.418764748890    -0.000023394597     1.007825032230
         H           -0.537378393516    -3.426327251110    -0.000027394597     1.007825032230
         H           -1.831555393516    -2.571684251110    -0.877557394597     1.007825032230
         H           -1.831466393516    -2.571716251110     0.877661605403     1.007825032230

  Basis Set: AUG-CC-PVTZ
    Blend: AUG-CC-PVTZ
  Basis Set: (AUG-CC-PVTZ AUX)
    Blend: AUG-CC-PVTZ-JKFIT
	 Reference Energy          =    -457.4719278274985754 [Eh]
	 Singles Energy            =      -0.0000000000000000 [Eh]
	 Same-Spin Energy          =      -0.4659503338463427 [Eh]
	 Opposite-Spin Energy      =      -1.4752392381264023 [Eh]
	 Correlation Energy        =      -1.9411895719727450 [Eh]
	 Total Energy              =    -459.4131173994713322 [Eh]

	 ================> DF-SCS-MP2 Energies <==================
	-----------------------------------------------------------
	 SCS Same-Spin Scale       =       0.3333333333333333 [-]
	 SCS Opposite-Spin Scale   =       1.2000000000000000 [-]
	 SCS Same-Spin Energy      =      -0.1553167779487809 [Eh]
	 SCS Opposite-Spin Energy  =      -1.7702870857516828 [Eh]
	 SCS Correlation Energy    =      -1.9256038637004638 [Eh]
	 SCS Total Energy          =    -459.3975316911990490 [Eh]
	-----------------------------------------------------------

  Dipole Moment: [D]
     X:    -1.0116      Y:     0.2002      Z:     0.0000     Total:     1.0312

*** Psi4 exiting successfully. Buy a developer a beer!
