                               Psi4 1.4a3.dev225

  ==> Input File <==

--------------------------------------------------------------------------
#psi4
#
memory 32 gb

molecule  {
0 1
  O       -2.3098380     0.0000000     0.0000530
  O        3.0303810     0.0000000    -0.0000560
  C       -0.3206930     1.2871930     0.0000000
  C       -0.3206930    -1.2871930     0.0000010
  C       -0.8703170     0.0000000     0.0000158
  C        1.0315930     1.2651910    -0.0000170
  C        1.0315930    -1.2651910    -0.0000160
  C        1.7909690     0.0000000    -0.0000320
  C       -1.1413450     2.5387140     0.0000150
  C       -1.1413450    -2.5387140     0.0000190
  H        1.6245090     2.1778770    -0.0000300
  H        1.6245090    -2.1778770    -0.0000270
  H       -1.7933300     2.5679320     0.8776520
  H       -1.7934040     2.5679060    -0.8775670
  H       -0.4992340     3.4225460    -0.0000240
  H       -0.4992350    -3.4225460    -0.0000280
  H       -1.7934120    -2.5679030    -0.8775580
  H       -1.7933230    -2.5679350     0.8776610
units angstrom
no_reorient  #important for SAPT in psi4, default
symmetry c1  #important for SAPT in psi4, default
}

set PROPERTIES_ORIGIN ["COM"]
properties('MP2/aug-cc-pvtz', properties = ['dipole'])
--------------------------------------------------------------------------

    Molecular point group: c1
  Charge       = 0
  Multiplicity = 1
  Basis Set: AUG-CC-PVTZ
    Blend: AUG-CC-PVTZ
  Basis Set: (AUG-CC-PVTZ AUX)
    Blend: AUG-CC-PVTZ-JKFIT

    Orbital Energies [Eh]
    ---------------------

    Doubly Occupied:

       1A    -20.581776     2A    -20.557222     3A    -11.363975
       4A    -11.362174     5A    -11.290435     6A    -11.290404
       7A    -11.281843     8A    -11.281819     9A    -11.246215
      10A    -11.246214    11A     -1.402107    12A     -1.297374
      13A     -1.177712    14A     -1.117384    15A     -1.010659
      16A     -0.969792    17A     -0.953673    18A     -0.848437
      19A     -0.815500    20A     -0.724706    21A     -0.690660
      22A     -0.656502    23A     -0.617853    24A     -0.616354
      25A     -0.605993    26A     -0.589556    27A     -0.576993
      28A     -0.576280    29A     -0.562872    30A     -0.549757
      31A     -0.519836    32A     -0.494405    33A     -0.458143
      34A     -0.448653    35A     -0.392767    36A     -0.383086

  @DF-RHF Final Energy:  -457.39722329368180

   => Energetics <=

    Nuclear Repulsion Energy =            491.2259965214750537
    One-Electron Energy =               -1596.1281745354544910
    Two-Electron Energy =                 647.5049547202976328
    Total Energy =                       -457.3972232936818045
  Basis Set: (AUG-CC-PVTZ AUX)
    Blend: AUG-CC-PVTZ-RI
    Molecular point group: c1

    Geometry (in Angstrom), charge = 0, multiplicity = 1:

       Center              X                  Y                   Z               Mass
    ------------   -----------------  -----------------  -----------------  -----------------
         O           -2.363352117932    -0.000000000000     0.000054019949    15.994914619570
         O            2.976866882068    -0.000000000000    -0.000054980051    15.994914619570
         C           -0.374207117932     1.287193000000     0.000001019949    12.000000000000
         C           -0.374207117932    -1.287193000000     0.000002019949    12.000000000000
         C           -0.923831117932    -0.000000000000     0.000016819949    12.000000000000
         C            0.978078882068     1.265191000000    -0.000015980051    12.000000000000
         C            0.978078882068    -1.265191000000    -0.000014980051    12.000000000000
         C            1.737454882068    -0.000000000000    -0.000030980051    12.000000000000
         C           -1.194859117932     2.538714000000     0.000016019949    12.000000000000
         C           -1.194859117932    -2.538714000000     0.000020019949    12.000000000000
         H            1.570994882068     2.177877000000    -0.000028980051     1.007825032230
         H            1.570994882068    -2.177877000000    -0.000025980051     1.007825032230
         H           -1.846844117932     2.567932000000     0.877653019949     1.007825032230
         H           -1.846918117932     2.567906000000    -0.877565980051     1.007825032230
         H           -0.552748117932     3.422546000000    -0.000022980051     1.007825032230
         H           -0.552749117932    -3.422546000000    -0.000026980051     1.007825032230
         H           -1.846926117932    -2.567903000000    -0.877556980051     1.007825032230
         H           -1.846837117932    -2.567935000000     0.877662019949     1.007825032230

  Basis Set: AUG-CC-PVTZ
    Blend: AUG-CC-PVTZ
  Basis Set: (AUG-CC-PVTZ AUX)
    Blend: AUG-CC-PVTZ-JKFIT
	 Reference Energy          =    -457.3972232936818045 [Eh]
	 Singles Energy            =      -0.0000000000000000 [Eh]
	 Same-Spin Energy          =      -0.4767284725268210 [Eh]
	 Opposite-Spin Energy      =      -1.4964732415176600 [Eh]
	 Correlation Energy        =      -1.9732017140444811 [Eh]
	 Total Energy              =    -459.3704250077262827 [Eh]

	 ================> DF-SCS-MP2 Energies <==================
	-----------------------------------------------------------
	 SCS Same-Spin Scale       =       0.3333333333333333 [-]
	 SCS Opposite-Spin Scale   =       1.2000000000000000 [-]
	 SCS Same-Spin Energy      =      -0.1589094908422737 [Eh]
	 SCS Opposite-Spin Energy  =      -1.7957678898211920 [Eh]
	 SCS Correlation Energy    =      -1.9546773806634656 [Eh]
	 SCS Total Energy          =    -459.3519006743452451 [Eh]
	-----------------------------------------------------------

  Dipole Moment: [D]
     X:    -0.8882      Y:    -0.0000      Z:     0.0000     Total:     0.8882

*** Psi4 exiting successfully. Buy a developer a beer!
