                               Psi4 1.4a3.dev225

  ==> Input File <==

--------------------------------------------------------------------------
#psi4
#
memory 32 gb

molecule  {
0 1
  O       -2.3098380     0.0000000     0.0000530
  O        3.0303810     0.0000000    -0.0000560
  C       -0.3206930     1.2871930     0.0000000
  C       -0.3155849    -1.1457201     0.0000015
  C       -1.0703170     0.0000000     0.0000210
  C        1.0315930     1.2651910    -0.0000170
  C        1.0315930    -1.2651910    -0.0000160
  C        1.7909690     0.0000000    -0.0000320
  C       -1.1413450     2.5387140     0.0000150
  C       -1.1413450    -2.5387140     0.0000190
  H        1.6245090     2.1778770    -0.0000300
  H        1.6245090    -2.1778770    -0.0000270
  H       -1.7933300     2.5679320     0.8776520
  H       -1.7934040     2.5679060    -0.8775670
  H       -0.4992340     3.4225460    -0.0000240
  H       -0.4992350    -3.4225460    -0.0000280
  H       -1.7934120    -2.5679030    -0.8775580
  H       -1.7933230    -2.5679350     0.8776610
units angstrom
no_reorient  #important for SAPT in psi4, default
symmetry c1  #important for SAPT in psi4, default
}

set PROPERTIES_ORIGIN ["COM"]
properties('MP2/aug-cc-pvtz', properties = ['dipole'])
--------------------------------------------------------------------------

    Molecular point group: c1
  Charge       = 0
  Multiplicity = 1
  Basis Set: AUG-CC-PVTZ
    Blend: AUG-CC-PVTZ
  Basis Set: (AUG-CC-PVTZ AUX)
    Blend: AUG-CC-PVTZ-JKFIT

    Orbital Energies [Eh]
    ---------------------

    Doubly Occupied:

       1A    -20.578561     2A    -20.569389     3A    -11.352867
       4A    -11.351941     5A    -11.284742     6A    -11.283145
       7A    -11.281410     8A    -11.268557     9A    -11.246276
      10A    -11.241795    11A     -1.404321    12A     -1.391053
      13A     -1.170675    14A     -1.096351    15A     -1.001333
      16A     -0.962751    17A     -0.944693    18A     -0.831870
      19A     -0.805081    20A     -0.727508    21A     -0.702684
      22A     -0.653840    23A     -0.626732    24A     -0.619406
      25A     -0.606675    26A     -0.587239    27A     -0.582544
      28A     -0.564889    29A     -0.555247    30A     -0.553281
      31A     -0.534861    32A     -0.528058    33A     -0.464007
      34A     -0.432645    35A     -0.402604    36A     -0.385607

  @DF-RHF Final Energy:  -457.44861862498391

   => Energetics <=

    Nuclear Repulsion Energy =            492.0866701925005486
    One-Electron Energy =               -1597.8812995054242947
    Two-Electron Energy =                 648.3460106879398381
    Total Energy =                       -457.4486186249838511
  Basis Set: (AUG-CC-PVTZ AUX)
    Blend: AUG-CC-PVTZ-RI
    Molecular point group: c1

    Geometry (in Angstrom), charge = 0, multiplicity = 1:

       Center              X                  Y                   Z               Mass
    ------------   -----------------  -----------------  -----------------  -----------------
         O           -2.346162400640    -0.012478092499     0.000053517202    15.994914619570
         O            2.994056599360    -0.012478092499    -0.000055482798    15.994914619570
         C           -0.357017400640     1.274714907501     0.000000517202    12.000000000000
         C           -0.351909300640    -1.158198192499     0.000002017202    12.000000000000
         C           -1.106641400640    -0.012478092499     0.000021517202    12.000000000000
         C            0.995268599360     1.252712907501    -0.000016482798    12.000000000000
         C            0.995268599360    -1.277669092499    -0.000015482798    12.000000000000
         C            1.754644599360    -0.012478092499    -0.000031482798    12.000000000000
         C           -1.177669400640     2.526235907501     0.000015517202    12.000000000000
         C           -1.177669400640    -2.551192092499     0.000019517202    12.000000000000
         H            1.588184599360     2.165398907501    -0.000029482798     1.007825032230
         H            1.588184599360    -2.190355092499    -0.000026482798     1.007825032230
         H           -1.829654400640     2.555453907501     0.877652517202     1.007825032230
         H           -1.829728400640     2.555427907501    -0.877566482798     1.007825032230
         H           -0.535558400640     3.410067907501    -0.000023482798     1.007825032230
         H           -0.535559400640    -3.435024092499    -0.000027482798     1.007825032230
         H           -1.829736400640    -2.580381092499    -0.877557482798     1.007825032230
         H           -1.829647400640    -2.580413092499     0.877661517202     1.007825032230

  Basis Set: AUG-CC-PVTZ
    Blend: AUG-CC-PVTZ
  Basis Set: (AUG-CC-PVTZ AUX)
    Blend: AUG-CC-PVTZ-JKFIT
	 Reference Energy          =    -457.4486186249839079 [Eh]
	 Singles Energy            =      -0.0000000000000000 [Eh]
	 Same-Spin Energy          =      -0.4680085941003073 [Eh]
	 Opposite-Spin Energy      =      -1.4796402902151287 [Eh]
	 Correlation Energy        =      -1.9476488843154360 [Eh]
	 Total Energy              =    -459.3962675092993209 [Eh]

	 ================> DF-SCS-MP2 Energies <==================
	-----------------------------------------------------------
	 SCS Same-Spin Scale       =       0.3333333333333333 [-]
	 SCS Opposite-Spin Scale   =       1.2000000000000000 [-]
	 SCS Same-Spin Energy      =      -0.1560028647001024 [Eh]
	 SCS Opposite-Spin Energy  =      -1.7755683482581543 [Eh]
	 SCS Correlation Energy    =      -1.9315712129582567 [Eh]
	 SCS Total Energy          =    -459.3801898379421687 [Eh]
	-----------------------------------------------------------

  Dipole Moment: [D]
     X:    -0.8289      Y:    -0.0338      Z:     0.0000     Total:     0.8296

*** Psi4 exiting successfully. Buy a developer a beer!
