                               Psi4 1.4a3.dev225

  ==> Input File <==

--------------------------------------------------------------------------
#psi4
#
memory 32 gb

molecule  {
0 1
  O       -2.3098380     0.0000000     0.0000530
  O        3.0303810     0.0000000    -0.0000560
  C       -0.3206930     1.2871930     0.0000000
  C       -0.3206930    -1.2871930     0.0000010
  C       -1.0703170     0.0000000     0.0000210
  C        1.0315930     1.2651910    -0.0000170
  C        1.0315930    -1.2651910    -0.0000160
  C        1.7909690     0.0000000    -0.0000320
  C       -1.1413450     2.5387140     0.0000150
  C       -1.1413450    -2.5387140     0.0000190
  H        1.6245090     2.1778770    -0.0000300
  H        1.6245090    -2.1778770    -0.0000270
  H       -1.7933300     2.5679320     0.8776520
  H       -1.7934040     2.5679060    -0.8775670
  H       -0.4992340     3.4225460    -0.0000240
  H       -0.4992350    -3.4225460    -0.0000280
  H       -1.7337918    -2.5652342    -0.7973189
  H       -1.7933230    -2.5679350     0.8776610
units angstrom
no_reorient  #important for SAPT in psi4, default
symmetry c1  #important for SAPT in psi4, default
}

set PROPERTIES_ORIGIN ["COM"]
properties('MP2/aug-cc-pvtz', properties = ['dipole'])
--------------------------------------------------------------------------

    Molecular point group: c1
  Charge       = 0
  Multiplicity = 1
  Basis Set: AUG-CC-PVTZ
    Blend: AUG-CC-PVTZ
  Basis Set: (AUG-CC-PVTZ AUX)
    Blend: AUG-CC-PVTZ-JKFIT

    Orbital Energies [Eh]
    ---------------------

    Doubly Occupied:

       1A    -20.578147     2A    -20.566774     3A    -11.360611
       4A    -11.353029     5A    -11.287483     6A    -11.286945
       7A    -11.270276     8A    -11.269984     9A    -11.243381
      10A    -11.231598    11A     -1.402279    12A     -1.388949
      13A     -1.160915    14A     -1.103353    15A     -1.010851
      16A     -0.968618    17A     -0.931336    18A     -0.824966
      19A     -0.808838    20A     -0.722149    21A     -0.697345
      22A     -0.656329    23A     -0.624245    24A     -0.613568
      25A     -0.608137    26A     -0.595977    27A     -0.593153
      28A     -0.575531    29A     -0.557469    30A     -0.552212
      31A     -0.549107    32A     -0.534651    33A     -0.458533
      34A     -0.435664    35A     -0.399897    36A     -0.385120

  @DF-RHF Final Energy:  -457.46559412151686

   => Energetics <=

    Nuclear Repulsion Energy =            490.9967753328148774
    One-Electron Energy =               -1595.7098940793864585
    Two-Electron Energy =                 647.2475246250546661
    Total Energy =                       -457.4655941215169150
  Basis Set: (AUG-CC-PVTZ AUX)
    Blend: AUG-CC-PVTZ-RI
    Molecular point group: c1

    Geometry (in Angstrom), charge = 0, multiplicity = 1:

       Center              X                  Y                   Z               Mass
    ------------   -----------------  -----------------  -----------------  -----------------
         O           -2.346153503555    -0.000019769463    -0.000540819657    15.994914619570
         O            2.994065496445    -0.000019769463    -0.000649819657    15.994914619570
         C           -0.357008503555     1.287173230537    -0.000593819657    12.000000000000
         C           -0.357008503555    -1.287212769463    -0.000592819657    12.000000000000
         C           -1.106632503555    -0.000019769463    -0.000572819657    12.000000000000
         C            0.995277496445     1.265171230537    -0.000610819657    12.000000000000
         C            0.995277496445    -1.265210769463    -0.000609819657    12.000000000000
         C            1.754653496445    -0.000019769463    -0.000625819657    12.000000000000
         C           -1.177660503555     2.538694230537    -0.000578819657    12.000000000000
         C           -1.177660503555    -2.538733769463    -0.000574819657    12.000000000000
         H            1.588193496445     2.177857230537    -0.000623819657     1.007825032230
         H            1.588193496445    -2.177896769463    -0.000620819657     1.007825032230
         H           -1.829645503555     2.567912230537     0.877058180343     1.007825032230
         H           -1.829719503555     2.567886230537    -0.878160819657     1.007825032230
         H           -0.535549503555     3.422526230537    -0.000617819657     1.007825032230
         H           -0.535550503555    -3.422565769463    -0.000621819657     1.007825032230
         H           -1.770107303555    -2.565253969463    -0.797912719657     1.007825032230
         H           -1.829638503555    -2.567954769463     0.877067180343     1.007825032230

  Basis Set: AUG-CC-PVTZ
    Blend: AUG-CC-PVTZ
  Basis Set: (AUG-CC-PVTZ AUX)
    Blend: AUG-CC-PVTZ-JKFIT
	 Reference Energy          =    -457.4655941215168582 [Eh]
	 Singles Energy            =      -0.0000000000000000 [Eh]
	 Same-Spin Energy          =      -0.4667915072300352 [Eh]
	 Opposite-Spin Energy      =      -1.4763937947940495 [Eh]
	 Correlation Energy        =      -1.9431853020240846 [Eh]
	 Total Energy              =    -459.4087794235409206 [Eh]

	 ================> DF-SCS-MP2 Energies <==================
	-----------------------------------------------------------
	 SCS Same-Spin Scale       =       0.3333333333333333 [-]
	 SCS Opposite-Spin Scale   =       1.2000000000000000 [-]
	 SCS Same-Spin Energy      =      -0.1555971690766784 [Eh]
	 SCS Opposite-Spin Energy  =      -1.7716725537528595 [Eh]
	 SCS Correlation Energy    =      -1.9272697228295379 [Eh]
	 SCS Total Energy          =    -459.3928638443463797 [Eh]
	-----------------------------------------------------------

  Dipole Moment: [D]
     X:    -1.1394      Y:    -0.0086      Z:    -0.0119     Total:     1.1395

*** Psi4 exiting successfully. Buy a developer a beer!
