                               Psi4 1.4a3.dev225

  ==> Input File <==

--------------------------------------------------------------------------
#psi4
#
memory 32 gb

molecule  {
0 1
  O       -2.3098380     0.0000000     0.0000530
  O        3.0303810     0.0000000    -0.0000560
  C       -0.3206930     1.2871930     0.0000000
  C       -0.3206930    -1.2871930     0.0000010
  C       -1.0703170     0.0000000     0.0000210
  C        1.0315930     1.2651910    -0.0000170
  C        1.0315930    -1.2651910    -0.0000160
  C        1.7909690     0.0000000    -0.0000320
  C       -1.1303780     2.5219890     0.0000148
  C       -1.1413450    -2.5387140     0.0000190
  H        1.6245090     2.1778770    -0.0000300
  H        1.6245090    -2.1778770    -0.0000270
  H       -1.7933300     2.5679320     0.8776520
  H       -1.7934040     2.5679060    -0.8775670
  H       -0.4992340     3.4225460    -0.0000240
  H       -0.4992350    -3.4225460    -0.0000280
  H       -1.7934120    -2.5679030    -0.8775580
  H       -1.7933230    -2.5679350     0.8776610
units angstrom
no_reorient  #important for SAPT in psi4, default
symmetry c1  #important for SAPT in psi4, default
}

set PROPERTIES_ORIGIN ["COM"]
properties('MP2/aug-cc-pvtz', properties = ['dipole'])
--------------------------------------------------------------------------

    Molecular point group: c1
  Charge       = 0
  Multiplicity = 1
  Basis Set: AUG-CC-PVTZ
    Blend: AUG-CC-PVTZ
  Basis Set: (AUG-CC-PVTZ AUX)
    Blend: AUG-CC-PVTZ-JKFIT

    Orbital Energies [Eh]
    ---------------------

    Doubly Occupied:

       1A    -20.578131     2A    -20.566891     3A    -11.360611
       4A    -11.353197     5A    -11.287592     6A    -11.286875
       7A    -11.270362     8A    -11.270327     9A    -11.243827
      10A    -11.243435    11A     -1.402292    12A     -1.389073
      13A     -1.161598    14A     -1.103900    15A     -1.008066
      16A     -0.964984    17A     -0.929476    18A     -0.822920
      19A     -0.808050    20A     -0.722464    21A     -0.697316
      22A     -0.656476    23A     -0.618344    24A     -0.613409
      25A     -0.608564    26A     -0.595174    27A     -0.588155
      28A     -0.575080    29A     -0.554254    30A     -0.551463
      31A     -0.546492    32A     -0.532795    33A     -0.458591
      34A     -0.436167    35A     -0.399530    36A     -0.384236

  @DF-RHF Final Energy:  -457.47087924575675

   => Energetics <=

    Nuclear Repulsion Energy =            490.9002099510747712
    One-Electron Energy =               -1595.5619473429696882
    Two-Electron Energy =                 647.1908581461381118
    Total Energy =                       -457.4708792457566915
  Basis Set: (AUG-CC-PVTZ AUX)
    Blend: AUG-CC-PVTZ-RI
    Molecular point group: c1

    Geometry (in Angstrom), charge = 0, multiplicity = 1:

       Center              X                  Y                   Z               Mass
    ------------   -----------------  -----------------  -----------------  -----------------
         O           -2.346679163187     0.001475166601     0.000053578943    15.994914619570
         O            2.993539836813     0.001475166601    -0.000055421057    15.994914619570
         C           -0.357534163187     1.288668166601     0.000000578943    12.000000000000
         C           -0.357534163187    -1.285717833399     0.000001578943    12.000000000000
         C           -1.107158163187     0.001475166601     0.000021578943    12.000000000000
         C            0.994751836813     1.266666166601    -0.000016421057    12.000000000000
         C            0.994751836813    -1.263715833399    -0.000015421057    12.000000000000
         C            1.754127836813     0.001475166601    -0.000031421057    12.000000000000
         C           -1.167219163187     2.523464166601     0.000015378943    12.000000000000
         C           -1.178186163187    -2.537238833399     0.000019578943    12.000000000000
         H            1.587667836813     2.179352166601    -0.000029421057     1.007825032230
         H            1.587667836813    -2.176401833399    -0.000026421057     1.007825032230
         H           -1.830171163187     2.569407166601     0.877652578943     1.007825032230
         H           -1.830245163187     2.569381166601    -0.877566421057     1.007825032230
         H           -0.536075163187     3.424021166601    -0.000023421057     1.007825032230
         H           -0.536076163187    -3.421070833399    -0.000027421057     1.007825032230
         H           -1.830253163187    -2.566427833399    -0.877557421057     1.007825032230
         H           -1.830164163187    -2.566459833399     0.877661578943     1.007825032230

  Basis Set: AUG-CC-PVTZ
    Blend: AUG-CC-PVTZ
  Basis Set: (AUG-CC-PVTZ AUX)
    Blend: AUG-CC-PVTZ-JKFIT
	 Reference Energy          =    -457.4708792457567483 [Eh]
	 Singles Energy            =      -0.0000000000000000 [Eh]
	 Same-Spin Energy          =      -0.4670373805740415 [Eh]
	 Opposite-Spin Energy      =      -1.4771212704305980 [Eh]
	 Correlation Energy        =      -1.9441586510046396 [Eh]
	 Total Energy              =    -459.4150378967613619 [Eh]

	 ================> DF-SCS-MP2 Energies <==================
	-----------------------------------------------------------
	 SCS Same-Spin Scale       =       0.3333333333333333 [-]
	 SCS Opposite-Spin Scale   =       1.2000000000000000 [-]
	 SCS Same-Spin Energy      =      -0.1556791268580138 [Eh]
	 SCS Opposite-Spin Energy  =      -1.7725455245167177 [Eh]
	 SCS Correlation Energy    =      -1.9282246513747314 [Eh]
	 SCS Total Energy          =    -459.3991038971314538 [Eh]
	-----------------------------------------------------------

  Dipole Moment: [D]
     X:    -1.1436      Y:     0.0076      Z:     0.0000     Total:     1.1437

*** Psi4 exiting successfully. Buy a developer a beer!
