                               Psi4 1.4a3.dev225

  ==> Input File <==

--------------------------------------------------------------------------
#psi4
#
memory 32 gb

molecule  {
0 1
  O       -2.3098380     0.0000000     0.0000530
  O        3.0303810     0.0000000    -0.0000560
  C       -0.3206930     1.2871930     0.0000000
  C       -0.3206930    -1.2871930     0.0000010
  C       -1.0703170     0.0000000     0.0000210
  C        1.0315930     1.2651910    -0.0000170
  C        1.0315930    -1.2651910    -0.0000160
  C        1.7008639     0.0498895    -0.0000303
  C       -1.1413450     2.5387140     0.0000150
  C       -1.1413450    -2.5387140     0.0000190
  H        1.6245090     2.1778770    -0.0000300
  H        1.6245090    -2.1778770    -0.0000270
  H       -1.7933300     2.5679320     0.8776520
  H       -1.7934040     2.5679060    -0.8775670
  H       -0.4992340     3.4225460    -0.0000240
  H       -0.4992350    -3.4225460    -0.0000280
  H       -1.7934120    -2.5679030    -0.8775580
  H       -1.7933230    -2.5679350     0.8776610
units angstrom
no_reorient  #important for SAPT in psi4, default
symmetry c1  #important for SAPT in psi4, default
}

set PROPERTIES_ORIGIN ["COM"]
properties('MP2/aug-cc-pvtz', properties = ['dipole'])
--------------------------------------------------------------------------

    Molecular point group: c1
  Charge       = 0
  Multiplicity = 1
  Basis Set: AUG-CC-PVTZ
    Blend: AUG-CC-PVTZ
  Basis Set: (AUG-CC-PVTZ AUX)
    Blend: AUG-CC-PVTZ-JKFIT

    Orbital Energies [Eh]
    ---------------------

    Doubly Occupied:

       1A    -20.583687     2A    -20.558335     3A    -11.365108
       4A    -11.353512     5A    -11.298734     6A    -11.286486
       7A    -11.274426     8A    -11.268939     9A    -11.249172
      10A    -11.243715    11A     -1.407091    12A     -1.333742
      13A     -1.170882    14A     -1.108367    15A     -1.018392
      16A     -0.972029    17A     -0.934526    18A     -0.828269
      19A     -0.812155    20A     -0.724303    21A     -0.703456
      22A     -0.639374    23A     -0.622156    24A     -0.618134
      25A     -0.617375    26A     -0.592342    27A     -0.585683
      28A     -0.571236    29A     -0.552421    30A     -0.546293
      31A     -0.543781    32A     -0.525586    33A     -0.457338
      34A     -0.443219    35A     -0.390775    36A     -0.388255

  @DF-RHF Final Energy:  -457.44508872885143

   => Energetics <=

    Nuclear Repulsion Energy =            491.0444367882812458
    One-Electron Energy =               -1595.8004611446765466
    Two-Electron Energy =                 647.3109356275439268
    Total Energy =                       -457.4450887288513741
  Basis Set: (AUG-CC-PVTZ AUX)
    Blend: AUG-CC-PVTZ-RI
    Molecular point group: c1

    Geometry (in Angstrom), charge = 0, multiplicity = 1:

       Center              X                  Y                   Z               Mass
    ------------   -----------------  -----------------  -----------------  -----------------
         O           -2.337764473427    -0.004400318335     0.000053411360    15.994914619570
         O            3.002454526573    -0.004400318335    -0.000055588640    15.994914619570
         C           -0.348619473427     1.282792681665     0.000000411360    12.000000000000
         C           -0.348619473427    -1.291593318335     0.000001411360    12.000000000000
         C           -1.098243473427    -0.004400318335     0.000021411360    12.000000000000
         C            1.003666526573     1.260790681665    -0.000016588640    12.000000000000
         C            1.003666526573    -1.269591318335    -0.000015588640    12.000000000000
         C            1.672937426573     0.045489181665    -0.000029888640    12.000000000000
         C           -1.169271473427     2.534313681665     0.000015411360    12.000000000000
         C           -1.169271473427    -2.543114318335     0.000019411360    12.000000000000
         H            1.596582526573     2.173476681665    -0.000029588640     1.007825032230
         H            1.596582526573    -2.182277318335    -0.000026588640     1.007825032230
         H           -1.821256473427     2.563531681665     0.877652411360     1.007825032230
         H           -1.821330473427     2.563505681665    -0.877566588640     1.007825032230
         H           -0.527160473427     3.418145681665    -0.000023588640     1.007825032230
         H           -0.527161473427    -3.426946318335    -0.000027588640     1.007825032230
         H           -1.821338473427    -2.572303318335    -0.877557588640     1.007825032230
         H           -1.821249473427    -2.572335318335     0.877661411360     1.007825032230

  Basis Set: AUG-CC-PVTZ
    Blend: AUG-CC-PVTZ
  Basis Set: (AUG-CC-PVTZ AUX)
    Blend: AUG-CC-PVTZ-JKFIT
	 Reference Energy          =    -457.4450887288514309 [Eh]
	 Singles Energy            =      -0.0000000000000000 [Eh]
	 Same-Spin Energy          =      -0.4710456094143314 [Eh]
	 Opposite-Spin Energy      =      -1.4848850511686094 [Eh]
	 Correlation Energy        =      -1.9559306605829407 [Eh]
	 Total Energy              =    -459.4010193894343956 [Eh]

	 ================> DF-SCS-MP2 Energies <==================
	-----------------------------------------------------------
	 SCS Same-Spin Scale       =       0.3333333333333333 [-]
	 SCS Opposite-Spin Scale   =       1.2000000000000000 [-]
	 SCS Same-Spin Energy      =      -0.1570152031381105 [Eh]
	 SCS Opposite-Spin Energy  =      -1.7818620614023313 [Eh]
	 SCS Correlation Energy    =      -1.9388772645404417 [Eh]
	 SCS Total Energy          =    -459.3839659933918824 [Eh]
	-----------------------------------------------------------

  Dipole Moment: [D]
     X:    -1.3878      Y:     0.2152      Z:     0.0000     Total:     1.4044

*** Psi4 exiting successfully. Buy a developer a beer!
