                               Psi4 1.4a3.dev225

  ==> Input File <==

--------------------------------------------------------------------------
#psi4
#
memory 32 gb

molecule  {
0 1
  O       -2.3098380     0.0000000     0.0000530
  O        3.0303810     0.0000000    -0.0000560
  C       -0.3206930     1.2871930     0.0000000
  C       -0.3206930    -1.2871930     0.0000010
  C       -1.0703170     0.0000000     0.0000210
  C        1.0315930     1.2651910    -0.0000170
  C        1.0315930    -1.2651910    -0.0000160
  C        1.7909690     0.0000000    -0.0000320
  C       -1.1687624     2.5805265     0.0000155
  C       -1.1413450    -2.5387140     0.0000190
  H        1.6245090     2.1778770    -0.0000300
  H        1.6245090    -2.1778770    -0.0000270
  H       -1.7933300     2.5679320     0.8776520
  H       -1.7934040     2.5679060    -0.8775670
  H       -0.4992340     3.4225460    -0.0000240
  H       -0.4992350    -3.4225460    -0.0000280
  H       -1.7934120    -2.5679030    -0.8775580
  H       -1.7933230    -2.5679350     0.8776610
units angstrom
no_reorient  #important for SAPT in psi4, default
symmetry c1  #important for SAPT in psi4, default
}

set PROPERTIES_ORIGIN ["COM"]
properties('MP2/aug-cc-pvtz', properties = ['dipole'])
--------------------------------------------------------------------------

    Molecular point group: c1
  Charge       = 0
  Multiplicity = 1
  Basis Set: AUG-CC-PVTZ
    Blend: AUG-CC-PVTZ
  Basis Set: (AUG-CC-PVTZ AUX)
    Blend: AUG-CC-PVTZ-JKFIT

    Orbital Energies [Eh]
    ---------------------

    Doubly Occupied:

       1A    -20.577724     2A    -20.566846     3A    -11.360409
       4A    -11.353197     5A    -11.288933     6A    -11.287455
       7A    -11.270229     8A    -11.270196     9A    -11.243327
      10A    -11.242939    11A     -1.401717    12A     -1.389017
      13A     -1.159186    14A     -1.098636    15A     -1.005398
      16A     -0.965143    17A     -0.930332    18A     -0.823629
      19A     -0.807521    20A     -0.721036    21A     -0.696975
      22A     -0.653940    23A     -0.618890    24A     -0.612796
      25A     -0.605923    26A     -0.592342    27A     -0.590886
      28A     -0.571600    29A     -0.557295    30A     -0.556379
      31A     -0.545431    32A     -0.534552    33A     -0.458482
      34A     -0.434226    35A     -0.400098    36A     -0.385569

  @DF-RHF Final Energy:  -457.47008866785768

   => Energetics <=

    Nuclear Repulsion Energy =            489.6367515949330027
    One-Electron Energy =               -1593.0571770365788780
    Two-Electron Energy =                 645.9503367737881945
    Total Energy =                       -457.4700886678576808
  Basis Set: (AUG-CC-PVTZ AUX)
    Blend: AUG-CC-PVTZ-RI
    Molecular point group: c1

    Geometry (in Angstrom), charge = 0, multiplicity = 1:

       Center              X                  Y                   Z               Mass
    ------------   -----------------  -----------------  -----------------  -----------------
         O           -2.343293609532    -0.003687916503     0.000053517202    15.994914619570
         O            2.996925390468    -0.003687916503    -0.000055482798    15.994914619570
         C           -0.354148609532     1.283505083497     0.000000517202    12.000000000000
         C           -0.354148609532    -1.290880916503     0.000001517202    12.000000000000
         C           -1.103772609532    -0.003687916503     0.000021517202    12.000000000000
         C            0.998137390468     1.261503083497    -0.000016482798    12.000000000000
         C            0.998137390468    -1.268878916503    -0.000015482798    12.000000000000
         C            1.757513390468    -0.003687916503    -0.000031482798    12.000000000000
         C           -1.202218009532     2.576838583497     0.000016017202    12.000000000000
         C           -1.174800609532    -2.542401916503     0.000019517202    12.000000000000
         H            1.591053390468     2.174189083497    -0.000029482798     1.007825032230
         H            1.591053390468    -2.181564916503    -0.000026482798     1.007825032230
         H           -1.826785609532     2.564244083497     0.877652517202     1.007825032230
         H           -1.826859609532     2.564218083497    -0.877566482798     1.007825032230
         H           -0.532689609532     3.418858083497    -0.000023482798     1.007825032230
         H           -0.532690609532    -3.426233916503    -0.000027482798     1.007825032230
         H           -1.826867609532    -2.571590916503    -0.877557482798     1.007825032230
         H           -1.826778609532    -2.571622916503     0.877661517202     1.007825032230

  Basis Set: AUG-CC-PVTZ
    Blend: AUG-CC-PVTZ
  Basis Set: (AUG-CC-PVTZ AUX)
    Blend: AUG-CC-PVTZ-JKFIT
	 Reference Energy          =    -457.4700886678576808 [Eh]
	 Singles Energy            =      -0.0000000000000000 [Eh]
	 Same-Spin Energy          =      -0.4664202915199741 [Eh]
	 Opposite-Spin Energy      =      -1.4766118790435820 [Eh]
	 Correlation Energy        =      -1.9430321705635560 [Eh]
	 Total Energy              =    -459.4131208384212641 [Eh]

	 ================> DF-SCS-MP2 Energies <==================
	-----------------------------------------------------------
	 SCS Same-Spin Scale       =       0.3333333333333333 [-]
	 SCS Opposite-Spin Scale   =       1.2000000000000000 [-]
	 SCS Same-Spin Energy      =      -0.1554734305066580 [Eh]
	 SCS Opposite-Spin Energy  =      -1.7719342548522985 [Eh]
	 SCS Correlation Energy    =      -1.9274076853589566 [Eh]
	 SCS Total Energy          =    -459.3974963532166385 [Eh]
	-----------------------------------------------------------

  Dipole Moment: [D]
     X:    -1.1074      Y:    -0.0162      Z:     0.0000     Total:     1.1075

*** Psi4 exiting successfully. Buy a developer a beer!
