                               Psi4 1.4a3.dev225

  ==> Input File <==

--------------------------------------------------------------------------
#psi4
#
memory 32 gb

molecule  {
0 1
  O       -2.3098380     0.0000000     0.0000530
  O        3.0303810     0.0000000    -0.0000560
  C       -0.3206930     1.2871930     0.0000000
  C       -0.3206930    -1.2871930     0.0000010
  C       -1.0477382     0.0128867     0.0000208
  C        1.0315930     1.2651910    -0.0000170
  C        1.0315930    -1.2651910    -0.0000160
  C        1.7909690     0.0000000    -0.0000320
  C       -1.1413450     2.5387140     0.0000150
  C       -1.1413450    -2.5387140     0.0000190
  H        1.6245090     2.1778770    -0.0000300
  H        1.6245090    -2.1778770    -0.0000270
  H       -1.7933300     2.5679320     0.8776520
  H       -1.7934040     2.5679060    -0.8775670
  H       -0.4992340     3.4225460    -0.0000240
  H       -0.4992350    -3.4225460    -0.0000280
  H       -1.7934120    -2.5679030    -0.8775580
  H       -1.7933230    -2.5679350     0.8776610
units angstrom
no_reorient  #important for SAPT in psi4, default
symmetry c1  #important for SAPT in psi4, default
}

set PROPERTIES_ORIGIN ["COM"]
properties('MP2/aug-cc-pvtz', properties = ['dipole'])
--------------------------------------------------------------------------

    Molecular point group: c1
  Charge       = 0
  Multiplicity = 1
  Basis Set: AUG-CC-PVTZ
    Blend: AUG-CC-PVTZ
  Basis Set: (AUG-CC-PVTZ AUX)
    Blend: AUG-CC-PVTZ-JKFIT

    Orbital Energies [Eh]
    ---------------------

    Doubly Occupied:

       1A    -20.576058     2A    -20.568508     3A    -11.361015
       4A    -11.354439     5A    -11.288507     6A    -11.287565
       7A    -11.273052     8A    -11.270188     9A    -11.243902
      10A    -11.243618    11A     -1.391258    12A     -1.386635
      13A     -1.163277    14A     -1.103840    15A     -1.007723
      16A     -0.965564    17A     -0.933096    18A     -0.825683
      19A     -0.808800    20A     -0.721882    21A     -0.694951
      22A     -0.655445    23A     -0.617537    24A     -0.609384
      25A     -0.608454    26A     -0.594752    27A     -0.589298
      28A     -0.574294    29A     -0.555808    30A     -0.550305
      31A     -0.547491    32A     -0.526866    33A     -0.459868
      34A     -0.438349    35A     -0.399079    36A     -0.385669

  @DF-RHF Final Energy:  -457.46758576193480

   => Energetics <=

    Nuclear Repulsion Energy =            490.5697980025283300
    One-Electron Energy =               -1594.9104488360799223
    Two-Electron Energy =                 646.8730650716166792
    Total Energy =                       -457.4675857619348562
  Basis Set: (AUG-CC-PVTZ AUX)
    Blend: AUG-CC-PVTZ-RI
    Molecular point group: c1

    Geometry (in Angstrom), charge = 0, multiplicity = 1:

       Center              X                  Y                   Z               Mass
    ------------   -----------------  -----------------  -----------------  -----------------
         O           -2.347703338944    -0.001136623584     0.000053578943    15.994914619570
         O            2.992515661056    -0.001136623584    -0.000055421057    15.994914619570
         C           -0.358558338944     1.286056376416     0.000000578943    12.000000000000
         C           -0.358558338944    -1.288329623584     0.000001578943    12.000000000000
         C           -1.085603538944     0.011750076416     0.000021378943    12.000000000000
         C            0.993727661056     1.264054376416    -0.000016421057    12.000000000000
         C            0.993727661056    -1.266327623584    -0.000015421057    12.000000000000
         C            1.753103661056    -0.001136623584    -0.000031421057    12.000000000000
         C           -1.179210338944     2.537577376416     0.000015578943    12.000000000000
         C           -1.179210338944    -2.539850623584     0.000019578943    12.000000000000
         H            1.586643661056     2.176740376416    -0.000029421057     1.007825032230
         H            1.586643661056    -2.179013623584    -0.000026421057     1.007825032230
         H           -1.831195338944     2.566795376416     0.877652578943     1.007825032230
         H           -1.831269338944     2.566769376416    -0.877566421057     1.007825032230
         H           -0.537099338944     3.421409376416    -0.000023421057     1.007825032230
         H           -0.537100338944    -3.423682623584    -0.000027421057     1.007825032230
         H           -1.831277338944    -2.569039623584    -0.877557421057     1.007825032230
         H           -1.831188338944    -2.569071623584     0.877661578943     1.007825032230

  Basis Set: AUG-CC-PVTZ
    Blend: AUG-CC-PVTZ
  Basis Set: (AUG-CC-PVTZ AUX)
    Blend: AUG-CC-PVTZ-JKFIT
	 Reference Energy          =    -457.4675857619347994 [Eh]
	 Singles Energy            =      -0.0000000000000000 [Eh]
	 Same-Spin Energy          =      -0.4677374401676250 [Eh]
	 Opposite-Spin Energy      =      -1.4787757790525657 [Eh]
	 Correlation Energy        =      -1.9465132192201908 [Eh]
	 Total Energy              =    -459.4140989811550071 [Eh]

	 ================> DF-SCS-MP2 Energies <==================
	-----------------------------------------------------------
	 SCS Same-Spin Scale       =       0.3333333333333333 [-]
	 SCS Opposite-Spin Scale   =       1.2000000000000000 [-]
	 SCS Same-Spin Energy      =      -0.1559124800558750 [Eh]
	 SCS Opposite-Spin Energy  =      -1.7745309348630789 [Eh]
	 SCS Correlation Energy    =      -1.9304434149189538 [Eh]
	 SCS Total Energy          =    -459.3980291768537541 [Eh]
	-----------------------------------------------------------

  Dipole Moment: [D]
     X:    -1.0415      Y:     0.0460      Z:     0.0000     Total:     1.0425

*** Psi4 exiting successfully. Buy a developer a beer!
