                               Psi4 1.4a3.dev225

  ==> Input File <==

--------------------------------------------------------------------------
#psi4
#
memory 32 gb

molecule  {
0 1
  O       -2.3098380     0.0000000     0.0000530
  O        3.0303810     0.0000000    -0.0000560
  C       -0.3206930     1.2871930     0.0000000
  C       -0.3206930    -1.2871930     0.0000010
  C       -1.1703170     0.0000000     0.0000236
  C        1.0315930     1.2651910    -0.0000170
  C        1.0315930    -1.2651910    -0.0000160
  C        1.7909690     0.0000000    -0.0000320
  C       -1.1413450     2.5387140     0.0000150
  C       -1.1413450    -2.5387140     0.0000190
  H        1.6245090     2.1778770    -0.0000300
  H        1.6245090    -2.1778770    -0.0000270
  H       -1.7933300     2.5679320     0.8776520
  H       -1.7934040     2.5679060    -0.8775670
  H       -0.4992340     3.4225460    -0.0000240
  H       -0.4992350    -3.4225460    -0.0000280
  H       -1.7934120    -2.5679030    -0.8775580
  H       -1.7933230    -2.5679350     0.8776610
units angstrom
no_reorient  #important for SAPT in psi4, default
symmetry c1  #important for SAPT in psi4, default
}

set PROPERTIES_ORIGIN ["COM"]
properties('MP2/aug-cc-pvtz', properties = ['dipole'])
--------------------------------------------------------------------------

    Molecular point group: c1
  Charge       = 0
  Multiplicity = 1
  Basis Set: AUG-CC-PVTZ
    Blend: AUG-CC-PVTZ
  Basis Set: (AUG-CC-PVTZ AUX)
    Blend: AUG-CC-PVTZ-JKFIT

    Orbital Energies [Eh]
    ---------------------

    Doubly Occupied:

       1A    -20.586691     2A    -20.559828     3A    -11.357939
       4A    -11.347619     5A    -11.284318     6A    -11.284293
       7A    -11.264450     8A    -11.264427     9A    -11.241762
      10A    -11.241761    11A     -1.475567    12A     -1.382999
      13A     -1.149811    14A     -1.095550    15A     -1.004981
      16A     -0.962264    17A     -0.913656    18A     -0.813762
      19A     -0.803495    20A     -0.725804    21A     -0.714621
      22A     -0.656283    23A     -0.630463    24A     -0.622863
      25A     -0.603067    26A     -0.588738    27A     -0.587166
      28A     -0.577397    29A     -0.564460    30A     -0.557175
      31A     -0.553187    32A     -0.549935    33A     -0.449644
      34A     -0.419320    35A     -0.399691    36A     -0.379904

  @DF-RHF Final Energy:  -457.46680274225020

   => Energetics <=

    Nuclear Repulsion Energy =            490.5517082905894881
    One-Electron Energy =               -1594.8072408315749726
    Two-Electron Energy =                 646.7887297987354032
    Total Energy =                       -457.4668027422501382
  Basis Set: (AUG-CC-PVTZ AUX)
    Blend: AUG-CC-PVTZ-RI
    Molecular point group: c1

    Geometry (in Angstrom), charge = 0, multiplicity = 1:

       Center              X                  Y                   Z               Mass
    ------------   -----------------  -----------------  -----------------  -----------------
         O           -2.336891730468    -0.000000000000     0.000053331979    15.994914619570
         O            3.003327269532    -0.000000000000    -0.000055668021    15.994914619570
         C           -0.347746730468     1.287193000000     0.000000331979    12.000000000000
         C           -0.347746730468    -1.287193000000     0.000001331979    12.000000000000
         C           -1.197370730468    -0.000000000000     0.000023931979    12.000000000000
         C            1.004539269532     1.265191000000    -0.000016668021    12.000000000000
         C            1.004539269532    -1.265191000000    -0.000015668021    12.000000000000
         C            1.763915269532    -0.000000000000    -0.000031668021    12.000000000000
         C           -1.168398730468     2.538714000000     0.000015331979    12.000000000000
         C           -1.168398730468    -2.538714000000     0.000019331979    12.000000000000
         H            1.597455269532     2.177877000000    -0.000029668021     1.007825032230
         H            1.597455269532    -2.177877000000    -0.000026668021     1.007825032230
         H           -1.820383730468     2.567932000000     0.877652331979     1.007825032230
         H           -1.820457730468     2.567906000000    -0.877566668021     1.007825032230
         H           -0.526287730468     3.422546000000    -0.000023668021     1.007825032230
         H           -0.526288730468    -3.422546000000    -0.000027668021     1.007825032230
         H           -1.820465730468    -2.567903000000    -0.877557668021     1.007825032230
         H           -1.820376730468    -2.567935000000     0.877661331979     1.007825032230

  Basis Set: AUG-CC-PVTZ
    Blend: AUG-CC-PVTZ
  Basis Set: (AUG-CC-PVTZ AUX)
    Blend: AUG-CC-PVTZ-JKFIT
	 Reference Energy          =    -457.4668027422501950 [Eh]
	 Singles Energy            =      -0.0000000000000000 [Eh]
	 Same-Spin Energy          =      -0.4635148840930665 [Eh]
	 Opposite-Spin Energy      =      -1.4700078488333372 [Eh]
	 Correlation Energy        =      -1.9335227329264038 [Eh]
	 Total Energy              =    -459.4003254751766008 [Eh]

	 ================> DF-SCS-MP2 Energies <==================
	-----------------------------------------------------------
	 SCS Same-Spin Scale       =       0.3333333333333333 [-]
	 SCS Opposite-Spin Scale   =       1.2000000000000000 [-]
	 SCS Same-Spin Energy      =      -0.1545049613643555 [Eh]
	 SCS Opposite-Spin Energy  =      -1.7640094186000046 [Eh]
	 SCS Correlation Energy    =      -1.9185143799643600 [Eh]
	 SCS Total Energy          =    -459.3853171222145306 [Eh]
	-----------------------------------------------------------

  Dipole Moment: [D]
     X:    -1.6798      Y:    -0.0000      Z:     0.0000     Total:     1.6798

*** Psi4 exiting successfully. Buy a developer a beer!
