                               Psi4 1.4a3.dev225

  ==> Input File <==

--------------------------------------------------------------------------
#psi4
#
memory 32 gb

molecule  {
0 1
  O       -2.3098380     0.0000000     0.0000530
  O        3.0303810     0.0000000    -0.0000560
  C       -0.3206930     1.2871930     0.0000000
  C       -0.3206930    -1.2871930     0.0000010
  C       -1.0703170     0.0000000     0.0000210
  C        1.0315930     1.2651910    -0.0000170
  C        1.0315930    -1.2651910    -0.0000160
  C        1.7806765     0.0171483    -0.0000318
  C       -1.1413450     2.5387140     0.0000150
  C       -1.1413450    -2.5387140     0.0000190
  H        1.6245090     2.1778770    -0.0000300
  H        1.6245090    -2.1778770    -0.0000270
  H       -1.7933300     2.5679320     0.8776520
  H       -1.7934040     2.5679060    -0.8775670
  H       -0.4992340     3.4225460    -0.0000240
  H       -0.4992350    -3.4225460    -0.0000280
  H       -1.7934120    -2.5679030    -0.8775580
  H       -1.7933230    -2.5679350     0.8776610
units angstrom
no_reorient  #important for SAPT in psi4, default
symmetry c1  #important for SAPT in psi4, default
}

set PROPERTIES_ORIGIN ["COM"]
properties('MP2/aug-cc-pvtz', properties = ['dipole'])
--------------------------------------------------------------------------

    Molecular point group: c1
  Charge       = 0
  Multiplicity = 1
  Basis Set: AUG-CC-PVTZ
    Blend: AUG-CC-PVTZ
  Basis Set: (AUG-CC-PVTZ AUX)
    Blend: AUG-CC-PVTZ-JKFIT

    Orbital Energies [Eh]
    ---------------------

    Doubly Occupied:

       1A    -20.578663     2A    -20.565989     3A    -11.361086
       4A    -11.353338     5A    -11.290104     6A    -11.286181
       7A    -11.271079     8A    -11.269979     9A    -11.244649
      10A    -11.242886    11A     -1.402660    12A     -1.382191
      13A     -1.162016    14A     -1.102976    15A     -1.008589
      16A     -0.965797    17A     -0.930326    18A     -0.823743
      19A     -0.808468    20A     -0.722179    21A     -0.697951
      22A     -0.653137    23A     -0.618781    24A     -0.613658
      25A     -0.608503    26A     -0.592935    27A     -0.589595
      28A     -0.573729    29A     -0.552716    30A     -0.550913
      31A     -0.549382    32A     -0.533078    33A     -0.458555
      34A     -0.436937    35A     -0.398950    36A     -0.385182

  @DF-RHF Final Energy:  -457.46973628350270

   => Energetics <=

    Nuclear Repulsion Energy =            490.5800975481710680
    One-Electron Energy =               -1594.9258639559798212
    Two-Electron Energy =                 646.8760301243059985
    Total Energy =                       -457.4697362835026979
  Basis Set: (AUG-CC-PVTZ AUX)
    Blend: AUG-CC-PVTZ-RI
    Molecular point group: c1

    Geometry (in Angstrom), charge = 0, multiplicity = 1:

       Center              X                  Y                   Z               Mass
    ------------   -----------------  -----------------  -----------------  -----------------
         O           -2.344804047829    -0.001512502208     0.000053543662    15.994914619570
         O            2.995414952171    -0.001512502208    -0.000055456338    15.994914619570
         C           -0.355659047829     1.285680497792     0.000000543662    12.000000000000
         C           -0.355659047829    -1.288705502208     0.000001543662    12.000000000000
         C           -1.105283047829    -0.001512502208     0.000021543662    12.000000000000
         C            0.996626952171     1.263678497792    -0.000016456338    12.000000000000
         C            0.996626952171    -1.266703502208    -0.000015456338    12.000000000000
         C            1.745710452171     0.015635797792    -0.000031256338    12.000000000000
         C           -1.176311047829     2.537201497792     0.000015543662    12.000000000000
         C           -1.176311047829    -2.540226502208     0.000019543662    12.000000000000
         H            1.589542952171     2.176364497792    -0.000029456338     1.007825032230
         H            1.589542952171    -2.179389502208    -0.000026456338     1.007825032230
         H           -1.828296047829     2.566419497792     0.877652543662     1.007825032230
         H           -1.828370047829     2.566393497792    -0.877566456338     1.007825032230
         H           -0.534200047829     3.421033497792    -0.000023456338     1.007825032230
         H           -0.534201047829    -3.424058502208    -0.000027456338     1.007825032230
         H           -1.828378047829    -2.569415502208    -0.877557456338     1.007825032230
         H           -1.828289047829    -2.569447502208     0.877661543662     1.007825032230

  Basis Set: AUG-CC-PVTZ
    Blend: AUG-CC-PVTZ
  Basis Set: (AUG-CC-PVTZ AUX)
    Blend: AUG-CC-PVTZ-JKFIT
	 Reference Energy          =    -457.4697362835026979 [Eh]
	 Singles Energy            =      -0.0000000000000000 [Eh]
	 Same-Spin Energy          =      -0.4672573182469945 [Eh]
	 Opposite-Spin Energy      =      -1.4777398966103110 [Eh]
	 Correlation Energy        =      -1.9449972148573056 [Eh]
	 Total Energy              =    -459.4147334983600217 [Eh]

	 ================> DF-SCS-MP2 Energies <==================
	-----------------------------------------------------------
	 SCS Same-Spin Scale       =       0.3333333333333333 [-]
	 SCS Opposite-Spin Scale   =       1.2000000000000000 [-]
	 SCS Same-Spin Energy      =      -0.1557524394156648 [Eh]
	 SCS Opposite-Spin Energy  =      -1.7732878759323731 [Eh]
	 SCS Correlation Energy    =      -1.9290403153480380 [Eh]
	 SCS Total Energy          =    -459.3987765988507590 [Eh]
	-----------------------------------------------------------

  Dipole Moment: [D]
     X:    -1.1758      Y:     0.0777      Z:     0.0000     Total:     1.1783

*** Psi4 exiting successfully. Buy a developer a beer!
