                               Psi4 1.4a3.dev225

  ==> Input File <==

--------------------------------------------------------------------------
#psi4
#
memory 32 gb

molecule  {
0 1
  O       -2.3098380     0.0000000     0.0000530
  O        3.0303810     0.0000000    -0.0000560
  C       -0.3206930     1.2871930     0.0000000
  C       -0.3206930    -1.2871930     0.0000010
  C       -1.0703170     0.0000000     0.0000210
  C        1.2315665     1.2619374    -0.0000195
  C        1.0315930    -1.2651910    -0.0000160
  C        1.7909690     0.0000000    -0.0000320
  C       -1.1413450     2.5387140     0.0000150
  C       -1.1413450    -2.5387140     0.0000190
  H        1.6245090     2.1778770    -0.0000300
  H        1.6245090    -2.1778770    -0.0000270
  H       -1.7933300     2.5679320     0.8776520
  H       -1.7934040     2.5679060    -0.8775670
  H       -0.4992340     3.4225460    -0.0000240
  H       -0.4992350    -3.4225460    -0.0000280
  H       -1.7934120    -2.5679030    -0.8775580
  H       -1.7933230    -2.5679350     0.8776610
units angstrom
no_reorient  #important for SAPT in psi4, default
symmetry c1  #important for SAPT in psi4, default
}

set PROPERTIES_ORIGIN ["COM"]
properties('MP2/aug-cc-pvtz', properties = ['dipole'])
--------------------------------------------------------------------------

    Molecular point group: c1
  Charge       = 0
  Multiplicity = 1
  Basis Set: AUG-CC-PVTZ
    Blend: AUG-CC-PVTZ
  Basis Set: (AUG-CC-PVTZ AUX)
    Blend: AUG-CC-PVTZ-JKFIT

    Orbital Energies [Eh]
    ---------------------

    Doubly Occupied:

       1A    -20.581398     2A    -20.555461     3A    -11.363105
       4A    -11.341163     5A    -11.317625     6A    -11.285991
       7A    -11.277779     8A    -11.272518     9A    -11.249825
      10A    -11.242959    11A     -1.404877    12A     -1.388033
      13A     -1.149547    14A     -1.089361    15A     -1.015720
      16A     -0.969652    17A     -0.933378    18A     -0.829583
      19A     -0.802733    20A     -0.723368    21A     -0.701543
      22A     -0.651029    23A     -0.633117    24A     -0.617500
      25A     -0.611124    26A     -0.590468    27A     -0.590339
      28A     -0.576821    29A     -0.557026    30A     -0.551522
      31A     -0.535352    32A     -0.534252    33A     -0.452911
      34A     -0.442261    35A     -0.393385    36A     -0.352950

  @DF-RHF Final Energy:  -457.41240469574973

   => Energetics <=

    Nuclear Repulsion Energy =            488.8358612015005065
    One-Electron Energy =               -1591.3251786073781204
    Two-Electron Energy =                 645.0769127101277718
    Total Energy =                       -457.4124046957497285
  Basis Set: (AUG-CC-PVTZ AUX)
    Blend: AUG-CC-PVTZ-RI
    Molecular point group: c1

    Geometry (in Angstrom), charge = 0, multiplicity = 1:

       Center              X                  Y                   Z               Mass
    ------------   -----------------  -----------------  -----------------  -----------------
         O           -2.363349780598     0.000286971722     0.000053781806    15.994914619570
         O            2.976869219402     0.000286971722    -0.000055218194    15.994914619570
         C           -0.374204780598     1.287479971722     0.000000781806    12.000000000000
         C           -0.374204780598    -1.286906028278     0.000001781806    12.000000000000
         C           -1.123828780598     0.000286971722     0.000021781806    12.000000000000
         C            1.178054719402     1.262224371722    -0.000018718194    12.000000000000
         C            0.978081219402    -1.264904028278    -0.000015218194    12.000000000000
         C            1.737457219402     0.000286971722    -0.000031218194    12.000000000000
         C           -1.194856780598     2.539000971722     0.000015781806    12.000000000000
         C           -1.194856780598    -2.538427028278     0.000019781806    12.000000000000
         H            1.570997219402     2.178163971722    -0.000029218194     1.007825032230
         H            1.570997219402    -2.177590028278    -0.000026218194     1.007825032230
         H           -1.846841780598     2.568218971722     0.877652781806     1.007825032230
         H           -1.846915780598     2.568192971722    -0.877566218194     1.007825032230
         H           -0.552745780598     3.422832971722    -0.000023218194     1.007825032230
         H           -0.552746780598    -3.422259028278    -0.000027218194     1.007825032230
         H           -1.846923780598    -2.567616028278    -0.877557218194     1.007825032230
         H           -1.846834780598    -2.567648028278     0.877661781806     1.007825032230

  Basis Set: AUG-CC-PVTZ
    Blend: AUG-CC-PVTZ
  Basis Set: (AUG-CC-PVTZ AUX)
    Blend: AUG-CC-PVTZ-JKFIT
	 Reference Energy          =    -457.4124046957497285 [Eh]
	 Singles Energy            =      -0.0000000000000000 [Eh]
	 Same-Spin Energy          =      -0.4715240250086665 [Eh]
	 Opposite-Spin Energy      =      -1.4860695607150363 [Eh]
	 Correlation Energy        =      -1.9575935857237028 [Eh]
	 Total Energy              =    -459.3699982814734426 [Eh]

	 ================> DF-SCS-MP2 Energies <==================
	-----------------------------------------------------------
	 SCS Same-Spin Scale       =       0.3333333333333333 [-]
	 SCS Opposite-Spin Scale   =       1.2000000000000000 [-]
	 SCS Same-Spin Energy      =      -0.1571746750028888 [Eh]
	 SCS Opposite-Spin Energy  =      -1.7832834728580436 [Eh]
	 SCS Correlation Energy    =      -1.9404581478609324 [Eh]
	 SCS Total Energy          =    -459.3528628436106374 [Eh]
	-----------------------------------------------------------

  Dipole Moment: [D]
     X:    -1.0982      Y:     0.2353      Z:     0.0000     Total:     1.1231

*** Psi4 exiting successfully. Buy a developer a beer!
