                               Psi4 1.4a3.dev225

  ==> Input File <==

--------------------------------------------------------------------------
#psi4
#
memory 32 gb

molecule  {
0 1
  O       -2.3098380     0.0000000     0.0000530
  O        3.0303810     0.0000000    -0.0000560
  C       -0.3206930     1.2871930     0.0000000
  C       -0.3206930    -1.2871930     0.0000010
  C       -1.0703170     0.0000000     0.0000210
  C        1.0315930     1.2651910    -0.0000170
  C        0.9316062    -1.2668178    -0.0000147
  C        1.7909690     0.0000000    -0.0000320
  C       -1.1413450     2.5387140     0.0000150
  C       -1.1413450    -2.5387140     0.0000190
  H        1.6245090     2.1778770    -0.0000300
  H        1.6245090    -2.1778770    -0.0000270
  H       -1.7933300     2.5679320     0.8776520
  H       -1.7934040     2.5679060    -0.8775670
  H       -0.4992340     3.4225460    -0.0000240
  H       -0.4992350    -3.4225460    -0.0000280
  H       -1.7934120    -2.5679030    -0.8775580
  H       -1.7933230    -2.5679350     0.8776610
units angstrom
no_reorient  #important for SAPT in psi4, default
symmetry c1  #important for SAPT in psi4, default
}

set PROPERTIES_ORIGIN ["COM"]
properties('MP2/aug-cc-pvtz', properties = ['dipole'])
--------------------------------------------------------------------------

    Molecular point group: c1
  Charge       = 0
  Multiplicity = 1
  Basis Set: AUG-CC-PVTZ
    Blend: AUG-CC-PVTZ
  Basis Set: (AUG-CC-PVTZ AUX)
    Blend: AUG-CC-PVTZ-JKFIT

    Orbital Energies [Eh]
    ---------------------

    Doubly Occupied:

       1A    -20.577104     2A    -20.571699     3A    -11.359924
       4A    -11.358951     5A    -11.288664     6A    -11.269830
       7A    -11.269408     8A    -11.264418     9A    -11.243917
      10A    -11.240626    11A     -1.401447    12A     -1.390208
      13A     -1.171784    14A     -1.110939    15A     -1.003780
      16A     -0.964597    17A     -0.926497    18A     -0.819512
      19A     -0.813531    20A     -0.724003    21A     -0.693362
      22A     -0.657755    23A     -0.620247    24A     -0.610958
      25A     -0.606328    26A     -0.590584    27A     -0.589666
      28A     -0.566622    29A     -0.554402    30A     -0.553642
      31A     -0.547746    32A     -0.533004    33A     -0.461331
      34A     -0.425915    35A     -0.416406    36A     -0.391230

  @DF-RHF Final Energy:  -457.45951417239661

   => Energetics <=

    Nuclear Repulsion Energy =            491.6421785545276748
    One-Electron Energy =               -1597.0233114566949553
    Two-Electron Energy =                 647.9216187297707847
    Total Energy =                       -457.4595141723965526
  Basis Set: (AUG-CC-PVTZ AUX)
    Blend: AUG-CC-PVTZ-RI
    Molecular point group: c1

    Geometry (in Angstrom), charge = 0, multiplicity = 1:

       Center              X                  Y                   Z               Mass
    ------------   -----------------  -----------------  -----------------  -----------------
         O           -2.336892894725     0.000143485861     0.000053446641    15.994914619570
         O            3.003326105275     0.000143485861    -0.000055553359    15.994914619570
         C           -0.347747894725     1.287336485861     0.000000446641    12.000000000000
         C           -0.347747894725    -1.287049514139     0.000001446641    12.000000000000
         C           -1.097371894725     0.000143485861     0.000021446641    12.000000000000
         C            1.004538105275     1.265334485861    -0.000016553359    12.000000000000
         C            0.904551305275    -1.266674314139    -0.000014253359    12.000000000000
         C            1.763914105275     0.000143485861    -0.000031553359    12.000000000000
         C           -1.168399894725     2.538857485861     0.000015446641    12.000000000000
         C           -1.168399894725    -2.538570514139     0.000019446641    12.000000000000
         H            1.597454105275     2.178020485861    -0.000029553359     1.007825032230
         H            1.597454105275    -2.177733514139    -0.000026553359     1.007825032230
         H           -1.820384894725     2.568075485861     0.877652446641     1.007825032230
         H           -1.820458894725     2.568049485861    -0.877566553359     1.007825032230
         H           -0.526288894725     3.422689485861    -0.000023553359     1.007825032230
         H           -0.526289894725    -3.422402514139    -0.000027553359     1.007825032230
         H           -1.820466894725    -2.567759514139    -0.877557553359     1.007825032230
         H           -1.820377894725    -2.567791514139     0.877661446641     1.007825032230

  Basis Set: AUG-CC-PVTZ
    Blend: AUG-CC-PVTZ
  Basis Set: (AUG-CC-PVTZ AUX)
    Blend: AUG-CC-PVTZ-JKFIT
	 Reference Energy          =    -457.4595141723966094 [Eh]
	 Singles Energy            =      -0.0000000000000000 [Eh]
	 Same-Spin Energy          =      -0.4659139059922123 [Eh]
	 Opposite-Spin Energy      =      -1.4750471413024342 [Eh]
	 Correlation Energy        =      -1.9409610472946466 [Eh]
	 Total Energy              =    -459.4004752196912591 [Eh]

	 ================> DF-SCS-MP2 Energies <==================
	-----------------------------------------------------------
	 SCS Same-Spin Scale       =       0.3333333333333333 [-]
	 SCS Opposite-Spin Scale   =       1.2000000000000000 [-]
	 SCS Same-Spin Energy      =      -0.1553046353307374 [Eh]
	 SCS Opposite-Spin Energy  =      -1.7700565695629209 [Eh]
	 SCS Correlation Energy    =      -1.9253612048936584 [Eh]
	 SCS Total Energy          =    -459.3848753772902569 [Eh]
	-----------------------------------------------------------

  Dipole Moment: [D]
     X:    -1.0604      Y:     0.1790      Z:     0.0000     Total:     1.0755

*** Psi4 exiting successfully. Buy a developer a beer!
