                               Psi4 1.4a3.dev225

  ==> Input File <==

--------------------------------------------------------------------------
#psi4
#
memory 32 gb

molecule  {
0 1
  O       -2.3098380     0.0000000     0.0000530
  O        3.0303810     0.0000000    -0.0000560
  C       -0.3206930     1.2871930     0.0000000
  C       -0.3206930    -1.2871930     0.0000010
  C       -1.0703170     0.0000000     0.0000210
  C        1.0315930     1.2651910    -0.0000170
  C        1.0315930    -1.2651910    -0.0000160
  C        1.7652377    -0.0428707    -0.0000315
  C       -1.1413450     2.5387140     0.0000150
  C       -1.1413450    -2.5387140     0.0000190
  H        1.6245090     2.1778770    -0.0000300
  H        1.6245090    -2.1778770    -0.0000270
  H       -1.7933300     2.5679320     0.8776520
  H       -1.7934040     2.5679060    -0.8775670
  H       -0.4992340     3.4225460    -0.0000240
  H       -0.4992350    -3.4225460    -0.0000280
  H       -1.7934120    -2.5679030    -0.8775580
  H       -1.7933230    -2.5679350     0.8776610
units angstrom
no_reorient  #important for SAPT in psi4, default
symmetry c1  #important for SAPT in psi4, default
}

set PROPERTIES_ORIGIN ["COM"]
properties('MP2/aug-cc-pvtz', properties = ['dipole'])
--------------------------------------------------------------------------

    Molecular point group: c1
  Charge       = 0
  Multiplicity = 1
  Basis Set: AUG-CC-PVTZ
    Blend: AUG-CC-PVTZ
  Basis Set: (AUG-CC-PVTZ AUX)
    Blend: AUG-CC-PVTZ-JKFIT

    Orbital Energies [Eh]
    ---------------------

    Doubly Occupied:

       1A    -20.579669     2A    -20.564507     3A    -11.361907
       4A    -11.353449     5A    -11.294073     6A    -11.284156
       7A    -11.272294     8A    -11.269135     9A    -11.246562
      10A    -11.242114    11A     -1.403538    12A     -1.371768
      13A     -1.164146    14A     -1.103901    15A     -1.011480
      16A     -0.966552    17A     -0.931243    18A     -0.825143
      19A     -0.808831    20A     -0.722359    21A     -0.699012
      22A     -0.649835    23A     -0.619496    24A     -0.614573
      25A     -0.609905    26A     -0.591871    27A     -0.590119
      28A     -0.572946    29A     -0.550667    30A     -0.550122
      31A     -0.549406    32A     -0.532280    33A     -0.458285
      34A     -0.438253    35A     -0.397716    36A     -0.385728

  @DF-RHF Final Energy:  -457.46497254971860

   => Energetics <=

    Nuclear Repulsion Energy =            490.6573698248631104
    One-Electron Energy =               -1595.0706116242270127
    Two-Electron Energy =                 646.9482692496453637
    Total Energy =                       -457.4649725497185955
  Basis Set: (AUG-CC-PVTZ AUX)
    Blend: AUG-CC-PVTZ-RI
    Molecular point group: c1

    Geometry (in Angstrom), charge = 0, multiplicity = 1:

       Center              X                  Y                   Z               Mass
    ------------   -----------------  -----------------  -----------------  -----------------
         O           -2.343442325729     0.003781251110     0.000053517202    15.994914619570
         O            2.996776674271     0.003781251110    -0.000055482798    15.994914619570
         C           -0.354297325729     1.290974251110     0.000000517202    12.000000000000
         C           -0.354297325729    -1.283411748890     0.000001517202    12.000000000000
         C           -1.103921325729     0.003781251110     0.000021517202    12.000000000000
         C            0.997988674271     1.268972251110    -0.000016482798    12.000000000000
         C            0.997988674271    -1.261409748890    -0.000015482798    12.000000000000
         C            1.731633374271    -0.039089448890    -0.000030982798    12.000000000000
         C           -1.174949325729     2.542495251110     0.000015517202    12.000000000000
         C           -1.174949325729    -2.534932748890     0.000019517202    12.000000000000
         H            1.590904674271     2.181658251110    -0.000029482798     1.007825032230
         H            1.590904674271    -2.174095748890    -0.000026482798     1.007825032230
         H           -1.826934325729     2.571713251110     0.877652517202     1.007825032230
         H           -1.827008325729     2.571687251110    -0.877566482798     1.007825032230
         H           -0.532838325729     3.426327251110    -0.000023482798     1.007825032230
         H           -0.532839325729    -3.418764748890    -0.000027482798     1.007825032230
         H           -1.827016325729    -2.564121748890    -0.877557482798     1.007825032230
         H           -1.826927325729    -2.564153748890     0.877661517202     1.007825032230

  Basis Set: AUG-CC-PVTZ
    Blend: AUG-CC-PVTZ
  Basis Set: (AUG-CC-PVTZ AUX)
    Blend: AUG-CC-PVTZ-JKFIT
	 Reference Energy          =    -457.4649725497185955 [Eh]
	 Singles Energy            =      -0.0000000000000000 [Eh]
	 Same-Spin Energy          =      -0.4680123638027409 [Eh]
	 Opposite-Spin Energy      =      -1.4791653018768651 [Eh]
	 Correlation Energy        =      -1.9471776656796060 [Eh]
	 Total Energy              =    -459.4121502153981851 [Eh]

	 ================> DF-SCS-MP2 Energies <==================
	-----------------------------------------------------------
	 SCS Same-Spin Scale       =       0.3333333333333333 [-]
	 SCS Opposite-Spin Scale   =       1.2000000000000000 [-]
	 SCS Same-Spin Energy      =      -0.1560041212675803 [Eh]
	 SCS Opposite-Spin Energy  =      -1.7749983622522381 [Eh]
	 SCS Correlation Energy    =      -1.9310024835198183 [Eh]
	 SCS Total Energy          =    -459.3959750332384147 [Eh]
	-----------------------------------------------------------

  Dipole Moment: [D]
     X:    -1.2357      Y:    -0.1922      Z:     0.0000     Total:     1.2505

*** Psi4 exiting successfully. Buy a developer a beer!
