                               Psi4 1.4a3.dev225

  ==> Input File <==

--------------------------------------------------------------------------
#psi4
#
memory 32 gb

molecule  {
0 1
  O       -2.3098380     0.0000000     0.0000530
  O        3.0303810     0.0000000    -0.0000560
  C       -0.3206930     1.2871930     0.0000000
  C       -0.3206930    -1.2871930     0.0000010
  C       -1.0703170     0.0000000     0.0000210
  C        1.0315930     1.2651910    -0.0000170
  C        1.0315930    -1.2651910    -0.0000160
  C        1.7909690     0.0000000    -0.0000320
  C       -1.1413450     2.5387140     0.0000150
  C       -1.1413450    -2.5387140     0.0000190
  H        1.6245090     2.1778770    -0.0000300
  H        1.6245090    -2.1778770    -0.0000270
  H       -1.7933300     2.5679320     0.8776520
  H       -1.7934040     2.5679060    -0.8775670
  H       -0.4992340     3.4225460    -0.0000240
  H       -0.4992350    -3.4225460    -0.0000280
  H       -1.7814880    -2.5673692    -0.8615102
  H       -1.7933230    -2.5679350     0.8776610
units angstrom
no_reorient  #important for SAPT in psi4, default
symmetry c1  #important for SAPT in psi4, default
}

set PROPERTIES_ORIGIN ["COM"]
properties('MP2/aug-cc-pvtz', properties = ['dipole'])
--------------------------------------------------------------------------

    Molecular point group: c1
  Charge       = 0
  Multiplicity = 1
  Basis Set: AUG-CC-PVTZ
    Blend: AUG-CC-PVTZ
  Basis Set: (AUG-CC-PVTZ AUX)
    Blend: AUG-CC-PVTZ-JKFIT

    Orbital Energies [Eh]
    ---------------------

    Doubly Occupied:

       1A    -20.578045     2A    -20.566863     3A    -11.360566
       4A    -11.353169     5A    -11.287542     6A    -11.287425
       7A    -11.270309     8A    -11.270233     9A    -11.243402
      10A    -11.241089    11A     -1.402159    12A     -1.389040
      13A     -1.160824    14A     -1.102454    15A     -1.007822
      16A     -0.965639    17A     -0.930041    18A     -0.823455
      19A     -0.808098    20A     -0.722052    21A     -0.697237
      22A     -0.655701    23A     -0.619147    24A     -0.613163
      25A     -0.607575    26A     -0.593451    27A     -0.590636
      28A     -0.574689    29A     -0.555353    30A     -0.551592
      31A     -0.549119    32A     -0.533748    33A     -0.458574
      34A     -0.435679    35A     -0.399759    36A     -0.384793

  @DF-RHF Final Energy:  -457.47163846612500

   => Energetics <=

    Nuclear Repulsion Energy =            490.6216786040392321
    One-Electron Energy =               -1595.0057413915874349
    Two-Electron Energy =                 646.9124243214231456
    Total Energy =                       -457.4716384661250004
  Basis Set: (AUG-CC-PVTZ AUX)
    Blend: AUG-CC-PVTZ-RI
    Molecular point group: c1

    Geometry (in Angstrom), charge = 0, multiplicity = 1:

       Center              X                  Y                   Z               Mass
    ------------   -----------------  -----------------  -----------------  -----------------
         O           -2.345800188113    -0.000003954189    -0.000065314741    15.994914619570
         O            2.994418811887    -0.000003954189    -0.000174314741    15.994914619570
         C           -0.356655188113     1.287189045811    -0.000118314741    12.000000000000
         C           -0.356655188113    -1.287196954189    -0.000117314741    12.000000000000
         C           -1.106279188113    -0.000003954189    -0.000097314741    12.000000000000
         C            0.995630811887     1.265187045811    -0.000135314741    12.000000000000
         C            0.995630811887    -1.265194954189    -0.000134314741    12.000000000000
         C            1.755006811887    -0.000003954189    -0.000150314741    12.000000000000
         C           -1.177307188113     2.538710045811    -0.000103314741    12.000000000000
         C           -1.177307188113    -2.538717954189    -0.000099314741    12.000000000000
         H            1.588546811887     2.177873045811    -0.000148314741     1.007825032230
         H            1.588546811887    -2.177880954189    -0.000145314741     1.007825032230
         H           -1.829292188113     2.567928045811     0.877533685259     1.007825032230
         H           -1.829366188113     2.567902045811    -0.877685314741     1.007825032230
         H           -0.535196188113     3.422542045811    -0.000142314741     1.007825032230
         H           -0.535197188113    -3.422549954189    -0.000146314741     1.007825032230
         H           -1.817450188113    -2.567373154189    -0.861628514741     1.007825032230
         H           -1.829285188113    -2.567938954189     0.877542685259     1.007825032230

  Basis Set: AUG-CC-PVTZ
    Blend: AUG-CC-PVTZ
  Basis Set: (AUG-CC-PVTZ AUX)
    Blend: AUG-CC-PVTZ-JKFIT
	 Reference Energy          =    -457.4716384661250004 [Eh]
	 Singles Energy            =      -0.0000000000000000 [Eh]
	 Same-Spin Energy          =      -0.4668093178838416 [Eh]
	 Opposite-Spin Energy      =      -1.4767821745810097 [Eh]
	 Correlation Energy        =      -1.9435914924648512 [Eh]
	 Total Energy              =    -459.4152299585898618 [Eh]

	 ================> DF-SCS-MP2 Energies <==================
	-----------------------------------------------------------
	 SCS Same-Spin Scale       =       0.3333333333333333 [-]
	 SCS Opposite-Spin Scale   =       1.2000000000000000 [-]
	 SCS Same-Spin Energy      =      -0.1556031059612805 [Eh]
	 SCS Opposite-Spin Energy  =      -1.7721386094972116 [Eh]
	 SCS Correlation Energy    =      -1.9277417154584922 [Eh]
	 SCS Total Energy          =    -459.3993801815834672 [Eh]
	-----------------------------------------------------------

  Dipole Moment: [D]
     X:    -1.1343      Y:    -0.0022      Z:    -0.0031     Total:     1.1343

*** Psi4 exiting successfully. Buy a developer a beer!
