                               Psi4 1.4a3.dev225

  ==> Input File <==

--------------------------------------------------------------------------
#psi4
#
memory 32 gb

molecule  {
0 1
  O       -2.3098380     0.0000000     0.0000530
  O        3.0303810     0.0000000    -0.0000560
  C       -0.3206930     1.2871930     0.0000000
  C       -0.3206930    -1.2871930     0.0000010
  C       -1.0703170     0.0000000     0.0000210
  C        1.0315930     1.2651910    -0.0000170
  C        1.0315930    -1.2651910    -0.0000160
  C        1.7909690     0.0000000    -0.0000320
  C       -1.1413450     2.5387140     0.0000150
  C       -1.1413450    -2.5387140     0.0000190
  H        1.6245090     2.1778770    -0.0000300
  H        1.6245090    -2.1778770    -0.0000270
  H       -1.7933300     2.5679320     0.8776520
  H       -1.7934040     2.5679060    -0.8775670
  H       -0.6167874     3.2607399    -0.0000169
  H       -0.4992350    -3.4225460    -0.0000280
  H       -1.7934120    -2.5679030    -0.8775580
  H       -1.7933230    -2.5679350     0.8776610
units angstrom
no_reorient  #important for SAPT in psi4, default
symmetry c1  #important for SAPT in psi4, default
}

set PROPERTIES_ORIGIN ["COM"]
properties('MP2/aug-cc-pvtz', properties = ['dipole'])
--------------------------------------------------------------------------

    Molecular point group: c1
  Charge       = 0
  Multiplicity = 1
  Basis Set: AUG-CC-PVTZ
    Blend: AUG-CC-PVTZ
  Basis Set: (AUG-CC-PVTZ AUX)
    Blend: AUG-CC-PVTZ-JKFIT

    Orbital Energies [Eh]
    ---------------------

    Doubly Occupied:

       1A    -20.577292     2A    -20.566414     3A    -11.359415
       4A    -11.352986     5A    -11.287050     6A    -11.286702
       7A    -11.269935     8A    -11.269857     9A    -11.243000
      10A    -11.219260    11A     -1.401243    12A     -1.388679
      13A     -1.161215    14A     -1.105448    15A     -1.015845
      16A     -0.971582    17A     -0.934076    18A     -0.829799
      19A     -0.807777    20A     -0.724180    21A     -0.696765
      22A     -0.657477    23A     -0.622594    24A     -0.617541
      25A     -0.608884    26A     -0.605174    27A     -0.588239
      28A     -0.576091    29A     -0.563361    30A     -0.554422
      31A     -0.549720    32A     -0.532545    33A     -0.458340
      34A     -0.435087    35A     -0.399284    36A     -0.384347

  @DF-RHF Final Energy:  -457.43751406283434

   => Energetics <=

    Nuclear Repulsion Energy =            491.5637669240123273
    One-Electron Energy =               -1596.7593142520879610
    Two-Electron Energy =                 647.7580332652413517
    Total Energy =                       -457.4375140628343388
  Basis Set: (AUG-CC-PVTZ AUX)
    Blend: AUG-CC-PVTZ-RI
    Molecular point group: c1

    Geometry (in Angstrom), charge = 0, multiplicity = 1:

       Center              X                  Y                   Z               Mass
    ------------   -----------------  -----------------  -----------------  -----------------
         O           -2.344841068417     0.001198598500     0.000053508708    15.994914619570
         O            2.995377931583     0.001198598500    -0.000055491292    15.994914619570
         C           -0.355696068417     1.288391598500     0.000000508708    12.000000000000
         C           -0.355696068417    -1.285994401500     0.000001508708    12.000000000000
         C           -1.105320068417     0.001198598500     0.000021508708    12.000000000000
         C            0.996589931583     1.266389598500    -0.000016491292    12.000000000000
         C            0.996589931583    -1.263992401500    -0.000015491292    12.000000000000
         C            1.755965931583     0.001198598500    -0.000031491292    12.000000000000
         C           -1.176348068417     2.539912598500     0.000015508708    12.000000000000
         C           -1.176348068417    -2.537515401500     0.000019508708    12.000000000000
         H            1.589505931583     2.179075598500    -0.000029491292     1.007825032230
         H            1.589505931583    -2.176678401500    -0.000026491292     1.007825032230
         H           -1.828333068417     2.569130598500     0.877652508708     1.007825032230
         H           -1.828407068417     2.569104598500    -0.877566491292     1.007825032230
         H           -0.651790468417     3.261938498500    -0.000016391292     1.007825032230
         H           -0.534238068417    -3.421347401500    -0.000027491292     1.007825032230
         H           -1.828415068417    -2.566704401500    -0.877557491292     1.007825032230
         H           -1.828326068417    -2.566736401500     0.877661508708     1.007825032230

  Basis Set: AUG-CC-PVTZ
    Blend: AUG-CC-PVTZ
  Basis Set: (AUG-CC-PVTZ AUX)
    Blend: AUG-CC-PVTZ-JKFIT
	 Reference Energy          =    -457.4375140628343388 [Eh]
	 Singles Energy            =      -0.0000000000000000 [Eh]
	 Same-Spin Energy          =      -0.4668584540746814 [Eh]
	 Opposite-Spin Energy      =      -1.4761118767359021 [Eh]
	 Correlation Energy        =      -1.9429703308105835 [Eh]
	 Total Energy              =    -459.3804843936449060 [Eh]

	 ================> DF-SCS-MP2 Energies <==================
	-----------------------------------------------------------
	 SCS Same-Spin Scale       =       0.3333333333333333 [-]
	 SCS Opposite-Spin Scale   =       1.2000000000000000 [-]
	 SCS Same-Spin Energy      =      -0.1556194846915605 [Eh]
	 SCS Opposite-Spin Energy  =      -1.7713342520830824 [Eh]
	 SCS Correlation Energy    =      -1.9269537367746428 [Eh]
	 SCS Total Energy          =    -459.3644677996089740 [Eh]
	-----------------------------------------------------------

  Dipole Moment: [D]
     X:    -1.1234      Y:     0.0762      Z:     0.0000     Total:     1.1259

*** Psi4 exiting successfully. Buy a developer a beer!
