                               Psi4 1.4a3.dev225

  ==> Input File <==

--------------------------------------------------------------------------
#psi4
#
memory 32 gb

molecule  {
0 1
  O       -2.3098380     0.0000000     0.0000530
  O        3.0303810     0.0000000    -0.0000560
  C       -0.3206930     1.2871930     0.0000000
  C       -0.3206930    -1.2871930     0.0000010
  C       -1.1206420     0.0864141     0.0000223
  C        1.0315930     1.2651910    -0.0000170
  C        1.0315930    -1.2651910    -0.0000160
  C        1.7909690     0.0000000    -0.0000320
  C       -1.1413450     2.5387140     0.0000150
  C       -1.1413450    -2.5387140     0.0000190
  H        1.6245090     2.1778770    -0.0000300
  H        1.6245090    -2.1778770    -0.0000270
  H       -1.7933300     2.5679320     0.8776520
  H       -1.7934040     2.5679060    -0.8775670
  H       -0.4992340     3.4225460    -0.0000240
  H       -0.4992350    -3.4225460    -0.0000280
  H       -1.7934120    -2.5679030    -0.8775580
  H       -1.7933230    -2.5679350     0.8776610
units angstrom
no_reorient  #important for SAPT in psi4, default
symmetry c1  #important for SAPT in psi4, default
}

set PROPERTIES_ORIGIN ["COM"]
properties('MP2/aug-cc-pvtz', properties = ['dipole'])
--------------------------------------------------------------------------

    Molecular point group: c1
  Charge       = 0
  Multiplicity = 1
  Basis Set: AUG-CC-PVTZ
    Blend: AUG-CC-PVTZ
  Basis Set: (AUG-CC-PVTZ AUX)
    Blend: AUG-CC-PVTZ-JKFIT

    Orbital Energies [Eh]
    ---------------------

    Doubly Occupied:

       1A    -20.582382     2A    -20.563620     3A    -11.359933
       4A    -11.350631     5A    -11.286440     6A    -11.284646
       7A    -11.277235     8A    -11.258683     9A    -11.243968
      10A    -11.241199    11A     -1.435074    12A     -1.386346
      13A     -1.158308    14A     -1.097986    15A     -1.007108
      16A     -0.963638    17A     -0.925638    18A     -0.818679
      19A     -0.803104    20A     -0.723020    21A     -0.704317
      22A     -0.656174    23A     -0.623125    24A     -0.620021
      25A     -0.605384    26A     -0.590235    27A     -0.588489
      28A     -0.575213    29A     -0.555045    30A     -0.553554
      31A     -0.550303    32A     -0.547604    33A     -0.452951
      34A     -0.426199    35A     -0.401343    36A     -0.381292

  @DF-RHF Final Energy:  -457.46662735669611

   => Energetics <=

    Nuclear Repulsion Energy =            490.5110508840510306
    One-Electron Energy =               -1594.7575887040766247
    Two-Electron Energy =                 646.7799104633295428
    Total Energy =                       -457.4666273566961081
  Basis Set: (AUG-CC-PVTZ AUX)
    Blend: AUG-CC-PVTZ-RI
    Molecular point group: c1

    Geometry (in Angstrom), charge = 0, multiplicity = 1:

       Center              X                  Y                   Z               Mass
    ------------   -----------------  -----------------  -----------------  -----------------
         O           -2.341273129625    -0.007621835228     0.000053446641    15.994914619570
         O            2.998945870375    -0.007621835228    -0.000055553359    15.994914619570
         C           -0.352128129625     1.279571164772     0.000000446641    12.000000000000
         C           -0.352128129625    -1.294814835228     0.000001446641    12.000000000000
         C           -1.152077129625     0.078792264772     0.000022746641    12.000000000000
         C            1.000157870375     1.257569164772    -0.000016553359    12.000000000000
         C            1.000157870375    -1.272812835228    -0.000015553359    12.000000000000
         C            1.759533870375    -0.007621835228    -0.000031553359    12.000000000000
         C           -1.172780129625     2.531092164772     0.000015446641    12.000000000000
         C           -1.172780129625    -2.546335835228     0.000019446641    12.000000000000
         H            1.593073870375     2.170255164772    -0.000029553359     1.007825032230
         H            1.593073870375    -2.185498835228    -0.000026553359     1.007825032230
         H           -1.824765129625     2.560310164772     0.877652446641     1.007825032230
         H           -1.824839129625     2.560284164772    -0.877566553359     1.007825032230
         H           -0.530669129625     3.414924164772    -0.000023553359     1.007825032230
         H           -0.530670129625    -3.430167835228    -0.000027553359     1.007825032230
         H           -1.824847129625    -2.575524835228    -0.877557553359     1.007825032230
         H           -1.824758129625    -2.575556835228     0.877661446641     1.007825032230

  Basis Set: AUG-CC-PVTZ
    Blend: AUG-CC-PVTZ
  Basis Set: (AUG-CC-PVTZ AUX)
    Blend: AUG-CC-PVTZ-JKFIT
	 Reference Energy          =    -457.4666273566961081 [Eh]
	 Singles Energy            =      -0.0000000000000000 [Eh]
	 Same-Spin Energy          =      -0.4655419937408393 [Eh]
	 Opposite-Spin Energy      =      -1.4741236848076940 [Eh]
	 Correlation Energy        =      -1.9396656785485331 [Eh]
	 Total Energy              =    -459.4062930352446301 [Eh]

	 ================> DF-SCS-MP2 Energies <==================
	-----------------------------------------------------------
	 SCS Same-Spin Scale       =       0.3333333333333333 [-]
	 SCS Opposite-Spin Scale   =       1.2000000000000000 [-]
	 SCS Same-Spin Energy      =      -0.1551806645802797 [Eh]
	 SCS Opposite-Spin Energy  =      -1.7689484217692326 [Eh]
	 SCS Correlation Energy    =      -1.9241290863495124 [Eh]
	 SCS Total Energy          =    -459.3907564430456318 [Eh]
	-----------------------------------------------------------

  Dipole Moment: [D]
     X:    -1.3743      Y:     0.3474      Z:     0.0000     Total:     1.4175

*** Psi4 exiting successfully. Buy a developer a beer!
