                               Psi4 1.4a3.dev225

  ==> Input File <==

--------------------------------------------------------------------------
#psi4
#
memory 32 gb

molecule  {
0 1
  O       -2.3098380     0.0000000     0.0000530
  O        3.0303810     0.0000000    -0.0000560
  C       -0.3206930     1.2871930     0.0000000
  C       -0.3206930    -1.2871930     0.0000010
  C       -1.0926674    -0.0132788     0.0000212
  C        1.0315930     1.2651910    -0.0000170
  C        1.0315930    -1.2651910    -0.0000160
  C        1.7909690     0.0000000    -0.0000320
  C       -1.1413450     2.5387140     0.0000150
  C       -1.1413450    -2.5387140     0.0000190
  H        1.6245090     2.1778770    -0.0000300
  H        1.6245090    -2.1778770    -0.0000270
  H       -1.7933300     2.5679320     0.8776520
  H       -1.7934040     2.5679060    -0.8775670
  H       -0.4992340     3.4225460    -0.0000240
  H       -0.4992350    -3.4225460    -0.0000280
  H       -1.7934120    -2.5679030    -0.8775580
  H       -1.7933230    -2.5679350     0.8776610
units angstrom
no_reorient  #important for SAPT in psi4, default
symmetry c1  #important for SAPT in psi4, default
}

set PROPERTIES_ORIGIN ["COM"]
properties('MP2/aug-cc-pvtz', properties = ['dipole'])
--------------------------------------------------------------------------

    Molecular point group: c1
  Charge       = 0
  Multiplicity = 1
  Basis Set: AUG-CC-PVTZ
    Blend: AUG-CC-PVTZ
  Basis Set: (AUG-CC-PVTZ AUX)
    Blend: AUG-CC-PVTZ-JKFIT

    Orbital Energies [Eh]
    ---------------------

    Doubly Occupied:

       1A    -20.579920     2A    -20.565326     3A    -11.360054
       4A    -11.352005     5A    -11.287270     6A    -11.286704
       7A    -11.270490     8A    -11.267621     9A    -11.243236
      10A    -11.242876    11A     -1.417204    12A     -1.387804
      13A     -1.158491    14A     -1.100747    15A     -1.006815
      16A     -0.964420    17A     -0.926449    18A     -0.820786
      19A     -0.806918    20A     -0.722405    21A     -0.700051
      22A     -0.655827    23A     -0.619760    24A     -0.616243
      25A     -0.606474    26A     -0.592219    27A     -0.589131
      28A     -0.574614    29A     -0.554067    30A     -0.552107
      31A     -0.550556    32A     -0.540097    33A     -0.456872
      34A     -0.432672    35A     -0.400141    36A     -0.383678

  @DF-RHF Final Energy:  -457.47362352829828

   => Energetics <=

    Nuclear Repulsion Energy =            490.5118399015803448
    One-Electron Energy =               -1594.7868281382857276
    Two-Electron Energy =                 646.8013647084071636
    Total Energy =                       -457.4736235282982761
  Basis Set: (AUG-CC-PVTZ AUX)
    Blend: AUG-CC-PVTZ-RI
    Molecular point group: c1

    Geometry (in Angstrom), charge = 0, multiplicity = 1:

       Center              X                  Y                   Z               Mass
    ------------   -----------------  -----------------  -----------------  -----------------
         O           -2.343740525476     0.001171207310     0.000053543662    15.994914619570
         O            2.996478474524     0.001171207310    -0.000055456338    15.994914619570
         C           -0.354595525476     1.288364207310     0.000000543662    12.000000000000
         C           -0.354595525476    -1.286021792690     0.000001543662    12.000000000000
         C           -1.126569925476    -0.012107592690     0.000021743662    12.000000000000
         C            0.997690474524     1.266362207310    -0.000016456338    12.000000000000
         C            0.997690474524    -1.264019792690    -0.000015456338    12.000000000000
         C            1.757066474524     0.001171207310    -0.000031456338    12.000000000000
         C           -1.175247525476     2.539885207310     0.000015543662    12.000000000000
         C           -1.175247525476    -2.537542792690     0.000019543662    12.000000000000
         H            1.590606474524     2.179048207310    -0.000029456338     1.007825032230
         H            1.590606474524    -2.176705792690    -0.000026456338     1.007825032230
         H           -1.827232525476     2.569103207310     0.877652543662     1.007825032230
         H           -1.827306525476     2.569077207310    -0.877566456338     1.007825032230
         H           -0.533136525476     3.423717207310    -0.000023456338     1.007825032230
         H           -0.533137525476    -3.421374792690    -0.000027456338     1.007825032230
         H           -1.827314525476    -2.566731792690    -0.877557456338     1.007825032230
         H           -1.827225525476    -2.566763792690     0.877661543662     1.007825032230

  Basis Set: AUG-CC-PVTZ
    Blend: AUG-CC-PVTZ
  Basis Set: (AUG-CC-PVTZ AUX)
    Blend: AUG-CC-PVTZ-JKFIT
	 Reference Energy          =    -457.4736235282982761 [Eh]
	 Singles Energy            =      -0.0000000000000000 [Eh]
	 Same-Spin Energy          =      -0.4659925343798685 [Eh]
	 Opposite-Spin Energy      =      -1.4752062334861133 [Eh]
	 Correlation Energy        =      -1.9411987678659819 [Eh]
	 Total Energy              =    -459.4148222961642318 [Eh]

	 ================> DF-SCS-MP2 Energies <==================
	-----------------------------------------------------------
	 SCS Same-Spin Scale       =       0.3333333333333333 [-]
	 SCS Opposite-Spin Scale   =       1.2000000000000000 [-]
	 SCS Same-Spin Energy      =      -0.1553308447932895 [Eh]
	 SCS Opposite-Spin Energy  =      -1.7702474801833359 [Eh]
	 SCS Correlation Energy    =      -1.9255783249766254 [Eh]
	 SCS Total Energy          =    -459.3992018532749171 [Eh]
	-----------------------------------------------------------

  Dipole Moment: [D]
     X:    -1.2343      Y:    -0.0507      Z:     0.0000     Total:     1.2354

*** Psi4 exiting successfully. Buy a developer a beer!
