                               Psi4 1.4a3.dev225

  ==> Input File <==

--------------------------------------------------------------------------
#psi4
#
memory 32 gb

molecule  {
0 1
  O       -2.3098380     0.0000000     0.0000530
  O        3.0303810     0.0000000    -0.0000560
  C       -0.3206930     1.2871930     0.0000000
  C       -0.3206930    -1.2871930     0.0000010
  C       -1.0703170     0.0000000     0.0000210
  C        1.0315930     1.2651910    -0.0000170
  C        1.0315930    -1.2651910    -0.0000160
  C        1.8773745    -0.0560533    -0.0000337
  C       -1.1413450     2.5387140     0.0000150
  C       -1.1413450    -2.5387140     0.0000190
  H        1.6245090     2.1778770    -0.0000300
  H        1.6245090    -2.1778770    -0.0000270
  H       -1.7933300     2.5679320     0.8776520
  H       -1.7934040     2.5679060    -0.8775670
  H       -0.4992340     3.4225460    -0.0000240
  H       -0.4992350    -3.4225460    -0.0000280
  H       -1.7934120    -2.5679030    -0.8775580
  H       -1.7933230    -2.5679350     0.8776610
units angstrom
no_reorient  #important for SAPT in psi4, default
symmetry c1  #important for SAPT in psi4, default
}

set PROPERTIES_ORIGIN ["COM"]
properties('MP2/aug-cc-pvtz', properties = ['dipole'])
--------------------------------------------------------------------------

    Molecular point group: c1
  Charge       = 0
  Multiplicity = 1
  Basis Set: AUG-CC-PVTZ
    Blend: AUG-CC-PVTZ
  Basis Set: (AUG-CC-PVTZ AUX)
    Blend: AUG-CC-PVTZ-JKFIT

    Orbital Energies [Eh]
    ---------------------

    Doubly Occupied:

       1A    -20.574550     2A    -20.572710     3A    -11.356059
       4A    -11.352159     5A    -11.289199     6A    -11.276674
       7A    -11.267576     8A    -11.267134     9A    -11.243267
      10A    -11.237459    11A     -1.451652    12A     -1.397180
      13A     -1.152177    14A     -1.096087    15A     -0.999892
      16A     -0.956465    17A     -0.924468    18A     -0.820773
      19A     -0.801098    20A     -0.722490    21A     -0.691583
      22A     -0.679589    23A     -0.617812    24A     -0.607671
      25A     -0.600120    26A     -0.595857    27A     -0.585949
      28A     -0.582036    29A     -0.581679    30A     -0.552121
      31A     -0.545217    32A     -0.532161    33A     -0.456075
      34A     -0.419854    35A     -0.404069    36A     -0.379535

  @DF-RHF Final Energy:  -457.46675600415864

   => Energetics <=

    Nuclear Repulsion Energy =            490.2690578336422504
    One-Electron Energy =               -1594.2908339152563713
    Two-Electron Energy =                 646.5550200774553105
    Total Energy =                       -457.4667560041586967
  Basis Set: (AUG-CC-PVTZ AUX)
    Blend: AUG-CC-PVTZ-RI
    Molecular point group: c1

    Geometry (in Angstrom), charge = 0, multiplicity = 1:

       Center              X                  Y                   Z               Mass
    ------------   -----------------  -----------------  -----------------  -----------------
         O           -2.353332936319     0.004943973456     0.000053711245    15.994914619570
         O            2.986886063681     0.004943973456    -0.000055288755    15.994914619570
         C           -0.364187936319     1.292136973456     0.000000711245    12.000000000000
         C           -0.364187936319    -1.282249026544     0.000001711245    12.000000000000
         C           -1.113811936319     0.004943973456     0.000021711245    12.000000000000
         C            0.988098063681     1.270134973456    -0.000016288755    12.000000000000
         C            0.988098063681    -1.260247026544    -0.000015288755    12.000000000000
         C            1.833879563681    -0.051109326544    -0.000032988755    12.000000000000
         C           -1.184839936319     2.543657973456     0.000015711245    12.000000000000
         C           -1.184839936319    -2.533770026544     0.000019711245    12.000000000000
         H            1.581014063681     2.182820973456    -0.000029288755     1.007825032230
         H            1.581014063681    -2.172933026544    -0.000026288755     1.007825032230
         H           -1.836824936319     2.572875973456     0.877652711245     1.007825032230
         H           -1.836898936319     2.572849973456    -0.877566288755     1.007825032230
         H           -0.542728936319     3.427489973456    -0.000023288755     1.007825032230
         H           -0.542729936319    -3.417602026544    -0.000027288755     1.007825032230
         H           -1.836906936319    -2.562959026544    -0.877557288755     1.007825032230
         H           -1.836817936319    -2.562991026544     0.877661711245     1.007825032230

  Basis Set: AUG-CC-PVTZ
    Blend: AUG-CC-PVTZ
  Basis Set: (AUG-CC-PVTZ AUX)
    Blend: AUG-CC-PVTZ-JKFIT
	 Reference Energy          =    -457.4667560041586398 [Eh]
	 Singles Energy            =      -0.0000000000000000 [Eh]
	 Same-Spin Energy          =      -0.4639946858753692 [Eh]
	 Opposite-Spin Energy      =      -1.4714571871009738 [Eh]
	 Correlation Energy        =      -1.9354518729763430 [Eh]
	 Total Energy              =    -459.4022078771349697 [Eh]

	 ================> DF-SCS-MP2 Energies <==================
	-----------------------------------------------------------
	 SCS Same-Spin Scale       =       0.3333333333333333 [-]
	 SCS Opposite-Spin Scale   =       1.2000000000000000 [-]
	 SCS Same-Spin Energy      =      -0.1546648952917897 [Eh]
	 SCS Opposite-Spin Energy  =      -1.7657486245211687 [Eh]
	 SCS Correlation Energy    =      -1.9204135198129584 [Eh]
	 SCS Total Energy          =    -459.3871695239715791 [Eh]
	-----------------------------------------------------------

  Dipole Moment: [D]
     X:    -0.6458      Y:    -0.2804      Z:     0.0000     Total:     0.7040

*** Psi4 exiting successfully. Buy a developer a beer!
