                               Psi4 1.4a3.dev225

  ==> Input File <==

--------------------------------------------------------------------------
#psi4
#
memory 32 gb

molecule  {
0 1
  O       -2.3098380     0.0000000     0.0000530
  O        3.0303810     0.0000000    -0.0000560
  C       -0.3206930     1.2871930     0.0000000
  C       -0.3206930    -1.2871930     0.0000010
  C       -1.0703170     0.0000000     0.0000210
  C        1.0315930     1.2651910    -0.0000170
  C        1.0315930    -1.2651910    -0.0000160
  C        1.7909690     0.0000000    -0.0000320
  C       -1.1139276     2.4969015     0.0000145
  C       -1.1413450    -2.5387140     0.0000190
  H        1.6245090     2.1778770    -0.0000300
  H        1.6245090    -2.1778770    -0.0000270
  H       -1.7933300     2.5679320     0.8776520
  H       -1.7934040     2.5679060    -0.8775670
  H       -0.4992340     3.4225460    -0.0000240
  H       -0.4992350    -3.4225460    -0.0000280
  H       -1.7934120    -2.5679030    -0.8775580
  H       -1.7933230    -2.5679350     0.8776610
units angstrom
no_reorient  #important for SAPT in psi4, default
symmetry c1  #important for SAPT in psi4, default
}

set PROPERTIES_ORIGIN ["COM"]
properties('MP2/aug-cc-pvtz', properties = ['dipole'])
--------------------------------------------------------------------------

    Molecular point group: c1
  Charge       = 0
  Multiplicity = 1
  Basis Set: AUG-CC-PVTZ
    Blend: AUG-CC-PVTZ
  Basis Set: (AUG-CC-PVTZ AUX)
    Blend: AUG-CC-PVTZ-JKFIT

    Orbital Energies [Eh]
    ---------------------

    Doubly Occupied:

       1A    -20.578286     2A    -20.566851     3A    -11.360681
       4A    -11.353137     5A    -11.287620     6A    -11.285688
       7A    -11.270400     8A    -11.270313     9A    -11.244675
      10A    -11.243461    11A     -1.402533    12A     -1.389042
      13A     -1.162931    14A     -1.106455    15A     -1.009346
      16A     -0.965014    17A     -0.929070    18A     -0.822511
      19A     -0.808190    20A     -0.723114    21A     -0.697452
      22A     -0.658050    23A     -0.618356    24A     -0.614794
      25A     -0.610405    26A     -0.597366    27A     -0.586771
      28A     -0.575723    29A     -0.553251    30A     -0.552583
      31A     -0.541027    32A     -0.531753    33A     -0.458532
      34A     -0.436778    35A     -0.399191    36A     -0.383359

  @DF-RHF Final Energy:  -457.46819267655570

   => Energetics <=

    Nuclear Repulsion Energy =            491.4597987602121520
    One-Electron Energy =               -1596.6665653224745256
    Two-Electron Energy =                 647.7385738857067281
    Total Energy =                       -457.4681926765556454
  Basis Set: (AUG-CC-PVTZ AUX)
    Blend: AUG-CC-PVTZ-RI
    Molecular point group: c1

    Geometry (in Angstrom), charge = 0, multiplicity = 1:

       Center              X                  Y                   Z               Mass
    ------------   -----------------  -----------------  -----------------  -----------------
         O           -2.348130109713     0.003687916503     0.000053605403    15.994914619570
         O            2.992088890287     0.003687916503    -0.000055394597    15.994914619570
         C           -0.358985109713     1.290880916503     0.000000605403    12.000000000000
         C           -0.358985109713    -1.283505083497     0.000001605403    12.000000000000
         C           -1.108609109713     0.003687916503     0.000021605403    12.000000000000
         C            0.993300890287     1.268878916503    -0.000016394597    12.000000000000
         C            0.993300890287    -1.261503083497    -0.000015394597    12.000000000000
         C            1.752676890287     0.003687916503    -0.000031394597    12.000000000000
         C           -1.152219709713     2.500589416503     0.000015105403    12.000000000000
         C           -1.179637109713    -2.535026083497     0.000019605403    12.000000000000
         H            1.586216890287     2.181564916503    -0.000029394597     1.007825032230
         H            1.586216890287    -2.174189083497    -0.000026394597     1.007825032230
         H           -1.831622109713     2.571619916503     0.877652605403     1.007825032230
         H           -1.831696109713     2.571593916503    -0.877566394597     1.007825032230
         H           -0.537526109713     3.426233916503    -0.000023394597     1.007825032230
         H           -0.537527109713    -3.418858083497    -0.000027394597     1.007825032230
         H           -1.831704109713    -2.564215083497    -0.877557394597     1.007825032230
         H           -1.831615109713    -2.564247083497     0.877661605403     1.007825032230

  Basis Set: AUG-CC-PVTZ
    Blend: AUG-CC-PVTZ
  Basis Set: (AUG-CC-PVTZ AUX)
    Blend: AUG-CC-PVTZ-JKFIT
	 Reference Energy          =    -457.4681926765557023 [Eh]
	 Singles Energy            =      -0.0000000000000000 [Eh]
	 Same-Spin Energy          =      -0.4674332911477412 [Eh]
	 Opposite-Spin Energy      =      -1.4775496175954086 [Eh]
	 Correlation Energy        =      -1.9449829087431498 [Eh]
	 Total Energy              =    -459.4131755852988590 [Eh]

	 ================> DF-SCS-MP2 Energies <==================
	-----------------------------------------------------------
	 SCS Same-Spin Scale       =       0.3333333333333333 [-]
	 SCS Opposite-Spin Scale   =       1.2000000000000000 [-]
	 SCS Same-Spin Energy      =      -0.1558110970492471 [Eh]
	 SCS Opposite-Spin Energy  =      -1.7730595411144903 [Eh]
	 SCS Correlation Energy    =      -1.9288706381637373 [Eh]
	 SCS Total Energy          =    -459.3970633147194462 [Eh]
	-----------------------------------------------------------

  Dipole Moment: [D]
     X:    -1.1629      Y:     0.0202      Z:     0.0000     Total:     1.1631

*** Psi4 exiting successfully. Buy a developer a beer!
