                               Psi4 1.4a3.dev225

  ==> Input File <==

--------------------------------------------------------------------------
#psi4
#
memory 32 gb

molecule  {
0 1
  O       -2.3098380     0.0000000     0.0000530
  O        3.0303810     0.0000000    -0.0000560
  C       -0.3206930     1.2871930     0.0000000
  C       -0.3206930    -1.2871930     0.0000010
  C       -1.0602520    -0.0172828     0.0000207
  C        1.0315930     1.2651910    -0.0000170
  C        1.0315930    -1.2651910    -0.0000160
  C        1.7909690     0.0000000    -0.0000320
  C       -1.1413450     2.5387140     0.0000150
  C       -1.1413450    -2.5387140     0.0000190
  H        1.6245090     2.1778770    -0.0000300
  H        1.6245090    -2.1778770    -0.0000270
  H       -1.7933300     2.5679320     0.8776520
  H       -1.7934040     2.5679060    -0.8775670
  H       -0.4992340     3.4225460    -0.0000240
  H       -0.4992350    -3.4225460    -0.0000280
  H       -1.7934120    -2.5679030    -0.8775580
  H       -1.7933230    -2.5679350     0.8776610
units angstrom
no_reorient  #important for SAPT in psi4, default
symmetry c1  #important for SAPT in psi4, default
}

set PROPERTIES_ORIGIN ["COM"]
properties('MP2/aug-cc-pvtz', properties = ['dipole'])
--------------------------------------------------------------------------

    Molecular point group: c1
  Charge       = 0
  Multiplicity = 1
  Basis Set: AUG-CC-PVTZ
    Blend: AUG-CC-PVTZ
  Basis Set: (AUG-CC-PVTZ AUX)
    Blend: AUG-CC-PVTZ-JKFIT

    Orbital Energies [Eh]
    ---------------------

    Doubly Occupied:

       1A    -20.577143     2A    -20.567624     3A    -11.360772
       4A    -11.353770     5A    -11.288325     6A    -11.287202
       7A    -11.272824     8A    -11.269018     9A    -11.243768
      10A    -11.243366    11A     -1.395645    12A     -1.389480
      13A     -1.162019    14A     -1.102954    15A     -1.007496
      16A     -0.965252    17A     -0.931366    18A     -0.824267
      19A     -0.808247    20A     -0.721946    21A     -0.696135
      22A     -0.655536    23A     -0.618004    24A     -0.611479
      25A     -0.607911    26A     -0.594096    27A     -0.589248
      28A     -0.574327    29A     -0.555310    30A     -0.551001
      31A     -0.548124    32A     -0.530418    33A     -0.459146
      34A     -0.436864    35A     -0.399501    36A     -0.385109

  @DF-RHF Final Energy:  -457.46973599176954

   => Energetics <=

    Nuclear Repulsion Energy =            490.5486946657392764
    One-Electron Energy =               -1594.8674766176052344
    Two-Electron Energy =                 646.8490459600964186
    Total Energy =                       -457.4697359917695394
  Basis Set: (AUG-CC-PVTZ AUX)
    Blend: AUG-CC-PVTZ-RI
    Molecular point group: c1

    Geometry (in Angstrom), charge = 0, multiplicity = 1:

       Center              X                  Y                   Z               Mass
    ------------   -----------------  -----------------  -----------------  -----------------
         O           -2.346599605622     0.001524365282     0.000053587763    15.994914619570
         O            2.993619394378     0.001524365282    -0.000055412237    15.994914619570
         C           -0.357454605622     1.288717365282     0.000000587763    12.000000000000
         C           -0.357454605622    -1.285668634718     0.000001587763    12.000000000000
         C           -1.097013605622    -0.015758434718     0.000021287763    12.000000000000
         C            0.994831394378     1.266715365282    -0.000016412237    12.000000000000
         C            0.994831394378    -1.263666634718    -0.000015412237    12.000000000000
         C            1.754207394378     0.001524365282    -0.000031412237    12.000000000000
         C           -1.178106605622     2.540238365282     0.000015587763    12.000000000000
         C           -1.178106605622    -2.537189634718     0.000019587763    12.000000000000
         H            1.587747394378     2.179401365282    -0.000029412237     1.007825032230
         H            1.587747394378    -2.176352634718    -0.000026412237     1.007825032230
         H           -1.830091605622     2.569456365282     0.877652587763     1.007825032230
         H           -1.830165605622     2.569430365282    -0.877566412237     1.007825032230
         H           -0.535995605622     3.424070365282    -0.000023412237     1.007825032230
         H           -0.535996605622    -3.421021634718    -0.000027412237     1.007825032230
         H           -1.830173605622    -2.566378634718    -0.877557412237     1.007825032230
         H           -1.830084605622    -2.566410634718     0.877661587763     1.007825032230

  Basis Set: AUG-CC-PVTZ
    Blend: AUG-CC-PVTZ
  Basis Set: (AUG-CC-PVTZ AUX)
    Blend: AUG-CC-PVTZ-JKFIT
	 Reference Energy          =    -457.4697359917695394 [Eh]
	 Singles Energy            =      -0.0000000000000000 [Eh]
	 Same-Spin Energy          =      -0.4672371629294215 [Eh]
	 Opposite-Spin Energy      =      -1.4777572698997767 [Eh]
	 Correlation Energy        =      -1.9449944328291981 [Eh]
	 Total Energy              =    -459.4147304245987584 [Eh]

	 ================> DF-SCS-MP2 Energies <==================
	-----------------------------------------------------------
	 SCS Same-Spin Scale       =       0.3333333333333333 [-]
	 SCS Opposite-Spin Scale   =       1.2000000000000000 [-]
	 SCS Same-Spin Energy      =      -0.1557457209764738 [Eh]
	 SCS Opposite-Spin Energy  =      -1.7733087238797320 [Eh]
	 SCS Correlation Energy    =      -1.9290544448562059 [Eh]
	 SCS Total Energy          =    -459.3987904366257453 [Eh]
	-----------------------------------------------------------

  Dipole Moment: [D]
     X:    -1.0899      Y:    -0.0628      Z:     0.0000     Total:     1.0917

*** Psi4 exiting successfully. Buy a developer a beer!
