                               Psi4 1.4a3.dev225

  ==> Input File <==

--------------------------------------------------------------------------
#psi4
#
memory 32 gb

molecule  {
0 1
  O       -2.3098380     0.0000000     0.0000530
  O        3.0303810     0.0000000    -0.0000560
  C       -0.3206930     1.2871930     0.0000000
  C       -0.3206930    -1.2871930     0.0000010
  C       -1.0703170     0.0000000     0.0000210
  C        1.0315930     1.2651910    -0.0000170
  C        1.0315930    -1.2651910    -0.0000160
  C        1.8938942     0.1714830    -0.0000342
  C       -1.1413450     2.5387140     0.0000150
  C       -1.1413450    -2.5387140     0.0000190
  H        1.6245090     2.1778770    -0.0000300
  H        1.6245090    -2.1778770    -0.0000270
  H       -1.7933300     2.5679320     0.8776520
  H       -1.7934040     2.5679060    -0.8775670
  H       -0.4992340     3.4225460    -0.0000240
  H       -0.4992350    -3.4225460    -0.0000280
  H       -1.7934120    -2.5679030    -0.8775580
  H       -1.7933230    -2.5679350     0.8776610
units angstrom
no_reorient  #important for SAPT in psi4, default
symmetry c1  #important for SAPT in psi4, default
}

set PROPERTIES_ORIGIN ["COM"]
properties('MP2/aug-cc-pvtz', properties = ['dipole'])
--------------------------------------------------------------------------

    Molecular point group: c1
  Charge       = 0
  Multiplicity = 1
  Basis Set: AUG-CC-PVTZ
    Blend: AUG-CC-PVTZ
  Basis Set: (AUG-CC-PVTZ AUX)
    Blend: AUG-CC-PVTZ-JKFIT

    Orbital Energies [Eh]
    ---------------------

    Doubly Occupied:

       1A    -20.577269     2A    -20.572164     3A    -11.355535
       4A    -11.355477     5A    -11.303154     6A    -11.266559
       7A    -11.264328     8A    -11.262219     9A    -11.249344
      10A    -11.231080    11A     -1.456927    12A     -1.396741
      13A     -1.157044    14A     -1.092467    15A     -1.013845
      16A     -0.950159    17A     -0.924138    18A     -0.826542
      19A     -0.796093    20A     -0.722030    21A     -0.692996
      22A     -0.681833    23A     -0.620593    24A     -0.606652
      25A     -0.599062    26A     -0.594688    27A     -0.588126
      28A     -0.583148    29A     -0.582317    30A     -0.555140
      31A     -0.542466    32A     -0.531545    33A     -0.453321
      34A     -0.407680    35A     -0.405663    36A     -0.374787

  @DF-RHF Final Energy:  -457.44097825687277

   => Energetics <=

    Nuclear Repulsion Energy =            490.1676879162608316
    One-Electron Energy =               -1594.0310723983498065
    Two-Electron Energy =                 646.4224062252162639
    Total Energy =                       -457.4409782568727678
  Basis Set: (AUG-CC-PVTZ AUX)
    Blend: AUG-CC-PVTZ-RI
    Molecular point group: c1

    Geometry (in Angstrom), charge = 0, multiplicity = 1:

       Center              X                  Y                   Z               Mass
    ------------   -----------------  -----------------  -----------------  -----------------
         O           -2.354789995195    -0.015125022079     0.000053755345    15.994914619570
         O            2.985429004805    -0.015125022079    -0.000055244655    15.994914619570
         C           -0.365644995195     1.272067977921     0.000000755345    12.000000000000
         C           -0.365644995195    -1.302318022079     0.000001755345    12.000000000000
         C           -1.115268995195    -0.015125022079     0.000021755345    12.000000000000
         C            0.986641004805     1.250065977921    -0.000016244655    12.000000000000
         C            0.986641004805    -1.280316022079    -0.000015244655    12.000000000000
         C            1.848942204805     0.156357977921    -0.000033444655    12.000000000000
         C           -1.186296995195     2.523588977921     0.000015755345    12.000000000000
         C           -1.186296995195    -2.553839022079     0.000019755345    12.000000000000
         H            1.579557004805     2.162751977921    -0.000029244655     1.007825032230
         H            1.579557004805    -2.193002022079    -0.000026244655     1.007825032230
         H           -1.838281995195     2.552806977921     0.877652755345     1.007825032230
         H           -1.838355995195     2.552780977921    -0.877566244655     1.007825032230
         H           -0.544185995195     3.407420977921    -0.000023244655     1.007825032230
         H           -0.544186995195    -3.437671022079    -0.000027244655     1.007825032230
         H           -1.838363995195    -2.583028022079    -0.877557244655     1.007825032230
         H           -1.838274995195    -2.583060022079     0.877661755345     1.007825032230

  Basis Set: AUG-CC-PVTZ
    Blend: AUG-CC-PVTZ
  Basis Set: (AUG-CC-PVTZ AUX)
    Blend: AUG-CC-PVTZ-JKFIT
	 Reference Energy          =    -457.4409782568727678 [Eh]
	 Singles Energy            =      -0.0000000000000000 [Eh]
	 Same-Spin Energy          =      -0.4652077809508472 [Eh]
	 Opposite-Spin Energy      =      -1.4735061816083588 [Eh]
	 Correlation Energy        =      -1.9387139625592060 [Eh]
	 Total Energy              =    -459.3796922194320018 [Eh]

	 ================> DF-SCS-MP2 Energies <==================
	-----------------------------------------------------------
	 SCS Same-Spin Scale       =       0.3333333333333333 [-]
	 SCS Opposite-Spin Scale   =       1.2000000000000000 [-]
	 SCS Same-Spin Energy      =      -0.1550692603169491 [Eh]
	 SCS Opposite-Spin Energy  =      -1.7682074179300304 [Eh]
	 SCS Correlation Energy    =      -1.9232766782469795 [Eh]
	 SCS Total Energy          =    -459.3642549351197317 [Eh]
	-----------------------------------------------------------

  Dipole Moment: [D]
     X:    -0.5502      Y:     0.8786      Z:     0.0000     Total:     1.0366

*** Psi4 exiting successfully. Buy a developer a beer!
