                               Psi4 1.4a3.dev225

  ==> Input File <==

--------------------------------------------------------------------------
#psi4
#
memory 32 gb

molecule  {
0 1
  O       -2.3098380     0.0000000     0.0000530
  O        3.0303810     0.0000000    -0.0000560
  C       -0.3206930     1.2871930     0.0000000
  C       -0.3206930    -1.2871930     0.0000010
  C       -1.0703170     0.0000000     0.0000210
  C        0.8316195     1.2684446    -0.0000145
  C        1.0315930    -1.2651910    -0.0000160
  C        1.7909690     0.0000000    -0.0000320
  C       -1.1413450     2.5387140     0.0000150
  C       -1.1413450    -2.5387140     0.0000190
  H        1.6245090     2.1778770    -0.0000300
  H        1.6245090    -2.1778770    -0.0000270
  H       -1.7933300     2.5679320     0.8776520
  H       -1.7934040     2.5679060    -0.8775670
  H       -0.4992340     3.4225460    -0.0000240
  H       -0.4992350    -3.4225460    -0.0000280
  H       -1.7934120    -2.5679030    -0.8775580
  H       -1.7933230    -2.5679350     0.8776610
units angstrom
no_reorient  #important for SAPT in psi4, default
symmetry c1  #important for SAPT in psi4, default
}

set PROPERTIES_ORIGIN ["COM"]
properties('MP2/aug-cc-pvtz', properties = ['dipole'])
--------------------------------------------------------------------------

    Molecular point group: c1
  Charge       = 0
  Multiplicity = 1
  Basis Set: AUG-CC-PVTZ
    Blend: AUG-CC-PVTZ
  Basis Set: (AUG-CC-PVTZ AUX)
    Blend: AUG-CC-PVTZ-JKFIT

    Orbital Energies [Eh]
    ---------------------

    Doubly Occupied:

       1A    -20.576855     2A    -20.575917     3A    -11.363889
       4A    -11.360163     5A    -11.289978     6A    -11.269851
       7A    -11.258780     8A    -11.248520     9A    -11.244627
      10A    -11.238638    11A     -1.401408    12A     -1.391436
      13A     -1.188712    14A     -1.118994    15A     -1.001323
      16A     -0.965771    17A     -0.922900    18A     -0.821286
      19A     -0.811832    20A     -0.724714    21A     -0.690499
      22A     -0.659498    23A     -0.623934    24A     -0.612753
      25A     -0.607525    26A     -0.591159    27A     -0.587586
      28A     -0.560870    29A     -0.554150    30A     -0.550275
      31A     -0.543755    32A     -0.533156    33A     -0.463847
      34A     -0.440083    35A     -0.411512    36A     -0.393518

  @DF-RHF Final Energy:  -457.40356963528365

   => Energetics <=

    Nuclear Repulsion Energy =            492.9945859485095525
    One-Electron Energy =               -1599.5968795157557452
    Two-Electron Energy =                 649.1987239319626042
    Total Energy =                       -457.4035696352837022
  Basis Set: (AUG-CC-PVTZ AUX)
    Blend: AUG-CC-PVTZ-RI
    Molecular point group: c1

    Geometry (in Angstrom), charge = 0, multiplicity = 1:

       Center              X                  Y                   Z               Mass
    ------------   -----------------  -----------------  -----------------  -----------------
         O           -2.328073938647    -0.000286971722     0.000053340799    15.994914619570
         O            3.012145061353    -0.000286971722    -0.000055659201    15.994914619570
         C           -0.338928938647     1.286906028278     0.000000340799    12.000000000000
         C           -0.338928938647    -1.287479971722     0.000001340799    12.000000000000
         C           -1.088552938647    -0.000286971722     0.000021340799    12.000000000000
         C            0.813383561353     1.268157628278    -0.000014159201    12.000000000000
         C            1.013357061353    -1.265477971722    -0.000015659201    12.000000000000
         C            1.772733061353    -0.000286971722    -0.000031659201    12.000000000000
         C           -1.159580938647     2.538427028278     0.000015340799    12.000000000000
         C           -1.159580938647    -2.539000971722     0.000019340799    12.000000000000
         H            1.606273061353     2.177590028278    -0.000029659201     1.007825032230
         H            1.606273061353    -2.178163971722    -0.000026659201     1.007825032230
         H           -1.811565938647     2.567645028278     0.877652340799     1.007825032230
         H           -1.811639938647     2.567619028278    -0.877566659201     1.007825032230
         H           -0.517469938647     3.422259028278    -0.000023659201     1.007825032230
         H           -0.517470938647    -3.422832971722    -0.000027659201     1.007825032230
         H           -1.811647938647    -2.568189971722    -0.877557659201     1.007825032230
         H           -1.811558938647    -2.568221971722     0.877661340799     1.007825032230

  Basis Set: AUG-CC-PVTZ
    Blend: AUG-CC-PVTZ
  Basis Set: (AUG-CC-PVTZ AUX)
    Blend: AUG-CC-PVTZ-JKFIT
	 Reference Energy          =    -457.4035696352836453 [Eh]
	 Singles Energy            =      -0.0000000000000000 [Eh]
	 Same-Spin Energy          =      -0.4661060294152209 [Eh]
	 Opposite-Spin Energy      =      -1.4749170875823070 [Eh]
	 Correlation Energy        =      -1.9410231169975278 [Eh]
	 Total Energy              =    -459.3445927522811871 [Eh]

	 ================> DF-SCS-MP2 Energies <==================
	-----------------------------------------------------------
	 SCS Same-Spin Scale       =       0.3333333333333333 [-]
	 SCS Opposite-Spin Scale   =       1.2000000000000000 [-]
	 SCS Same-Spin Energy      =      -0.1553686764717403 [Eh]
	 SCS Opposite-Spin Energy  =      -1.7699005050987684 [Eh]
	 SCS Correlation Energy    =      -1.9252691815705087 [Eh]
	 SCS Total Energy          =    -459.3288388168541587 [Eh]
	-----------------------------------------------------------

  Dipole Moment: [D]
     X:    -1.0116      Y:    -0.3898      Z:     0.0000     Total:     1.0841

*** Psi4 exiting successfully. Buy a developer a beer!
