                               Psi4 1.4a3.dev225

  ==> Input File <==

--------------------------------------------------------------------------
#psi4
#
memory 32 gb

molecule  {
0 1
  O       -2.3098380     0.0000000     0.0000530
  O        3.0303810     0.0000000    -0.0000560
  C       -0.3206930     1.2871930     0.0000000
  C       -0.3206930    -1.2871930     0.0000010
  C       -1.0703170     0.0000000     0.0000210
  C        1.0315930     1.2651910    -0.0000170
  C        1.0315930    -1.2651910    -0.0000160
  C        1.8409690     0.0000000    -0.0000330
  C       -1.1413450     2.5387140     0.0000150
  C       -1.1413450    -2.5387140     0.0000190
  H        1.6245090     2.1778770    -0.0000300
  H        1.6245090    -2.1778770    -0.0000270
  H       -1.7933300     2.5679320     0.8776520
  H       -1.7934040     2.5679060    -0.8775670
  H       -0.4992340     3.4225460    -0.0000240
  H       -0.4992350    -3.4225460    -0.0000280
  H       -1.7934120    -2.5679030    -0.8775580
  H       -1.7933230    -2.5679350     0.8776610
units angstrom
no_reorient  #important for SAPT in psi4, default
symmetry c1  #important for SAPT in psi4, default
}

set PROPERTIES_ORIGIN ["COM"]
properties('MP2/aug-cc-pvtz', properties = ['dipole'])
--------------------------------------------------------------------------

    Molecular point group: c1
  Charge       = 0
  Multiplicity = 1
  Basis Set: AUG-CC-PVTZ
    Blend: AUG-CC-PVTZ
  Basis Set: (AUG-CC-PVTZ AUX)
    Blend: AUG-CC-PVTZ-JKFIT

    Orbital Energies [Eh]
    ---------------------

    Doubly Occupied:

       1A    -20.574933     2A    -20.571198     3A    -11.357979
       4A    -11.352453     5A    -11.284828     6A    -11.284804
       7A    -11.268947     8A    -11.268924     9A    -11.241661
      10A    -11.241661    11A     -1.424651    12A     -1.399155
      13A     -1.155377    14A     -1.098887    15A     -1.001769
      16A     -0.960589    17A     -0.926739    18A     -0.821066
      19A     -0.804522    20A     -0.721906    21A     -0.693685
      22A     -0.669205    23A     -0.617230    24A     -0.609975
      25A     -0.602831    26A     -0.595360    27A     -0.587380
      28A     -0.578441    29A     -0.569348    30A     -0.551804
      31A     -0.547084    32A     -0.533213    33A     -0.457790
      34A     -0.427960    35A     -0.402580    36A     -0.382087

  @DF-RHF Final Energy:  -457.47393624712208

   => Energetics <=

    Nuclear Repulsion Energy =            490.3546633734742954
    One-Electron Energy =               -1594.4811511270286246
    Two-Electron Energy =                 646.6525515064322462
    Total Energy =                       -457.4739362471220829
  Basis Set: (AUG-CC-PVTZ AUX)
    Blend: AUG-CC-PVTZ-RI
    Molecular point group: c1

    Geometry (in Angstrom), charge = 0, multiplicity = 1:

       Center              X                  Y                   Z               Mass
    ------------   -----------------  -----------------  -----------------  -----------------
         O           -2.350121924200    -0.000000000000     0.000053649504    15.994914619570
         O            2.990097075800    -0.000000000000    -0.000055350496    15.994914619570
         C           -0.360976924200     1.287193000000     0.000000649504    12.000000000000
         C           -0.360976924200    -1.287193000000     0.000001649504    12.000000000000
         C           -1.110600924200    -0.000000000000     0.000021649504    12.000000000000
         C            0.991309075800     1.265191000000    -0.000016350496    12.000000000000
         C            0.991309075800    -1.265191000000    -0.000015350496    12.000000000000
         C            1.800685075800    -0.000000000000    -0.000032350496    12.000000000000
         C           -1.181628924200     2.538714000000     0.000015649504    12.000000000000
         C           -1.181628924200    -2.538714000000     0.000019649504    12.000000000000
         H            1.584225075800     2.177877000000    -0.000029350496     1.007825032230
         H            1.584225075800    -2.177877000000    -0.000026350496     1.007825032230
         H           -1.833613924200     2.567932000000     0.877652649504     1.007825032230
         H           -1.833687924200     2.567906000000    -0.877566350496     1.007825032230
         H           -0.539517924200     3.422546000000    -0.000023350496     1.007825032230
         H           -0.539518924200    -3.422546000000    -0.000027350496     1.007825032230
         H           -1.833695924200    -2.567903000000    -0.877557350496     1.007825032230
         H           -1.833606924200    -2.567935000000     0.877661649504     1.007825032230

  Basis Set: AUG-CC-PVTZ
    Blend: AUG-CC-PVTZ
  Basis Set: (AUG-CC-PVTZ AUX)
    Blend: AUG-CC-PVTZ-JKFIT
	 Reference Energy          =    -457.4739362471220829 [Eh]
	 Singles Energy            =      -0.0000000000000000 [Eh]
	 Same-Spin Energy          =      -0.4649601602484368 [Eh]
	 Opposite-Spin Energy      =      -1.4733496397813730 [Eh]
	 Correlation Energy        =      -1.9383098000298098 [Eh]
	 Total Energy              =    -459.4122460471518821 [Eh]

	 ================> DF-SCS-MP2 Energies <==================
	-----------------------------------------------------------
	 SCS Same-Spin Scale       =       0.3333333333333333 [-]
	 SCS Opposite-Spin Scale   =       1.2000000000000000 [-]
	 SCS Same-Spin Energy      =      -0.1549867200828123 [Eh]
	 SCS Opposite-Spin Energy  =      -1.7680195677376476 [Eh]
	 SCS Correlation Energy    =      -1.9230062878204599 [Eh]
	 SCS Total Energy          =    -459.3969425349425251 [Eh]
	-----------------------------------------------------------

  Dipole Moment: [D]
     X:    -0.8753      Y:    -0.0000      Z:     0.0000     Total:     0.8753

*** Psi4 exiting successfully. Buy a developer a beer!
