                               Psi4 1.4a3.dev225

  ==> Input File <==

--------------------------------------------------------------------------
#psi4
#
memory 32 gb

molecule  {
0 1
  O       -2.3098380     0.0000000     0.0000530
  O        3.0303810     0.0000000    -0.0000560
  C       -0.3206930     1.2871930     0.0000000
  C       -0.3206930    -1.2871930     0.0000010
  C       -1.0703170     0.0000000     0.0000210
  C        1.0315930     1.2651910    -0.0000170
  C        1.0315930    -1.2651910    -0.0000160
  C        1.7909690     0.0000000    -0.0000320
  C       -1.1523120     2.5554390     0.0000152
  C       -1.1413450    -2.5387140     0.0000190
  H        1.6245090     2.1778770    -0.0000300
  H        1.6245090    -2.1778770    -0.0000270
  H       -1.7933300     2.5679320     0.8776520
  H       -1.7934040     2.5679060    -0.8775670
  H       -0.4992340     3.4225460    -0.0000240
  H       -0.4992350    -3.4225460    -0.0000280
  H       -1.7934120    -2.5679030    -0.8775580
  H       -1.7933230    -2.5679350     0.8776610
units angstrom
no_reorient  #important for SAPT in psi4, default
symmetry c1  #important for SAPT in psi4, default
}

set PROPERTIES_ORIGIN ["COM"]
properties('MP2/aug-cc-pvtz', properties = ['dipole'])
--------------------------------------------------------------------------

    Molecular point group: c1
  Charge       = 0
  Multiplicity = 1
  Basis Set: AUG-CC-PVTZ
    Blend: AUG-CC-PVTZ
  Basis Set: (AUG-CC-PVTZ AUX)
    Blend: AUG-CC-PVTZ-JKFIT

    Orbital Energies [Eh]
    ---------------------

    Doubly Occupied:

       1A    -20.577906     2A    -20.566888     3A    -11.360503
       4A    -11.353220     5A    -11.288170     6A    -11.287526
       7A    -11.270301     8A    -11.270273     9A    -11.243382
      10A    -11.243123    11A     -1.401967    12A     -1.389062
      13A     -1.160123    14A     -1.100774    15A     -1.006485
      16A     -0.965034    17A     -0.929985    18A     -0.823369
      19A     -0.807775    20A     -0.721634    21A     -0.697127
      22A     -0.654876    23A     -0.618546    24A     -0.612869
      25A     -0.606651    26A     -0.592117    27A     -0.590415
      28A     -0.573419    29A     -0.555526    30A     -0.553513
      31A     -0.548352    32A     -0.533911    33A     -0.458564
      34A     -0.435155    35A     -0.399896    36A     -0.385104

  @DF-RHF Final Energy:  -457.47153264473224

   => Energetics <=

    Nuclear Repulsion Energy =            490.1715727278350414
    One-Electron Energy =               -1594.1191285901263655
    Two-Electron Energy =                 646.4760232175589181
    Total Energy =                       -457.4715326447322923
  Basis Set: (AUG-CC-PVTZ AUX)
    Blend: AUG-CC-PVTZ-RI
    Molecular point group: c1

    Geometry (in Angstrom), charge = 0, multiplicity = 1:

       Center              X                  Y                   Z               Mass
    ------------   -----------------  -----------------  -----------------  -----------------
         O           -2.344744556058    -0.001475166601     0.000053543662    15.994914619570
         O            2.995474443942    -0.001475166601    -0.000055456338    15.994914619570
         C           -0.355599556058     1.285717833399     0.000000543662    12.000000000000
         C           -0.355599556058    -1.288668166601     0.000001543662    12.000000000000
         C           -1.105223556058    -0.001475166601     0.000021543662    12.000000000000
         C            0.996686443942     1.263715833399    -0.000016456338    12.000000000000
         C            0.996686443942    -1.266666166601    -0.000015456338    12.000000000000
         C            1.756062443942    -0.001475166601    -0.000031456338    12.000000000000
         C           -1.187218556058     2.553963833399     0.000015743662    12.000000000000
         C           -1.176251556058    -2.540189166601     0.000019543662    12.000000000000
         H            1.589602443942     2.176401833399    -0.000029456338     1.007825032230
         H            1.589602443942    -2.179352166601    -0.000026456338     1.007825032230
         H           -1.828236556058     2.566456833399     0.877652543662     1.007825032230
         H           -1.828310556058     2.566430833399    -0.877566456338     1.007825032230
         H           -0.534140556058     3.421070833399    -0.000023456338     1.007825032230
         H           -0.534141556058    -3.424021166601    -0.000027456338     1.007825032230
         H           -1.828318556058    -2.569378166601    -0.877557456338     1.007825032230
         H           -1.828229556058    -2.569410166601     0.877661543662     1.007825032230

  Basis Set: AUG-CC-PVTZ
    Blend: AUG-CC-PVTZ
  Basis Set: (AUG-CC-PVTZ AUX)
    Blend: AUG-CC-PVTZ-JKFIT
	 Reference Energy          =    -457.4715326447322354 [Eh]
	 Singles Energy            =      -0.0000000000000000 [Eh]
	 Same-Spin Energy          =      -0.4666347094177152 [Eh]
	 Opposite-Spin Energy      =      -1.4767497673270720 [Eh]
	 Correlation Energy        =      -1.9433844767447872 [Eh]
	 Total Energy              =    -459.4149171214770035 [Eh]

	 ================> DF-SCS-MP2 Energies <==================
	-----------------------------------------------------------
	 SCS Same-Spin Scale       =       0.3333333333333333 [-]
	 SCS Opposite-Spin Scale   =       1.2000000000000000 [-]
	 SCS Same-Spin Energy      =      -0.1555449031392384 [Eh]
	 SCS Opposite-Spin Energy  =      -1.7720997207924862 [Eh]
	 SCS Correlation Energy    =      -1.9276446239317246 [Eh]
	 SCS Total Energy          =    -459.3991772686639479 [Eh]
	-----------------------------------------------------------

  Dipole Moment: [D]
     X:    -1.1216      Y:    -0.0069      Z:     0.0000     Total:     1.1216

*** Psi4 exiting successfully. Buy a developer a beer!
