                               Psi4 1.4a3.dev225

  ==> Input File <==

--------------------------------------------------------------------------
#psi4
#
memory 32 gb

molecule  {
0 1
  O       -2.3098380     0.0000000     0.0000530
  O        3.0303810     0.0000000    -0.0000560
  C       -0.3206930     1.2871930     0.0000000
  C       -0.3206930    -1.2871930     0.0000010
  C       -1.1147827    -0.0269456     0.0000213
  C        1.0315930     1.2651910    -0.0000170
  C        1.0315930    -1.2651910    -0.0000160
  C        1.7909690     0.0000000    -0.0000320
  C       -1.1413450     2.5387140     0.0000150
  C       -1.1413450    -2.5387140     0.0000190
  H        1.6245090     2.1778770    -0.0000300
  H        1.6245090    -2.1778770    -0.0000270
  H       -1.7933300     2.5679320     0.8776520
  H       -1.7934040     2.5679060    -0.8775670
  H       -0.4992340     3.4225460    -0.0000240
  H       -0.4992350    -3.4225460    -0.0000280
  H       -1.7934120    -2.5679030    -0.8775580
  H       -1.7933230    -2.5679350     0.8776610
units angstrom
no_reorient  #important for SAPT in psi4, default
symmetry c1  #important for SAPT in psi4, default
}

set PROPERTIES_ORIGIN ["COM"]
properties('MP2/aug-cc-pvtz', properties = ['dipole'])
--------------------------------------------------------------------------

    Molecular point group: c1
  Charge       = 0
  Multiplicity = 1
  Basis Set: AUG-CC-PVTZ
    Blend: AUG-CC-PVTZ
  Basis Set: (AUG-CC-PVTZ AUX)
    Blend: AUG-CC-PVTZ-JKFIT

    Orbital Energies [Eh]
    ---------------------

    Doubly Occupied:

       1A    -20.581804     2A    -20.563788     3A    -11.359542
       4A    -11.350798     5A    -11.286650     6A    -11.285947
       7A    -11.270701     8A    -11.264926     9A    -11.243105
      10A    -11.242287    11A     -1.432775    12A     -1.386481
      13A     -1.156293    14A     -1.099181    15A     -1.006400
      16A     -0.963829    17A     -0.923262    18A     -0.818628
      19A     -0.805746    20A     -0.722987    21A     -0.703449
      22A     -0.656040    23A     -0.621719    24A     -0.618878
      25A     -0.605506    26A     -0.590822    27A     -0.588991
      28A     -0.575037    29A     -0.553504    30A     -0.553298
      31A     -0.551741    32A     -0.546598    33A     -0.454834
      34A     -0.429212    35A     -0.400369    36A     -0.382562

  @DF-RHF Final Energy:  -457.47357118518704

   => Energetics <=

    Nuclear Repulsion Energy =            490.5045038813304359
    One-Electron Energy =               -1594.7607660945736825
    Two-Electron Energy =                 646.7826910280560924
    Total Energy =                       -457.4735711851870974
  Basis Set: (AUG-CC-PVTZ AUX)
    Blend: AUG-CC-PVTZ-RI
    Molecular point group: c1

    Geometry (in Angstrom), charge = 0, multiplicity = 1:

       Center              X                  Y                   Z               Mass
    ------------   -----------------  -----------------  -----------------  -----------------
         O           -2.341789927453     0.002376636722     0.000053534842    15.994914619570
         O            2.998429072547     0.002376636722    -0.000055465158    15.994914619570
         C           -0.352644927453     1.289569636722     0.000000534842    12.000000000000
         C           -0.352644927453    -1.284816363278     0.000001534842    12.000000000000
         C           -1.146734627453    -0.024568963278     0.000021834842    12.000000000000
         C            0.999641072547     1.267567636722    -0.000016465158    12.000000000000
         C            0.999641072547    -1.262814363278    -0.000015465158    12.000000000000
         C            1.759017072547     0.002376636722    -0.000031465158    12.000000000000
         C           -1.173296927453     2.541090636722     0.000015534842    12.000000000000
         C           -1.173296927453    -2.536337363278     0.000019534842    12.000000000000
         H            1.592557072547     2.180253636722    -0.000029465158     1.007825032230
         H            1.592557072547    -2.175500363278    -0.000026465158     1.007825032230
         H           -1.825281927453     2.570308636722     0.877652534842     1.007825032230
         H           -1.825355927453     2.570282636722    -0.877566465158     1.007825032230
         H           -0.531185927453     3.424922636722    -0.000023465158     1.007825032230
         H           -0.531186927453    -3.420169363278    -0.000027465158     1.007825032230
         H           -1.825363927453    -2.565526363278    -0.877557465158     1.007825032230
         H           -1.825274927453    -2.565558363278     0.877661534842     1.007825032230

  Basis Set: AUG-CC-PVTZ
    Blend: AUG-CC-PVTZ
  Basis Set: (AUG-CC-PVTZ AUX)
    Blend: AUG-CC-PVTZ-JKFIT
	 Reference Energy          =    -457.4735711851870406 [Eh]
	 Singles Energy            =      -0.0000000000000000 [Eh]
	 Same-Spin Energy          =      -0.4652589504272728 [Eh]
	 Opposite-Spin Energy      =      -1.4736731541129870 [Eh]
	 Correlation Energy        =      -1.9389321045402599 [Eh]
	 Total Energy              =    -459.4125032897272831 [Eh]

	 ================> DF-SCS-MP2 Energies <==================
	-----------------------------------------------------------
	 SCS Same-Spin Scale       =       0.3333333333333333 [-]
	 SCS Opposite-Spin Scale   =       1.2000000000000000 [-]
	 SCS Same-Spin Energy      =      -0.1550863168090909 [Eh]
	 SCS Opposite-Spin Energy  =      -1.7684077849355844 [Eh]
	 SCS Correlation Energy    =      -1.9234941017446754 [Eh]
	 SCS Total Energy          =    -459.3970652869317064 [Eh]
	-----------------------------------------------------------

  Dipole Moment: [D]
     X:    -1.3470      Y:    -0.1068      Z:     0.0000     Total:     1.3512

*** Psi4 exiting successfully. Buy a developer a beer!
