                               Psi4 1.4a3.dev225

  ==> Input File <==

--------------------------------------------------------------------------
#psi4
#
memory 32 gb

molecule  {
0 1
  O       -2.3098380     0.0000000     0.0000530
  O        3.0303810     0.0000000    -0.0000560
  C       -0.3206930     1.2871930     0.0000000
  C       -0.3206930    -1.2871930     0.0000010
  C       -0.9703170     0.0000000     0.0000184
  C        1.0315930     1.2651910    -0.0000170
  C        1.0315930    -1.2651910    -0.0000160
  C        1.7909690     0.0000000    -0.0000320
  C       -1.1413450     2.5387140     0.0000150
  C       -1.1413450    -2.5387140     0.0000190
  H        1.6245090     2.1778770    -0.0000300
  H        1.6245090    -2.1778770    -0.0000270
  H       -1.7933300     2.5679320     0.8776520
  H       -1.7934040     2.5679060    -0.8775670
  H       -0.4992340     3.4225460    -0.0000240
  H       -0.4992350    -3.4225460    -0.0000280
  H       -1.7934120    -2.5679030    -0.8775580
  H       -1.7933230    -2.5679350     0.8776610
units angstrom
no_reorient  #important for SAPT in psi4, default
symmetry c1  #important for SAPT in psi4, default
}

set PROPERTIES_ORIGIN ["COM"]
properties('MP2/aug-cc-pvtz', properties = ['dipole'])
--------------------------------------------------------------------------

    Molecular point group: c1
  Charge       = 0
  Multiplicity = 1
  Basis Set: AUG-CC-PVTZ
    Blend: AUG-CC-PVTZ
  Basis Set: (AUG-CC-PVTZ AUX)
    Blend: AUG-CC-PVTZ-JKFIT

    Orbital Energies [Eh]
    ---------------------

    Doubly Occupied:

       1A    -20.574112     2A    -20.568789     3A    -11.362063
       4A    -11.358565     5A    -11.289286     6A    -11.289259
       7A    -11.276004     8A    -11.275981     9A    -11.244896
      10A    -11.244895    11A     -1.395559    12A     -1.342385
      13A     -1.170788    14A     -1.109441    15A     -1.009089
      16A     -0.967428    17A     -0.943142    18A     -0.835139
      19A     -0.811851    20A     -0.722478    21A     -0.690821
      22A     -0.655395    23A     -0.616532    24A     -0.611892
      25A     -0.601341    26A     -0.591726    27A     -0.589489
      28A     -0.574696    29A     -0.558914    30A     -0.546002
      31A     -0.543130    32A     -0.508283    33A     -0.460881
      34A     -0.445780    35A     -0.394447    36A     -0.388876

  @DF-RHF Final Energy:  -457.44464997336047

   => Energetics <=

    Nuclear Repulsion Energy =            490.7826189300253645
    One-Electron Energy =               -1595.3158242524045818
    Two-Electron Energy =                 647.0885553490187476
    Total Energy =                       -457.4446499733604696
  Basis Set: (AUG-CC-PVTZ AUX)
    Blend: AUG-CC-PVTZ-RI
    Molecular point group: c1

    Geometry (in Angstrom), charge = 0, multiplicity = 1:

       Center              X                  Y                   Z               Mass
    ------------   -----------------  -----------------  -----------------  -----------------
         O           -2.354531988777    -0.000000000000     0.000053790626    15.994914619570
         O            2.985687011223    -0.000000000000    -0.000055209374    15.994914619570
         C           -0.365386988777     1.287193000000     0.000000790626    12.000000000000
         C           -0.365386988777    -1.287193000000     0.000001790626    12.000000000000
         C           -1.015010988777    -0.000000000000     0.000019190626    12.000000000000
         C            0.986899011223     1.265191000000    -0.000016209374    12.000000000000
         C            0.986899011223    -1.265191000000    -0.000015209374    12.000000000000
         C            1.746275011223    -0.000000000000    -0.000031209374    12.000000000000
         C           -1.186038988777     2.538714000000     0.000015790626    12.000000000000
         C           -1.186038988777    -2.538714000000     0.000019790626    12.000000000000
         H            1.579815011223     2.177877000000    -0.000029209374     1.007825032230
         H            1.579815011223    -2.177877000000    -0.000026209374     1.007825032230
         H           -1.838023988777     2.567932000000     0.877652790626     1.007825032230
         H           -1.838097988777     2.567906000000    -0.877566209374     1.007825032230
         H           -0.543927988777     3.422546000000    -0.000023209374     1.007825032230
         H           -0.543928988777    -3.422546000000    -0.000027209374     1.007825032230
         H           -1.838105988777    -2.567903000000    -0.877557209374     1.007825032230
         H           -1.838016988777    -2.567935000000     0.877661790626     1.007825032230

  Basis Set: AUG-CC-PVTZ
    Blend: AUG-CC-PVTZ
  Basis Set: (AUG-CC-PVTZ AUX)
    Blend: AUG-CC-PVTZ-JKFIT
	 Reference Energy          =    -457.4446499733604696 [Eh]
	 Singles Energy            =      -0.0000000000000000 [Eh]
	 Same-Spin Energy          =      -0.4712702026417481 [Eh]
	 Opposite-Spin Energy      =      -1.4858365437551411 [Eh]
	 Correlation Energy        =      -1.9571067463968892 [Eh]
	 Total Energy              =    -459.4017567197573726 [Eh]

	 ================> DF-SCS-MP2 Energies <==================
	-----------------------------------------------------------
	 SCS Same-Spin Scale       =       0.3333333333333333 [-]
	 SCS Opposite-Spin Scale   =       1.2000000000000000 [-]
	 SCS Same-Spin Energy      =      -0.1570900675472494 [Eh]
	 SCS Opposite-Spin Energy  =      -1.7830038525061693 [Eh]
	 SCS Correlation Energy    =      -1.9400939200534186 [Eh]
	 SCS Total Energy          =    -459.3847438934138836 [Eh]
	-----------------------------------------------------------

  Dipole Moment: [D]
     X:    -0.8395      Y:    -0.0000      Z:     0.0000     Total:     0.8395

*** Psi4 exiting successfully. Buy a developer a beer!
