                               Psi4 1.4a3.dev225

  ==> Input File <==

--------------------------------------------------------------------------
#psi4
#
memory 32 gb

molecule  {
0 1
  O       -2.3098380     0.0000000     0.0000530
  O        3.0303810     0.0000000    -0.0000560
  C       -0.3206930     1.2871930     0.0000000
  C       -0.3206930    -1.2871930     0.0000010
  C       -1.1709671     0.1728281     0.0000237
  C        1.0315930     1.2651910    -0.0000170
  C        1.0315930    -1.2651910    -0.0000160
  C        1.7909690     0.0000000    -0.0000320
  C       -1.1413450     2.5387140     0.0000150
  C       -1.1413450    -2.5387140     0.0000190
  H        1.6245090     2.1778770    -0.0000300
  H        1.6245090    -2.1778770    -0.0000270
  H       -1.7933300     2.5679320     0.8776520
  H       -1.7934040     2.5679060    -0.8775670
  H       -0.4992340     3.4225460    -0.0000240
  H       -0.4992350    -3.4225460    -0.0000280
  H       -1.7934120    -2.5679030    -0.8775580
  H       -1.7933230    -2.5679350     0.8776610
units angstrom
no_reorient  #important for SAPT in psi4, default
symmetry c1  #important for SAPT in psi4, default
}

set PROPERTIES_ORIGIN ["COM"]
properties('MP2/aug-cc-pvtz', properties = ['dipole'])
--------------------------------------------------------------------------

    Molecular point group: c1
  Charge       = 0
  Multiplicity = 1
  Basis Set: AUG-CC-PVTZ
    Blend: AUG-CC-PVTZ
  Basis Set: (AUG-CC-PVTZ AUX)
    Blend: AUG-CC-PVTZ-JKFIT

    Orbital Energies [Eh]
    ---------------------

    Doubly Occupied:

       1A    -20.588397     2A    -20.560620     3A    -11.362109
       4A    -11.348050     5A    -11.285488     6A    -11.283238
       7A    -11.279788     8A    -11.247461     9A    -11.245520
      10A    -11.237939    11A     -1.467303    12A     -1.383721
      13A     -1.160793    14A     -1.092081    15A     -1.008814
      16A     -0.961751    17A     -0.926908    18A     -0.816644
      19A     -0.794543    20A     -0.724806    21A     -0.714256
      22A     -0.656845    23A     -0.633041    24A     -0.625512
      25A     -0.603430    26A     -0.586844    27A     -0.586291
      28A     -0.577427    29A     -0.562119    30A     -0.558331
      31A     -0.550808    32A     -0.550250    33A     -0.446529
      34A     -0.407770    35A     -0.404148    36A     -0.375433

  @DF-RHF Final Energy:  -457.44101706917394

   => Energetics <=

    Nuclear Repulsion Energy =            490.5317116117814749
    One-Electron Energy =               -1594.7154376556768511
    Two-Electron Energy =                 646.7427089747213813
    Total Energy =                       -457.4410170691739950
  Basis Set: (AUG-CC-PVTZ AUX)
    Blend: AUG-CC-PVTZ-RI
    Molecular point group: c1

    Geometry (in Angstrom), charge = 0, multiplicity = 1:

       Center              X                  Y                   Z               Mass
    ------------   -----------------  -----------------  -----------------  -----------------
         O           -2.336834390808    -0.015243661636     0.000053323159    15.994914619570
         O            3.003384609192    -0.015243661636    -0.000055676841    15.994914619570
         C           -0.347689390808     1.271949338364     0.000000323159    12.000000000000
         C           -0.347689390808    -1.302436661636     0.000001323159    12.000000000000
         C           -1.197963490808     0.157584438364     0.000024023159    12.000000000000
         C            1.004596609192     1.249947338364    -0.000016676841    12.000000000000
         C            1.004596609192    -1.280434661636    -0.000015676841    12.000000000000
         C            1.763972609192    -0.015243661636    -0.000031676841    12.000000000000
         C           -1.168341390808     2.523470338364     0.000015323159    12.000000000000
         C           -1.168341390808    -2.553957661636     0.000019323159    12.000000000000
         H            1.597512609192     2.162633338364    -0.000029676841     1.007825032230
         H            1.597512609192    -2.193120661636    -0.000026676841     1.007825032230
         H           -1.820326390808     2.552688338364     0.877652323159     1.007825032230
         H           -1.820400390808     2.552662338364    -0.877566676841     1.007825032230
         H           -0.526230390808     3.407302338364    -0.000023676841     1.007825032230
         H           -0.526231390808    -3.437789661636    -0.000027676841     1.007825032230
         H           -1.820408390808    -2.583146661636    -0.877557676841     1.007825032230
         H           -1.820319390808    -2.583178661636     0.877661323159     1.007825032230

  Basis Set: AUG-CC-PVTZ
    Blend: AUG-CC-PVTZ
  Basis Set: (AUG-CC-PVTZ AUX)
    Blend: AUG-CC-PVTZ-JKFIT
	 Reference Energy          =    -457.4410170691739381 [Eh]
	 Singles Energy            =      -0.0000000000000000 [Eh]
	 Same-Spin Energy          =      -0.4655473380333904 [Eh]
	 Opposite-Spin Energy      =      -1.4736026777520987 [Eh]
	 Correlation Energy        =      -1.9391500157854891 [Eh]
	 Total Energy              =    -459.3801670849594529 [Eh]

	 ================> DF-SCS-MP2 Energies <==================
	-----------------------------------------------------------
	 SCS Same-Spin Scale       =       0.3333333333333333 [-]
	 SCS Opposite-Spin Scale   =       1.2000000000000000 [-]
	 SCS Same-Spin Energy      =      -0.1551824460111301 [Eh]
	 SCS Opposite-Spin Energy  =      -1.7683232133025184 [Eh]
	 SCS Correlation Energy    =      -1.9235056593136486 [Eh]
	 SCS Total Energy          =    -459.3645227284876000 [Eh]
	-----------------------------------------------------------

  Dipole Moment: [D]
     X:    -1.6729      Y:     0.7761      Z:     0.0000     Total:     1.8441

*** Psi4 exiting successfully. Buy a developer a beer!
