                               Psi4 1.4a3.dev225

  ==> Input File <==

--------------------------------------------------------------------------
#psi4
#
memory 32 gb

molecule  {
0 1
  O       -2.3098380     0.0000000     0.0000530
  O        3.0303810     0.0000000    -0.0000560
  C       -0.3206930     1.2871930     0.0000000
  C       -0.3206930    -1.2871930     0.0000010
  C       -1.0503170     0.0000000     0.0000205
  C        1.0315930     1.2651910    -0.0000170
  C        1.0315930    -1.2651910    -0.0000160
  C        1.7909690     0.0000000    -0.0000320
  C       -1.1413450     2.5387140     0.0000150
  C       -1.1413450    -2.5387140     0.0000190
  H        1.6245090     2.1778770    -0.0000300
  H        1.6245090    -2.1778770    -0.0000270
  H       -1.7933300     2.5679320     0.8776520
  H       -1.7934040     2.5679060    -0.8775670
  H       -0.4992340     3.4225460    -0.0000240
  H       -0.4992350    -3.4225460    -0.0000280
  H       -1.7934120    -2.5679030    -0.8775580
  H       -1.7933230    -2.5679350     0.8776610
units angstrom
no_reorient  #important for SAPT in psi4, default
symmetry c1  #important for SAPT in psi4, default
}

set PROPERTIES_ORIGIN ["COM"]
properties('MP2/aug-cc-pvtz', properties = ['dipole'])
--------------------------------------------------------------------------

    Molecular point group: c1
  Charge       = 0
  Multiplicity = 1
  Basis Set: AUG-CC-PVTZ
    Blend: AUG-CC-PVTZ
  Basis Set: (AUG-CC-PVTZ AUX)
    Blend: AUG-CC-PVTZ-JKFIT

    Orbital Energies [Eh]
    ---------------------

    Doubly Occupied:

       1A    -20.576293     2A    -20.568316     3A    -11.360969
       4A    -11.354294     5A    -11.288011     6A    -11.287986
       7A    -11.271470     8A    -11.271447     9A    -11.243722
      10A    -11.243721    11A     -1.391442    12A     -1.387970
      13A     -1.162936    14A     -1.103681    15A     -1.007653
      16A     -0.965499    17A     -0.932644    18A     -0.825396
      19A     -0.808744    20A     -0.721892    21A     -0.695185
      22A     -0.655459    23A     -0.617599    24A     -0.609798
      25A     -0.608346    26A     -0.594628    27A     -0.589301
      28A     -0.574299    29A     -0.555700    30A     -0.550280
      31A     -0.547807    32A     -0.527603    33A     -0.459787
      34A     -0.438089    35A     -0.399150    36A     -0.385581

  @DF-RHF Final Energy:  -457.46829569069206

   => Energetics <=

    Nuclear Repulsion Energy =            490.5645214563837726
    One-Electron Energy =               -1594.9002358157417802
    Two-Electron Energy =                 646.8674186686660050
    Total Energy =                       -457.4682956906920026
  Basis Set: (AUG-CC-PVTZ AUX)
    Blend: AUG-CC-PVTZ-RI
    Molecular point group: c1

    Geometry (in Angstrom), charge = 0, multiplicity = 1:

       Center              X                  Y                   Z               Mass
    ------------   -----------------  -----------------  -----------------  -----------------
         O           -2.347475885453    -0.000000000000     0.000053605403    15.994914619570
         O            2.992743114547    -0.000000000000    -0.000055394597    15.994914619570
         C           -0.358330885453     1.287193000000     0.000000605403    12.000000000000
         C           -0.358330885453    -1.287193000000     0.000001605403    12.000000000000
         C           -1.087954885453    -0.000000000000     0.000021105403    12.000000000000
         C            0.993955114547     1.265191000000    -0.000016394597    12.000000000000
         C            0.993955114547    -1.265191000000    -0.000015394597    12.000000000000
         C            1.753331114547    -0.000000000000    -0.000031394597    12.000000000000
         C           -1.178982885453     2.538714000000     0.000015605403    12.000000000000
         C           -1.178982885453    -2.538714000000     0.000019605403    12.000000000000
         H            1.586871114547     2.177877000000    -0.000029394597     1.007825032230
         H            1.586871114547    -2.177877000000    -0.000026394597     1.007825032230
         H           -1.830967885453     2.567932000000     0.877652605403     1.007825032230
         H           -1.831041885453     2.567906000000    -0.877566394597     1.007825032230
         H           -0.536871885453     3.422546000000    -0.000023394597     1.007825032230
         H           -0.536872885453    -3.422546000000    -0.000027394597     1.007825032230
         H           -1.831049885453    -2.567903000000    -0.877557394597     1.007825032230
         H           -1.830960885453    -2.567935000000     0.877661605403     1.007825032230

  Basis Set: AUG-CC-PVTZ
    Blend: AUG-CC-PVTZ
  Basis Set: (AUG-CC-PVTZ AUX)
    Blend: AUG-CC-PVTZ-JKFIT
	 Reference Energy          =    -457.4682956906920595 [Eh]
	 Singles Energy            =      -0.0000000000000000 [Eh]
	 Same-Spin Energy          =      -0.4676189154449466 [Eh]
	 Opposite-Spin Energy      =      -1.4785378805663063 [Eh]
	 Correlation Energy        =      -1.9461567960112529 [Eh]
	 Total Energy              =    -459.4144524867033397 [Eh]

	 ================> DF-SCS-MP2 Energies <==================
	-----------------------------------------------------------
	 SCS Same-Spin Scale       =       0.3333333333333333 [-]
	 SCS Opposite-Spin Scale   =       1.2000000000000000 [-]
	 SCS Same-Spin Energy      =      -0.1558729718149822 [Eh]
	 SCS Opposite-Spin Energy  =      -1.7742454566795676 [Eh]
	 SCS Correlation Energy    =      -1.9301184284945498 [Eh]
	 SCS Total Energy          =    -459.3984141191866115 [Eh]
	-----------------------------------------------------------

  Dipole Moment: [D]
     X:    -1.0512      Y:    -0.0000      Z:     0.0000     Total:     1.0512

*** Psi4 exiting successfully. Buy a developer a beer!
