                               Psi4 1.4a3.dev225

  ==> Input File <==

--------------------------------------------------------------------------
#psi4
#
memory 32 gb

molecule  {
0 1
  O       -2.3098380     0.0000000     0.0000530
  O        3.0303810     0.0000000    -0.0000560
  C       -0.3206930     1.2871930     0.0000000
  C       -0.3206930    -1.2871930     0.0000010
  C       -1.0703170     0.0000000     0.0000210
  C        1.0315930     1.2651910    -0.0000170
  C        1.0115956    -1.2655164    -0.0000157
  C        1.7909690     0.0000000    -0.0000320
  C       -1.1413450     2.5387140     0.0000150
  C       -1.1413450    -2.5387140     0.0000190
  H        1.6245090     2.1778770    -0.0000300
  H        1.6245090    -2.1778770    -0.0000270
  H       -1.7933300     2.5679320     0.8776520
  H       -1.7934040     2.5679060    -0.8775670
  H       -0.4992340     3.4225460    -0.0000240
  H       -0.4992350    -3.4225460    -0.0000280
  H       -1.7934120    -2.5679030    -0.8775580
  H       -1.7933230    -2.5679350     0.8776610
units angstrom
no_reorient  #important for SAPT in psi4, default
symmetry c1  #important for SAPT in psi4, default
}

set PROPERTIES_ORIGIN ["COM"]
properties('MP2/aug-cc-pvtz', properties = ['dipole'])
--------------------------------------------------------------------------

    Molecular point group: c1
  Charge       = 0
  Multiplicity = 1
  Basis Set: AUG-CC-PVTZ
    Blend: AUG-CC-PVTZ
  Basis Set: (AUG-CC-PVTZ AUX)
    Blend: AUG-CC-PVTZ-JKFIT

    Orbital Energies [Eh]
    ---------------------

    Doubly Occupied:

       1A    -20.577795     2A    -20.567899     3A    -11.360384
       4A    -11.354402     5A    -11.287767     6A    -11.284032
       7A    -11.270186     8A    -11.269305     9A    -11.243497
      10A    -11.242815    11A     -1.401953    12A     -1.389278
      13A     -1.162609    14A     -1.103975    15A     -1.006491
      16A     -0.964776    17A     -0.929166    18A     -0.822412
      19A     -0.809082    20A     -0.722498    21A     -0.696393
      22A     -0.656060    23A     -0.618678    24A     -0.612160
      25A     -0.606817    26A     -0.593346    27A     -0.589250
      28A     -0.573244    29A     -0.554779    30A     -0.551988
      31A     -0.548807    32A     -0.533279    33A     -0.459178
      34A     -0.434056    35A     -0.402040    36A     -0.386807

  @DF-RHF Final Energy:  -457.47198008147342

   => Energetics <=

    Nuclear Repulsion Energy =            490.7385046845802208
    One-Electron Energy =               -1595.2465581760402529
    Two-Electron Energy =                 647.0360734099865567
    Total Energy =                       -457.4719800814734754
  Basis Set: (AUG-CC-PVTZ AUX)
    Blend: AUG-CC-PVTZ-RI
    Molecular point group: c1

    Geometry (in Angstrom), charge = 0, multiplicity = 1:

       Center              X                  Y                   Z               Mass
    ------------   -----------------  -----------------  -----------------  -----------------
         O           -2.343948063115     0.000028700700     0.000053534842    15.994914619570
         O            2.996270936885     0.000028700700    -0.000055465158    15.994914619570
         C           -0.354803063115     1.287221700700     0.000000534842    12.000000000000
         C           -0.354803063115    -1.287164299300     0.000001534842    12.000000000000
         C           -1.104427063115     0.000028700700     0.000021534842    12.000000000000
         C            0.997482936885     1.265219700700    -0.000016465158    12.000000000000
         C            0.977485536885    -1.265487699300    -0.000015165158    12.000000000000
         C            1.756858936885     0.000028700700    -0.000031465158    12.000000000000
         C           -1.175455063115     2.538742700700     0.000015534842    12.000000000000
         C           -1.175455063115    -2.538685299300     0.000019534842    12.000000000000
         H            1.590398936885     2.177905700700    -0.000029465158     1.007825032230
         H            1.590398936885    -2.177848299300    -0.000026465158     1.007825032230
         H           -1.827440063115     2.567960700700     0.877652534842     1.007825032230
         H           -1.827514063115     2.567934700700    -0.877566465158     1.007825032230
         H           -0.533344063115     3.422574700700    -0.000023465158     1.007825032230
         H           -0.533345063115    -3.422517299300    -0.000027465158     1.007825032230
         H           -1.827522063115    -2.567874299300    -0.877557465158     1.007825032230
         H           -1.827433063115    -2.567906299300     0.877661534842     1.007825032230

  Basis Set: AUG-CC-PVTZ
    Blend: AUG-CC-PVTZ
  Basis Set: (AUG-CC-PVTZ AUX)
    Blend: AUG-CC-PVTZ-JKFIT
	 Reference Energy          =    -457.4719800814734185 [Eh]
	 Singles Energy            =      -0.0000000000000000 [Eh]
	 Same-Spin Energy          =      -0.4665544209553835 [Eh]
	 Opposite-Spin Energy      =      -1.4763912482320294 [Eh]
	 Correlation Energy        =      -1.9429456691874130 [Eh]
	 Total Energy              =    -459.4149257506608137 [Eh]

	 ================> DF-SCS-MP2 Energies <==================
	-----------------------------------------------------------
	 SCS Same-Spin Scale       =       0.3333333333333333 [-]
	 SCS Opposite-Spin Scale   =       1.2000000000000000 [-]
	 SCS Same-Spin Energy      =      -0.1555181403184612 [Eh]
	 SCS Opposite-Spin Energy  =      -1.7716694978784353 [Eh]
	 SCS Correlation Energy    =      -1.9271876381968964 [Eh]
	 SCS Total Energy          =    -459.3991677196702881 [Eh]
	-----------------------------------------------------------

  Dipole Moment: [D]
     X:    -1.1184      Y:     0.0331      Z:     0.0000     Total:     1.1188

*** Psi4 exiting successfully. Buy a developer a beer!
