                               Psi4 1.4a3.dev225

  ==> Input File <==

--------------------------------------------------------------------------
#psi4
#
memory 32 gb

molecule  {
0 1
  O       -2.3098380     0.0000000     0.0000530
  O        3.0303810     0.0000000    -0.0000560
  C       -0.3206930     1.2871930     0.0000000
  C       -0.3206930    -1.2871930     0.0000010
  C       -1.0703170     0.0000000     0.0000210
  C        1.0315930     1.2651910    -0.0000170
  C        1.0315930    -1.2651910    -0.0000160
  C        1.7909690     0.0000000    -0.0000320
  C       -1.0316752     2.3714641     0.0000130
  C       -1.1413450    -2.5387140     0.0000190
  H        1.6245090     2.1778770    -0.0000300
  H        1.6245090    -2.1778770    -0.0000270
  H       -1.7933300     2.5679320     0.8776520
  H       -1.7934040     2.5679060    -0.8775670
  H       -0.4992340     3.4225460    -0.0000240
  H       -0.4992350    -3.4225460    -0.0000280
  H       -1.7934120    -2.5679030    -0.8775580
  H       -1.7933230    -2.5679350     0.8776610
units angstrom
no_reorient  #important for SAPT in psi4, default
symmetry c1  #important for SAPT in psi4, default
}

set PROPERTIES_ORIGIN ["COM"]
properties('MP2/aug-cc-pvtz', properties = ['dipole'])
--------------------------------------------------------------------------

    Molecular point group: c1
  Charge       = 0
  Multiplicity = 1
  Basis Set: AUG-CC-PVTZ
    Blend: AUG-CC-PVTZ
  Basis Set: (AUG-CC-PVTZ AUX)
    Blend: AUG-CC-PVTZ-JKFIT

    Orbital Energies [Eh]
    ---------------------

    Doubly Occupied:

       1A    -20.578987     2A    -20.566055     3A    -11.361070
       4A    -11.352276     5A    -11.287540     6A    -11.276954
       7A    -11.270443     8A    -11.269711     9A    -11.252102
      10A    -11.243443    11A     -1.403820    12A     -1.388362
      13A     -1.175257    14A     -1.120984    15A     -1.016541
      16A     -0.965825    17A     -0.927130    18A     -0.820405
      19A     -0.806869    20A     -0.726925    21A     -0.698321
      22A     -0.673575    23A     -0.631936    24A     -0.620308
      25A     -0.612855    26A     -0.600892    27A     -0.584194
      28A     -0.576423    29A     -0.555086    30A     -0.549110
      31A     -0.525006    32A     -0.509660    33A     -0.456240
      34A     -0.438401    35A     -0.397145    36A     -0.374752

  @DF-RHF Final Energy:  -457.41804348282233

   => Energetics <=

    Nuclear Repulsion Energy =            494.4712097534716122
    One-Electron Energy =               -1602.5492957896635744
    Two-Electron Energy =                 650.6600425533696352
    Total Energy =                       -457.4180434828223270
  Basis Set: (AUG-CC-PVTZ AUX)
    Blend: AUG-CC-PVTZ-RI
    Molecular point group: c1

    Geometry (in Angstrom), charge = 0, multiplicity = 1:

       Center              X                  Y                   Z               Mass
    ------------   -----------------  -----------------  -----------------  -----------------
         O           -2.355384877626     0.014751657191     0.000053737705    15.994914619570
         O            2.984834122374     0.014751657191    -0.000055262295    15.994914619570
         C           -0.366239877626     1.301944657191     0.000000737705    12.000000000000
         C           -0.366239877626    -1.272441342809     0.000001737705    12.000000000000
         C           -1.115863877626     0.014751657191     0.000021737705    12.000000000000
         C            0.986046122374     1.279942657191    -0.000016262295    12.000000000000
         C            0.986046122374    -1.250439342809    -0.000015262295    12.000000000000
         C            1.745422122374     0.014751657191    -0.000031262295    12.000000000000
         C           -1.077222077626     2.386215757191     0.000013737705    12.000000000000
         C           -1.186891877626    -2.523962342809     0.000019737705    12.000000000000
         H            1.578962122374     2.192628657191    -0.000029262295     1.007825032230
         H            1.578962122374    -2.163125342809    -0.000026262295     1.007825032230
         H           -1.838876877626     2.582683657191     0.877652737705     1.007825032230
         H           -1.838950877626     2.582657657191    -0.877566262295     1.007825032230
         H           -0.544780877626     3.437297657191    -0.000023262295     1.007825032230
         H           -0.544781877626    -3.407794342809    -0.000027262295     1.007825032230
         H           -1.838958877626    -2.553151342809    -0.877557262295     1.007825032230
         H           -1.838869877626    -2.553183342809     0.877661737705     1.007825032230

  Basis Set: AUG-CC-PVTZ
    Blend: AUG-CC-PVTZ
  Basis Set: (AUG-CC-PVTZ AUX)
    Blend: AUG-CC-PVTZ-JKFIT
	 Reference Energy          =    -457.4180434828223270 [Eh]
	 Singles Energy            =      -0.0000000000000000 [Eh]
	 Same-Spin Energy          =      -0.4708174207184276 [Eh]
	 Opposite-Spin Energy      =      -1.4819259184764524 [Eh]
	 Correlation Energy        =      -1.9527433391948801 [Eh]
	 Total Energy              =    -459.3707868220171804 [Eh]

	 ================> DF-SCS-MP2 Energies <==================
	-----------------------------------------------------------
	 SCS Same-Spin Scale       =       0.3333333333333333 [-]
	 SCS Opposite-Spin Scale   =       1.2000000000000000 [-]
	 SCS Same-Spin Energy      =      -0.1569391402394759 [Eh]
	 SCS Opposite-Spin Energy  =      -1.7783111021717428 [Eh]
	 SCS Correlation Energy    =      -1.9352502424112188 [Eh]
	 SCS Total Energy          =    -459.3532937252335273 [Eh]
	-----------------------------------------------------------

  Dipole Moment: [D]
     X:    -1.3006      Y:     0.1036      Z:     0.0000     Total:     1.3048

*** Psi4 exiting successfully. Buy a developer a beer!
