                               Psi4 1.4a3.dev225

  ==> Input File <==

--------------------------------------------------------------------------
#psi4
#
memory 32 gb

molecule  {
0 1
  O       -2.3098380     0.0000000     0.0000530
  O        3.0303810     0.0000000    -0.0000560
  C       -0.3206930     1.2871930     0.0000000
  C       -0.3201031    -1.3107903     0.0000009
  C       -1.0703170     0.0000000     0.0000210
  C        1.0315930     1.2651910    -0.0000170
  C        1.0315930    -1.2651910    -0.0000160
  C        1.7909690     0.0000000    -0.0000320
  C       -1.1413450     2.5387140     0.0000150
  C       -1.1413450    -2.5387140     0.0000190
  H        1.6245090     2.1778770    -0.0000300
  H        1.6245090    -2.1778770    -0.0000270
  H       -1.7933300     2.5679320     0.8776520
  H       -1.7934040     2.5679060    -0.8775670
  H       -0.4992340     3.4225460    -0.0000240
  H       -0.4992350    -3.4225460    -0.0000280
  H       -1.7934120    -2.5679030    -0.8775580
  H       -1.7933230    -2.5679350     0.8776610
units angstrom
no_reorient  #important for SAPT in psi4, default
symmetry c1  #important for SAPT in psi4, default
}

set PROPERTIES_ORIGIN ["COM"]
properties('MP2/aug-cc-pvtz', properties = ['dipole'])
--------------------------------------------------------------------------

    Molecular point group: c1
  Charge       = 0
  Multiplicity = 1
  Basis Set: AUG-CC-PVTZ
    Blend: AUG-CC-PVTZ
  Basis Set: (AUG-CC-PVTZ AUX)
    Blend: AUG-CC-PVTZ-JKFIT

    Orbital Energies [Eh]
    ---------------------

    Doubly Occupied:

       1A    -20.577810     2A    -20.566561     3A    -11.361444
       4A    -11.353492     5A    -11.288421     6A    -11.287943
       7A    -11.270539     8A    -11.268817     9A    -11.243606
      10A    -11.242913    11A     -1.401610    12A     -1.388806
      13A     -1.159673    14A     -1.103683    15A     -1.008867
      16A     -0.966042    17A     -0.926757    18A     -0.821540
      19A     -0.808064    20A     -0.721331    21A     -0.696256
      22A     -0.656186    23A     -0.618553    24A     -0.612177
      25A     -0.607373    26A     -0.595176    27A     -0.590475
      28A     -0.576305    29A     -0.554833    30A     -0.552264
      31A     -0.548556    32A     -0.533113    33A     -0.457356
      34A     -0.435150    35A     -0.399322    36A     -0.384415

  @DF-RHF Final Energy:  -457.47108134115410

   => Energetics <=

    Nuclear Repulsion Energy =            490.2967932173135068
    One-Electron Energy =               -1594.3648933771764860
    Two-Electron Energy =                 646.5970188187088752
    Total Energy =                       -457.4710813411541039
  Basis Set: (AUG-CC-PVTZ AUX)
    Blend: AUG-CC-PVTZ-RI
    Molecular point group: c1

    Geometry (in Angstrom), charge = 0, multiplicity = 1:

       Center              X                  Y                   Z               Mass
    ------------   -----------------  -----------------  -----------------  -----------------
         O           -2.345763889564     0.002081312337     0.000053570123    15.994914619570
         O            2.994455110436     0.002081312337    -0.000055429877    15.994914619570
         C           -0.356618889564     1.289274312337     0.000000570123    12.000000000000
         C           -0.356028989564    -1.308708987663     0.000001470123    12.000000000000
         C           -1.106242889564     0.002081312337     0.000021570123    12.000000000000
         C            0.995667110436     1.267272312337    -0.000016429877    12.000000000000
         C            0.995667110436    -1.263109687663    -0.000015429877    12.000000000000
         C            1.755043110436     0.002081312337    -0.000031429877    12.000000000000
         C           -1.177270889564     2.540795312337     0.000015570123    12.000000000000
         C           -1.177270889564    -2.536632687663     0.000019570123    12.000000000000
         H            1.588583110436     2.179958312337    -0.000029429877     1.007825032230
         H            1.588583110436    -2.175795687663    -0.000026429877     1.007825032230
         H           -1.829255889564     2.570013312337     0.877652570123     1.007825032230
         H           -1.829329889564     2.569987312337    -0.877566429877     1.007825032230
         H           -0.535159889564     3.424627312337    -0.000023429877     1.007825032230
         H           -0.535160889564    -3.420464687663    -0.000027429877     1.007825032230
         H           -1.829337889564    -2.565821687663    -0.877557429877     1.007825032230
         H           -1.829248889564    -2.565853687663     0.877661570123     1.007825032230

  Basis Set: AUG-CC-PVTZ
    Blend: AUG-CC-PVTZ
  Basis Set: (AUG-CC-PVTZ AUX)
    Blend: AUG-CC-PVTZ-JKFIT
	 Reference Energy          =    -457.4710813411541039 [Eh]
	 Singles Energy            =      -0.0000000000000000 [Eh]
	 Same-Spin Energy          =      -0.4668420431658519 [Eh]
	 Opposite-Spin Energy      =      -1.4768435693689848 [Eh]
	 Correlation Energy        =      -1.9436856125348367 [Eh]
	 Total Energy              =    -459.4147669536889680 [Eh]

	 ================> DF-SCS-MP2 Energies <==================
	-----------------------------------------------------------
	 SCS Same-Spin Scale       =       0.3333333333333333 [-]
	 SCS Opposite-Spin Scale   =       1.2000000000000000 [-]
	 SCS Same-Spin Energy      =      -0.1556140143886173 [Eh]
	 SCS Opposite-Spin Energy  =      -1.7722122832427816 [Eh]
	 SCS Correlation Energy    =      -1.9278262976313989 [Eh]
	 SCS Total Energy          =    -459.3989076387854880 [Eh]
	-----------------------------------------------------------

  Dipole Moment: [D]
     X:    -1.1830      Y:     0.0019      Z:     0.0000     Total:     1.1830

*** Psi4 exiting successfully. Buy a developer a beer!
