                               Psi4 1.4a3.dev225

  ==> Input File <==

--------------------------------------------------------------------------
#psi4
#
memory 32 gb

molecule  {
0 1
  O       -2.3098380     0.0000000     0.0000530
  O        3.0303810     0.0000000    -0.0000560
  C       -0.3206930     1.2871930     0.0000000
  C       -0.3206930    -1.2871930     0.0000010
  C       -1.0703170     0.0000000     0.0000210
  C        1.0315930     1.2651910    -0.0000170
  C        1.0315930    -1.2651910    -0.0000160
  C        1.7909690     0.0000000    -0.0000320
  C       -1.1413450     2.5387140     0.0000150
  C       -1.1413450    -2.5387140     0.0000190
  H        1.6245090     2.1778770    -0.0000300
  H        1.6245090    -2.1778770    -0.0000270
  H       -1.7933300     2.5679320     0.8776520
  H       -1.7934040     2.5679060    -0.8775670
  H       -0.4698457     3.4629975    -0.0000258
  H       -0.4992350    -3.4225460    -0.0000280
  H       -1.7934120    -2.5679030    -0.8775580
  H       -1.7933230    -2.5679350     0.8776610
units angstrom
no_reorient  #important for SAPT in psi4, default
symmetry c1  #important for SAPT in psi4, default
}

set PROPERTIES_ORIGIN ["COM"]
properties('MP2/aug-cc-pvtz', properties = ['dipole'])
--------------------------------------------------------------------------

    Molecular point group: c1
  Charge       = 0
  Multiplicity = 1
  Basis Set: AUG-CC-PVTZ
    Blend: AUG-CC-PVTZ
  Basis Set: (AUG-CC-PVTZ AUX)
    Blend: AUG-CC-PVTZ-JKFIT

    Orbital Energies [Eh]
    ---------------------

    Doubly Occupied:

       1A    -20.578276     2A    -20.567083     3A    -11.360956
       4A    -11.353326     5A    -11.287894     6A    -11.287751
       7A    -11.270509     8A    -11.270485     9A    -11.249267
      10A    -11.243560    11A     -1.402435    12A     -1.389229
      13A     -1.160895    14A     -1.101978    15A     -1.006302
      16A     -0.963999    17A     -0.928818    18A     -0.821984
      19A     -0.808024    20A     -0.721743    21A     -0.697408
      22A     -0.655552    23A     -0.618755    24A     -0.612885
      25A     -0.607547    26A     -0.590903    27A     -0.589649
      28A     -0.574047    29A     -0.555108    30A     -0.550853
      31A     -0.542813    32A     -0.533706    33A     -0.458677
      34A     -0.435918    35A     -0.399901    36A     -0.384867

  @DF-RHF Final Energy:  -457.46940440981604

   => Energetics <=

    Nuclear Repulsion Energy =            490.3147454378424186
    One-Electron Energy =               -1594.4020967028809537
    Two-Electron Energy =                 646.6179468552224989
    Total Energy =                       -457.4694044098159793
  Basis Set: (AUG-CC-PVTZ AUX)
    Blend: AUG-CC-PVTZ-RI
    Molecular point group: c1

    Geometry (in Angstrom), charge = 0, multiplicity = 1:

       Center              X                  Y                   Z               Mass
    ------------   -----------------  -----------------  -----------------  -----------------
         O           -2.345929557054    -0.000299649440     0.000053574636    15.994914619570
         O            2.994289442946    -0.000299649440    -0.000055425364    15.994914619570
         C           -0.356784557054     1.286893350560     0.000000574636    12.000000000000
         C           -0.356784557054    -1.287492649440     0.000001574636    12.000000000000
         C           -1.106408557054    -0.000299649440     0.000021574636    12.000000000000
         C            0.995501442946     1.264891350560    -0.000016425364    12.000000000000
         C            0.995501442946    -1.265490649440    -0.000015425364    12.000000000000
         C            1.754877442946    -0.000299649440    -0.000031425364    12.000000000000
         C           -1.177436557054     2.538414350560     0.000015574636    12.000000000000
         C           -1.177436557054    -2.539013649440     0.000019574636    12.000000000000
         H            1.588417442946     2.177577350560    -0.000029425364     1.007825032230
         H            1.588417442946    -2.178176649440    -0.000026425364     1.007825032230
         H           -1.829421557054     2.567632350560     0.877652574636     1.007825032230
         H           -1.829495557054     2.567606350560    -0.877566425364     1.007825032230
         H           -0.505937257054     3.462697850560    -0.000025225364     1.007825032230
         H           -0.535326557054    -3.422845649440    -0.000027425364     1.007825032230
         H           -1.829503557054    -2.568202649440    -0.877557425364     1.007825032230
         H           -1.829414557054    -2.568234649440     0.877661574636     1.007825032230

  Basis Set: AUG-CC-PVTZ
    Blend: AUG-CC-PVTZ
  Basis Set: (AUG-CC-PVTZ AUX)
    Blend: AUG-CC-PVTZ-JKFIT
	 Reference Energy          =    -457.4694044098160362 [Eh]
	 Singles Energy            =      -0.0000000000000000 [Eh]
	 Same-Spin Energy          =      -0.4668408056369970 [Eh]
	 Opposite-Spin Energy      =      -1.4773055770445445 [Eh]
	 Correlation Energy        =      -1.9441463826815415 [Eh]
	 Total Energy              =    -459.4135507924975741 [Eh]

	 ================> DF-SCS-MP2 Energies <==================
	-----------------------------------------------------------
	 SCS Same-Spin Scale       =       0.3333333333333333 [-]
	 SCS Opposite-Spin Scale   =       1.2000000000000000 [-]
	 SCS Same-Spin Energy      =      -0.1556136018789990 [Eh]
	 SCS Opposite-Spin Energy  =      -1.7727666924534533 [Eh]
	 SCS Correlation Energy    =      -1.9283802943324524 [Eh]
	 SCS Total Energy          =    -459.3977847041484779 [Eh]
	-----------------------------------------------------------

  Dipole Moment: [D]
     X:    -1.1365      Y:    -0.0278      Z:     0.0000     Total:     1.1368

*** Psi4 exiting successfully. Buy a developer a beer!
