                               Psi4 1.4a3.dev225

  ==> Input File <==

--------------------------------------------------------------------------
#psi4
#
memory 32 gb

molecule  {
0 1
  O       -2.3098380     0.0000000     0.0000530
  O        3.0303810     0.0000000    -0.0000560
  C       -0.3206930     1.2871930     0.0000000
  C       -0.3206930    -1.2871930     0.0000010
  C       -0.9696669    -0.1728281     0.0000183
  C        1.0315930     1.2651910    -0.0000170
  C        1.0315930    -1.2651910    -0.0000160
  C        1.7909690     0.0000000    -0.0000320
  C       -1.1413450     2.5387140     0.0000150
  C       -1.1413450    -2.5387140     0.0000190
  H        1.6245090     2.1778770    -0.0000300
  H        1.6245090    -2.1778770    -0.0000270
  H       -1.7933300     2.5679320     0.8776520
  H       -1.7934040     2.5679060    -0.8775670
  H       -0.4992340     3.4225460    -0.0000240
  H       -0.4992350    -3.4225460    -0.0000280
  H       -1.7934120    -2.5679030    -0.8775580
  H       -1.7933230    -2.5679350     0.8776610
units angstrom
no_reorient  #important for SAPT in psi4, default
symmetry c1  #important for SAPT in psi4, default
}

set PROPERTIES_ORIGIN ["COM"]
properties('MP2/aug-cc-pvtz', properties = ['dipole'])
--------------------------------------------------------------------------

    Molecular point group: c1
  Charge       = 0
  Multiplicity = 1
  Basis Set: AUG-CC-PVTZ
    Blend: AUG-CC-PVTZ
  Basis Set: (AUG-CC-PVTZ AUX)
    Blend: AUG-CC-PVTZ-JKFIT

    Orbital Energies [Eh]
    ---------------------

    Doubly Occupied:

       1A    -20.575886     2A    -20.564961     3A    -11.360026
       4A    -11.358472     5A    -11.300900     6A    -11.296422
       7A    -11.276365     8A    -11.258337     9A    -11.246414
      10A    -11.243003    11A     -1.397266    12A     -1.334373
      13A     -1.183543    14A     -1.105901    15A     -1.013396
      16A     -0.968048    17A     -0.955189    18A     -0.832124
      19A     -0.805354    20A     -0.723428    21A     -0.689997
      22A     -0.655950    23A     -0.620705    24A     -0.613384
      25A     -0.600639    26A     -0.593316    27A     -0.587889
      28A     -0.574002    29A     -0.559892    30A     -0.555863
      31A     -0.526912    32A     -0.508111    33A     -0.456715
      34A     -0.437415    35A     -0.395683    36A     -0.385419

  @DF-RHF Final Energy:  -457.40179914424220

   => Energetics <=

    Nuclear Repulsion Energy =            490.9550169263895896
    One-Electron Energy =               -1595.5910298623857670
    Two-Electron Energy =                 647.2342137917539731
    Total Energy =                       -457.4017991442422044
  Basis Set: (AUG-CC-PVTZ AUX)
    Blend: AUG-CC-PVTZ-RI
    Molecular point group: c1

    Geometry (in Angstrom), charge = 0, multiplicity = 1:

       Center              X                  Y                   Z               Mass
    ------------   -----------------  -----------------  -----------------  -----------------
         O           -2.354589328437     0.015243661636     0.000053799446    15.994914619570
         O            2.985629671563     0.015243661636    -0.000055200554    15.994914619570
         C           -0.365444328437     1.302436661636     0.000000799446    12.000000000000
         C           -0.365444328437    -1.271949338364     0.000001799446    12.000000000000
         C           -1.014418228437    -0.157584438364     0.000019099446    12.000000000000
         C            0.986841671563     1.280434661636    -0.000016200554    12.000000000000
         C            0.986841671563    -1.249947338364    -0.000015200554    12.000000000000
         C            1.746217671563     0.015243661636    -0.000031200554    12.000000000000
         C           -1.186096328437     2.553957661636     0.000015799446    12.000000000000
         C           -1.186096328437    -2.523470338364     0.000019799446    12.000000000000
         H            1.579757671563     2.193120661636    -0.000029200554     1.007825032230
         H            1.579757671563    -2.162633338364    -0.000026200554     1.007825032230
         H           -1.838081328437     2.583175661636     0.877652799446     1.007825032230
         H           -1.838155328437     2.583149661636    -0.877566200554     1.007825032230
         H           -0.543985328437     3.437789661636    -0.000023200554     1.007825032230
         H           -0.543986328437    -3.407302338364    -0.000027200554     1.007825032230
         H           -1.838163328437    -2.552659338364    -0.877557200554     1.007825032230
         H           -1.838074328437    -2.552691338364     0.877661799446     1.007825032230

  Basis Set: AUG-CC-PVTZ
    Blend: AUG-CC-PVTZ
  Basis Set: (AUG-CC-PVTZ AUX)
    Blend: AUG-CC-PVTZ-JKFIT
	 Reference Energy          =    -457.4017991442422044 [Eh]
	 Singles Energy            =      -0.0000000000000000 [Eh]
	 Same-Spin Energy          =      -0.4733779677386205 [Eh]
	 Opposite-Spin Energy      =      -1.4896914862176813 [Eh]
	 Correlation Energy        =      -1.9630694539563018 [Eh]
	 Total Energy              =    -459.3648685981984841 [Eh]

	 ================> DF-SCS-MP2 Energies <==================
	-----------------------------------------------------------
	 SCS Same-Spin Scale       =       0.3333333333333333 [-]
	 SCS Opposite-Spin Scale   =       1.2000000000000000 [-]
	 SCS Same-Spin Energy      =      -0.1577926559128735 [Eh]
	 SCS Opposite-Spin Energy  =      -1.7876297834612176 [Eh]
	 SCS Correlation Energy    =      -1.9454224393740911 [Eh]
	 SCS Total Energy          =    -459.3472215836163173 [Eh]
	-----------------------------------------------------------

  Dipole Moment: [D]
     X:    -0.8777      Y:    -0.5621      Z:     0.0000     Total:     1.0423

*** Psi4 exiting successfully. Buy a developer a beer!
