                               Psi4 1.4a3.dev225

  ==> Input File <==

--------------------------------------------------------------------------
#psi4
#
memory 32 gb

molecule  {
0 1
  O       -2.3098380     0.0000000     0.0000530
  O        3.0303810     0.0000000    -0.0000560
  C       -0.3206930     1.2871930     0.0000000
  C       -0.3191014    -1.3343737     0.0000008
  C       -1.0703170     0.0000000     0.0000210
  C        1.0315930     1.2651910    -0.0000170
  C        1.0315930    -1.2651910    -0.0000160
  C        1.7909690     0.0000000    -0.0000320
  C       -1.1413450     2.5387140     0.0000150
  C       -1.1413450    -2.5387140     0.0000190
  H        1.6245090     2.1778770    -0.0000300
  H        1.6245090    -2.1778770    -0.0000270
  H       -1.7933300     2.5679320     0.8776520
  H       -1.7934040     2.5679060    -0.8775670
  H       -0.4992340     3.4225460    -0.0000240
  H       -0.4992350    -3.4225460    -0.0000280
  H       -1.7934120    -2.5679030    -0.8775580
  H       -1.7933230    -2.5679350     0.8776610
units angstrom
no_reorient  #important for SAPT in psi4, default
symmetry c1  #important for SAPT in psi4, default
}

set PROPERTIES_ORIGIN ["COM"]
properties('MP2/aug-cc-pvtz', properties = ['dipole'])
--------------------------------------------------------------------------

    Molecular point group: c1
  Charge       = 0
  Multiplicity = 1
  Basis Set: AUG-CC-PVTZ
    Blend: AUG-CC-PVTZ
  Basis Set: (AUG-CC-PVTZ AUX)
    Blend: AUG-CC-PVTZ-JKFIT

    Orbital Energies [Eh]
    ---------------------

    Doubly Occupied:

       1A    -20.577563     2A    -20.566246     3A    -11.362186
       4A    -11.353782     5A    -11.289292     6A    -11.288287
       7A    -11.270727     8A    -11.267440     9A    -11.243774
      10A    -11.242434    11A     -1.401046    12A     -1.388553
      13A     -1.158660    14A     -1.105211    15A     -1.010571
      16A     -0.967070    17A     -0.923893    18A     -0.820064
      19A     -0.807953    20A     -0.720655    21A     -0.695286
      22A     -0.656879    23A     -0.618807    24A     -0.612352
      25A     -0.607031    26A     -0.596678    27A     -0.591720
      28A     -0.577913    29A     -0.554759    30A     -0.553333
      31A     -0.547523    32A     -0.532817    33A     -0.456132
      34A     -0.434201    35A     -0.398939    36A     -0.384086

  @DF-RHF Final Energy:  -457.46935687912844

   => Energetics <=

    Nuclear Repulsion Energy =            490.0664068176154160
    One-Electron Energy =               -1593.9038019143699785
    Two-Electron Energy =                 646.3680382176261219
    Total Energy =                       -457.4693568791284406
  Basis Set: (AUG-CC-PVTZ AUX)
    Blend: AUG-CC-PVTZ-RI
    Molecular point group: c1

    Geometry (in Angstrom), charge = 0, multiplicity = 1:

       Center              X                  Y                   Z               Mass
    ------------   -----------------  -----------------  -----------------  -----------------
         O           -2.345852240798     0.004161398676     0.000053578943    15.994914619570
         O            2.994366759202     0.004161398676    -0.000055421057    15.994914619570
         C           -0.356707240798     1.291354398676     0.000000578943    12.000000000000
         C           -0.355115640798    -1.330212301324     0.000001378943    12.000000000000
         C           -1.106331240798     0.004161398676     0.000021578943    12.000000000000
         C            0.995578759202     1.269352398676    -0.000016421057    12.000000000000
         C            0.995578759202    -1.261029601324    -0.000015421057    12.000000000000
         C            1.754954759202     0.004161398676    -0.000031421057    12.000000000000
         C           -1.177359240798     2.542875398676     0.000015578943    12.000000000000
         C           -1.177359240798    -2.534552601324     0.000019578943    12.000000000000
         H            1.588494759202     2.182038398676    -0.000029421057     1.007825032230
         H            1.588494759202    -2.173715601324    -0.000026421057     1.007825032230
         H           -1.829344240798     2.572093398676     0.877652578943     1.007825032230
         H           -1.829418240798     2.572067398676    -0.877566421057     1.007825032230
         H           -0.535248240798     3.426707398676    -0.000023421057     1.007825032230
         H           -0.535249240798    -3.418384601324    -0.000027421057     1.007825032230
         H           -1.829426240798    -2.563741601324    -0.877557421057     1.007825032230
         H           -1.829337240798    -2.563773601324     0.877661578943     1.007825032230

  Basis Set: AUG-CC-PVTZ
    Blend: AUG-CC-PVTZ
  Basis Set: (AUG-CC-PVTZ AUX)
    Blend: AUG-CC-PVTZ-JKFIT
	 Reference Energy          =    -457.4693568791284406 [Eh]
	 Singles Energy            =      -0.0000000000000000 [Eh]
	 Same-Spin Energy          =      -0.4669276706155689 [Eh]
	 Opposite-Spin Energy      =      -1.4768895188605351 [Eh]
	 Correlation Energy        =      -1.9438171894761040 [Eh]
	 Total Energy              =    -459.4131740686045191 [Eh]

	 ================> DF-SCS-MP2 Energies <==================
	-----------------------------------------------------------
	 SCS Same-Spin Scale       =       0.3333333333333333 [-]
	 SCS Opposite-Spin Scale   =       1.2000000000000000 [-]
	 SCS Same-Spin Energy      =      -0.1556425568718563 [Eh]
	 SCS Opposite-Spin Energy  =      -1.7722674226326420 [Eh]
	 SCS Correlation Energy    =      -1.9279099795044983 [Eh]
	 SCS Total Energy          =    -459.3972668586329178 [Eh]
	-----------------------------------------------------------

  Dipole Moment: [D]
     X:    -1.2336      Y:     0.0021      Z:     0.0000     Total:     1.2336

*** Psi4 exiting successfully. Buy a developer a beer!
