                               Psi4 1.4a3.dev225

  ==> Input File <==

--------------------------------------------------------------------------
#psi4
#
memory 32 gb

molecule  {
0 1
  O       -2.3098380     0.0000000     0.0000530
  O        3.0303810     0.0000000    -0.0000560
  C       -0.3206930     1.2871930     0.0000000
  C       -0.3206930    -1.2871930     0.0000010
  C       -1.0249380     0.0253774     0.0000206
  C        1.0315930     1.2651910    -0.0000170
  C        1.0315930    -1.2651910    -0.0000160
  C        1.7909690     0.0000000    -0.0000320
  C       -1.1413450     2.5387140     0.0000150
  C       -1.1413450    -2.5387140     0.0000190
  H        1.6245090     2.1778770    -0.0000300
  H        1.6245090    -2.1778770    -0.0000270
  H       -1.7933300     2.5679320     0.8776520
  H       -1.7934040     2.5679060    -0.8775670
  H       -0.4992340     3.4225460    -0.0000240
  H       -0.4992350    -3.4225460    -0.0000280
  H       -1.7934120    -2.5679030    -0.8775580
  H       -1.7933230    -2.5679350     0.8776610
units angstrom
no_reorient  #important for SAPT in psi4, default
symmetry c1  #important for SAPT in psi4, default
}

set PROPERTIES_ORIGIN ["COM"]
properties('MP2/aug-cc-pvtz', properties = ['dipole'])
--------------------------------------------------------------------------

    Molecular point group: c1
  Charge       = 0
  Multiplicity = 1
  Basis Set: AUG-CC-PVTZ
    Blend: AUG-CC-PVTZ
  Basis Set: (AUG-CC-PVTZ AUX)
    Blend: AUG-CC-PVTZ-JKFIT

    Orbital Energies [Eh]
    ---------------------

    Doubly Occupied:

       1A    -20.573986     2A    -20.570164     3A    -11.361383
       4A    -11.355678     5A    -11.289522     6A    -11.287312
       7A    -11.275834     8A    -11.270081     9A    -11.244355
      10A    -11.243848    11A     -1.392230    12A     -1.372884
      13A     -1.165832    14A     -1.105382    15A     -1.008214
      16A     -0.966129    17A     -0.936501    18A     -0.828301
      19A     -0.809588    20A     -0.721899    21A     -0.693196
      22A     -0.655341    23A     -0.617035    24A     -0.609507
      25A     -0.605464    26A     -0.595675    27A     -0.589335
      28A     -0.574310    29A     -0.556739    30A     -0.549512
      31A     -0.545796    32A     -0.520700    33A     -0.460614
      34A     -0.440713    35A     -0.398155    36A     -0.386567

  @DF-RHF Final Energy:  -457.46167315228877

   => Energetics <=

    Nuclear Repulsion Energy =            490.6207122405543828
    One-Electron Energy =               -1595.0092070098905879
    Two-Electron Energy =                 646.9268216170473806
    Total Energy =                       -457.4616731522887676
  Basis Set: (AUG-CC-PVTZ AUX)
    Blend: AUG-CC-PVTZ-RI
    Molecular point group: c1

    Geometry (in Angstrom), charge = 0, multiplicity = 1:

       Center              X                  Y                   Z               Mass
    ------------   -----------------  -----------------  -----------------  -----------------
         O           -2.349714346032    -0.002238319456     0.000053596583    15.994914619570
         O            2.990504653968    -0.002238319456    -0.000055403417    15.994914619570
         C           -0.360569346032     1.284954680544     0.000000596583    12.000000000000
         C           -0.360569346032    -1.289431319456     0.000001596583    12.000000000000
         C           -1.064814346032     0.023139080544     0.000021196583    12.000000000000
         C            0.991716653968     1.262952680544    -0.000016403417    12.000000000000
         C            0.991716653968    -1.267429319456    -0.000015403417    12.000000000000
         C            1.751092653968    -0.002238319456    -0.000031403417    12.000000000000
         C           -1.181221346032     2.536475680544     0.000015596583    12.000000000000
         C           -1.181221346032    -2.540952319456     0.000019596583    12.000000000000
         H            1.584632653968     2.175638680544    -0.000029403417     1.007825032230
         H            1.584632653968    -2.180115319456    -0.000026403417     1.007825032230
         H           -1.833206346032     2.565693680544     0.877652596583     1.007825032230
         H           -1.833280346032     2.565667680544    -0.877566403417     1.007825032230
         H           -0.539110346032     3.420307680544    -0.000023403417     1.007825032230
         H           -0.539111346032    -3.424784319456    -0.000027403417     1.007825032230
         H           -1.833288346032    -2.570141319456    -0.877557403417     1.007825032230
         H           -1.833199346032    -2.570173319456     0.877661596583     1.007825032230

  Basis Set: AUG-CC-PVTZ
    Blend: AUG-CC-PVTZ
  Basis Set: (AUG-CC-PVTZ AUX)
    Blend: AUG-CC-PVTZ-JKFIT
	 Reference Energy          =    -457.4616731522887676 [Eh]
	 Singles Energy            =      -0.0000000000000000 [Eh]
	 Same-Spin Energy          =      -0.4687468598837191 [Eh]
	 Opposite-Spin Energy      =      -1.4808067915834915 [Eh]
	 Correlation Energy        =      -1.9495536514672107 [Eh]
	 Total Energy              =    -459.4112268037559943 [Eh]

	 ================> DF-SCS-MP2 Energies <==================
	-----------------------------------------------------------
	 SCS Same-Spin Scale       =       0.3333333333333333 [-]
	 SCS Opposite-Spin Scale   =       1.2000000000000000 [-]
	 SCS Same-Spin Energy      =      -0.1562489532945730 [Eh]
	 SCS Opposite-Spin Energy  =      -1.7769681499001897 [Eh]
	 SCS Correlation Energy    =      -1.9332171031947627 [Eh]
	 SCS Total Energy          =    -459.3948902554835172 [Eh]
	-----------------------------------------------------------

  Dipole Moment: [D]
     X:    -0.9637      Y:     0.0881      Z:     0.0000     Total:     0.9677

*** Psi4 exiting successfully. Buy a developer a beer!
