                               Psi4 1.4a3.dev225

  ==> Input File <==

--------------------------------------------------------------------------
#psi4
#
memory 32 gb

molecule  {
0 1
  O       -2.3098380     0.0000000     0.0000530
  O        3.0303810     0.0000000    -0.0000560
  C       -0.3206930     1.2871930     0.0000000
  C       -0.3206930    -1.2871930     0.0000010
  C       -1.0703170     0.0000000     0.0000210
  C        1.0315930     1.2651910    -0.0000170
  C        1.0315930    -1.2651910    -0.0000160
  C        1.7909690     0.0000000    -0.0000320
  C       -1.1413450     2.5387140     0.0000150
  C       -1.1413450    -2.5387140     0.0000190
  H        1.6245090     2.1778770    -0.0000300
  H        1.6245090    -2.1778770    -0.0000270
  H       -1.7933300     2.5679320     0.8776520
  H       -1.7934040     2.5679060    -0.8775670
  H       -0.4992340     3.4225460    -0.0000240
  H       -0.4992350    -3.4225460    -0.0000280
  H       -1.8530322    -2.5705718    -0.9577971
  H       -1.7933230    -2.5679350     0.8776610
units angstrom
no_reorient  #important for SAPT in psi4, default
symmetry c1  #important for SAPT in psi4, default
}

set PROPERTIES_ORIGIN ["COM"]
properties('MP2/aug-cc-pvtz', properties = ['dipole'])
--------------------------------------------------------------------------

    Molecular point group: c1
  Charge       = 0
  Multiplicity = 1
  Basis Set: AUG-CC-PVTZ
    Blend: AUG-CC-PVTZ
  Basis Set: (AUG-CC-PVTZ AUX)
    Blend: AUG-CC-PVTZ-JKFIT

    Orbital Energies [Eh]
    ---------------------

    Doubly Occupied:

       1A    -20.577920     2A    -20.567149     3A    -11.360557
       4A    -11.353528     5A    -11.288343     6A    -11.287720
       7A    -11.270912     8A    -11.270431     9A    -11.254568
      10A    -11.243481    11A     -1.402000    12A     -1.389318
      13A     -1.160946    14A     -1.101828    15A     -1.005262
      16A     -0.962428    17A     -0.928392    18A     -0.822105
      19A     -0.807171    20A     -0.722100    21A     -0.697225
      22A     -0.655471    23A     -0.616655    24A     -0.612540
      25A     -0.607130    26A     -0.594137    27A     -0.584067
      28A     -0.572268    29A     -0.554233    30A     -0.549994
      31A     -0.545341    32A     -0.529655    33A     -0.458719
      34A     -0.435800    35A     -0.399573    36A     -0.384250

  @DF-RHF Final Energy:  -457.46498602425174

   => Energetics <=

    Nuclear Repulsion Energy =            490.1212532425719246
    One-Electron Energy =               -1594.0260415462121273
    Two-Electron Energy =                 646.4398022793883456
    Total Energy =                       -457.4649860242517434
  Basis Set: (AUG-CC-PVTZ AUX)
    Blend: AUG-CC-PVTZ-RI
    Molecular point group: c1

    Geometry (in Angstrom), charge = 0, multiplicity = 1:

       Center              X                  Y                   Z               Mass
    ------------   -----------------  -----------------  -----------------  -----------------
         O           -2.345270215690     0.000019769463     0.000647942262    15.994914619570
         O            2.994948784310     0.000019769463     0.000538942262    15.994914619570
         C           -0.356125215690     1.287212769463     0.000594942262    12.000000000000
         C           -0.356125215690    -1.287173230537     0.000595942262    12.000000000000
         C           -1.105749215690     0.000019769463     0.000615942262    12.000000000000
         C            0.996160784310     1.265210769463     0.000577942262    12.000000000000
         C            0.996160784310    -1.265171230537     0.000578942262    12.000000000000
         C            1.755536784310     0.000019769463     0.000562942262    12.000000000000
         C           -1.176777215690     2.538733769463     0.000609942262    12.000000000000
         C           -1.176777215690    -2.538694230537     0.000613942262    12.000000000000
         H            1.589076784310     2.177896769463     0.000564942262     1.007825032230
         H            1.589076784310    -2.177857230537     0.000567942262     1.007825032230
         H           -1.828762215690     2.567951769463     0.878246942262     1.007825032230
         H           -1.828836215690     2.567925769463    -0.876972057738     1.007825032230
         H           -0.534666215690     3.422565769463     0.000570942262     1.007825032230
         H           -0.534667215690    -3.422526230537     0.000566942262     1.007825032230
         H           -1.888464415690    -2.570552030537    -0.957202157738     1.007825032230
         H           -1.828755215690    -2.567915230537     0.878255942262     1.007825032230

  Basis Set: AUG-CC-PVTZ
    Blend: AUG-CC-PVTZ
  Basis Set: (AUG-CC-PVTZ AUX)
    Blend: AUG-CC-PVTZ-JKFIT
	 Reference Energy          =    -457.4649860242517434 [Eh]
	 Singles Energy            =      -0.0000000000000000 [Eh]
	 Same-Spin Energy          =      -0.4668823718574208 [Eh]
	 Opposite-Spin Energy      =      -1.4776669666276718 [Eh]
	 Correlation Energy        =      -1.9445493384850927 [Eh]
	 Total Energy              =    -459.4095353627368468 [Eh]

	 ================> DF-SCS-MP2 Energies <==================
	-----------------------------------------------------------
	 SCS Same-Spin Scale       =       0.3333333333333333 [-]
	 SCS Opposite-Spin Scale   =       1.2000000000000000 [-]
	 SCS Same-Spin Energy      =      -0.1556274572858069 [Eh]
	 SCS Opposite-Spin Energy  =      -1.7732003599532062 [Eh]
	 SCS Correlation Energy    =      -1.9288278172390132 [Eh]
	 SCS Total Energy          =    -459.3938138414907826 [Eh]
	-----------------------------------------------------------

  Dipole Moment: [D]
     X:    -1.1154      Y:     0.0149      Z:     0.0205     Total:     1.1157

*** Psi4 exiting successfully. Buy a developer a beer!
