                               Psi4 1.4a3.dev225

  ==> Input File <==

--------------------------------------------------------------------------
#psi4
#
memory 32 gb

molecule  {
0 1
  O       -2.3098380     0.0000000     0.0000530
  O        3.0303810     0.0000000    -0.0000560
  C       -0.3206930     1.2871930     0.0000000
  C       -0.3206930    -1.2871930     0.0000010
  C       -1.0703170     0.0000000     0.0000210
  C        1.0315930     1.2651910    -0.0000170
  C        1.0315930    -1.2651910    -0.0000160
  C        1.7909690     0.0000000    -0.0000320
  C       -1.1413450     2.5387140     0.0000150
  C       -1.1413450    -2.5387140     0.0000190
  H        1.6245090     2.1778770    -0.0000300
  H        1.6245090    -2.1778770    -0.0000270
  H       -1.7933300     2.5679320     0.8776520
  H       -1.8053279     2.5684398    -0.8936149
  H       -0.4992340     3.4225460    -0.0000240
  H       -0.4992350    -3.4225460    -0.0000280
  H       -1.7934120    -2.5679030    -0.8775580
  H       -1.7933230    -2.5679350     0.8776610
units angstrom
no_reorient  #important for SAPT in psi4, default
symmetry c1  #important for SAPT in psi4, default
}

set PROPERTIES_ORIGIN ["COM"]
properties('MP2/aug-cc-pvtz', properties = ['dipole'])
--------------------------------------------------------------------------

    Molecular point group: c1
  Charge       = 0
  Multiplicity = 1
  Basis Set: AUG-CC-PVTZ
    Blend: AUG-CC-PVTZ
  Basis Set: (AUG-CC-PVTZ AUX)
    Blend: AUG-CC-PVTZ-JKFIT

    Orbital Energies [Eh]
    ---------------------

    Doubly Occupied:

       1A    -20.577998     2A    -20.566937     3A    -11.360555
       4A    -11.353269     5A    -11.287708     6A    -11.287587
       7A    -11.270420     8A    -11.270336     9A    -11.245705
      10A    -11.243422    11A     -1.402102    12A     -1.389114
      13A     -1.160832    14A     -1.102163    15A     -1.006755
      16A     -0.964396    17A     -0.929442    18A     -0.822893
      19A     -0.807755    20A     -0.722042    21A     -0.697214
      22A     -0.655553    23A     -0.617840    24A     -0.612931
      25A     -0.607361    26A     -0.593648    27A     -0.587907
      28A     -0.574029    29A     -0.554575    30A     -0.550697
      31A     -0.548849    32A     -0.532949    33A     -0.458610
      34A     -0.435706    35A     -0.399695    36A     -0.384623

  @DF-RHF Final Energy:  -457.47106619130329

   => Energetics <=

    Nuclear Repulsion Energy =            490.4474140392746335
    One-Electron Energy =               -1594.6697258361923559
    Two-Electron Energy =                 646.7512456056143719
    Total Energy =                       -457.4710661913032936
  Basis Set: (AUG-CC-PVTZ AUX)
    Blend: AUG-CC-PVTZ-RI
    Molecular point group: c1

    Geometry (in Angstrom), charge = 0, multiplicity = 1:

       Center              X                  Y                   Z               Mass
    ------------   -----------------  -----------------  -----------------  -----------------
         O           -2.345623531873    -0.000003954189     0.000172438087    15.994914619570
         O            2.994595468127    -0.000003954189     0.000063438087    15.994914619570
         C           -0.356478531873     1.287189045811     0.000119438087    12.000000000000
         C           -0.356478531873    -1.287196954189     0.000120438087    12.000000000000
         C           -1.106102531873    -0.000003954189     0.000140438087    12.000000000000
         C            0.995807468127     1.265187045811     0.000102438087    12.000000000000
         C            0.995807468127    -1.265194954189     0.000103438087    12.000000000000
         C            1.755183468127    -0.000003954189     0.000087438087    12.000000000000
         C           -1.177130531873     2.538710045811     0.000134438087    12.000000000000
         C           -1.177130531873    -2.538717954189     0.000138438087    12.000000000000
         H            1.588723468127     2.177873045811     0.000089438087     1.007825032230
         H            1.588723468127    -2.177880954189     0.000092438087     1.007825032230
         H           -1.829115531873     2.567928045811     0.877771438087     1.007825032230
         H           -1.841113431873     2.568435845811    -0.893495461913     1.007825032230
         H           -0.535019531873     3.422542045811     0.000095438087     1.007825032230
         H           -0.535020531873    -3.422549954189     0.000091438087     1.007825032230
         H           -1.829197531873    -2.567906954189    -0.877438561913     1.007825032230
         H           -1.829108531873    -2.567938954189     0.877780438087     1.007825032230

  Basis Set: AUG-CC-PVTZ
    Blend: AUG-CC-PVTZ
  Basis Set: (AUG-CC-PVTZ AUX)
    Blend: AUG-CC-PVTZ-JKFIT
	 Reference Energy          =    -457.4710661913032936 [Eh]
	 Singles Energy            =      -0.0000000000000000 [Eh]
	 Same-Spin Energy          =      -0.4668296577844412 [Eh]
	 Opposite-Spin Energy      =      -1.4770433322370355 [Eh]
	 Correlation Energy        =      -1.9438729900214766 [Eh]
	 Total Energy              =    -459.4149391813247689 [Eh]

	 ================> DF-SCS-MP2 Energies <==================
	-----------------------------------------------------------
	 SCS Same-Spin Scale       =       0.3333333333333333 [-]
	 SCS Opposite-Spin Scale   =       1.2000000000000000 [-]
	 SCS Same-Spin Energy      =      -0.1556098859281471 [Eh]
	 SCS Opposite-Spin Energy  =      -1.7724519986844427 [Eh]
	 SCS Correlation Energy    =      -1.9280618846125896 [Eh]
	 SCS Total Energy          =    -459.3991280759158826 [Eh]
	-----------------------------------------------------------

  Dipole Moment: [D]
     X:    -1.1295      Y:    -0.0025      Z:     0.0034     Total:     1.1295

*** Psi4 exiting successfully. Buy a developer a beer!
