                               Psi4 1.4a3.dev225

  ==> Input File <==

--------------------------------------------------------------------------
#psi4
#
memory 32 gb

molecule  {
0 1
  O       -2.3098380     0.0000000     0.0000530
  O        3.0303810     0.0000000    -0.0000560
  C       -0.3206930     1.2871930     0.0000000
  C       -0.3206930    -1.2871930     0.0000010
  C       -1.0703170     0.0000000     0.0000210
  C        1.0315930     1.2651910    -0.0000170
  C        1.0515904    -1.2648656    -0.0000163
  C        1.7909690     0.0000000    -0.0000320
  C       -1.1413450     2.5387140     0.0000150
  C       -1.1413450    -2.5387140     0.0000190
  H        1.6245090     2.1778770    -0.0000300
  H        1.6245090    -2.1778770    -0.0000270
  H       -1.7933300     2.5679320     0.8776520
  H       -1.7934040     2.5679060    -0.8775670
  H       -0.4992340     3.4225460    -0.0000240
  H       -0.4992350    -3.4225460    -0.0000280
  H       -1.7934120    -2.5679030    -0.8775580
  H       -1.7933230    -2.5679350     0.8776610
units angstrom
no_reorient  #important for SAPT in psi4, default
symmetry c1  #important for SAPT in psi4, default
}

set PROPERTIES_ORIGIN ["COM"]
properties('MP2/aug-cc-pvtz', properties = ['dipole'])
--------------------------------------------------------------------------

    Molecular point group: c1
  Charge       = 0
  Multiplicity = 1
  Basis Set: AUG-CC-PVTZ
    Blend: AUG-CC-PVTZ
  Basis Set: (AUG-CC-PVTZ AUX)
    Blend: AUG-CC-PVTZ-JKFIT

    Orbital Energies [Eh]
    ---------------------

    Doubly Occupied:

       1A    -20.578267     2A    -20.565875     3A    -11.360754
       4A    -11.352019     5A    -11.291011     6A    -11.287367
       7A    -11.271279     8A    -11.270474     9A    -11.244021
      10A    -11.243332    11A     -1.402326    12A     -1.388886
      13A     -1.159204    14A     -1.100672    15A     -1.008052
      16A     -0.965282    17A     -0.930260    18A     -0.823885
      19A     -0.806826    20A     -0.721592    21A     -0.698060
      22A     -0.655168    23A     -0.618185    24A     -0.614336
      25A     -0.608124    26A     -0.593493    27A     -0.589242
      28A     -0.575298    29A     -0.555045    30A     -0.550250
      31A     -0.549286    32A     -0.533521    33A     -0.457979
      34A     -0.437180    35A     -0.398002    36A     -0.382133

  @DF-RHF Final Energy:  -457.47000074634155

   => Energetics <=

    Nuclear Repulsion Energy =            490.3361108790697926
    One-Electron Energy =               -1594.4388500750678759
    Two-Electron Energy =                 646.6327384496564719
    Total Energy =                       -457.4700007463416114
  Basis Set: (AUG-CC-PVTZ AUX)
    Blend: AUG-CC-PVTZ-RI
    Molecular point group: c1

    Geometry (in Angstrom), charge = 0, multiplicity = 1:

       Center              X                  Y                   Z               Mass
    ------------   -----------------  -----------------  -----------------  -----------------
         O           -2.347475656130    -0.000028700700     0.000053587763    15.994914619570
         O            2.992743343870    -0.000028700700    -0.000055412237    15.994914619570
         C           -0.358330656130     1.287164299300     0.000000587763    12.000000000000
         C           -0.358330656130    -1.287221700700     0.000001587763    12.000000000000
         C           -1.107954656130    -0.000028700700     0.000021587763    12.000000000000
         C            0.993955343870     1.265162299300    -0.000016412237    12.000000000000
         C            1.013952743870    -1.264894300700    -0.000015712237    12.000000000000
         C            1.753331343870    -0.000028700700    -0.000031412237    12.000000000000
         C           -1.178982656130     2.538685299300     0.000015587763    12.000000000000
         C           -1.178982656130    -2.538742700700     0.000019587763    12.000000000000
         H            1.586871343870     2.177848299300    -0.000029412237     1.007825032230
         H            1.586871343870    -2.177905700700    -0.000026412237     1.007825032230
         H           -1.830967656130     2.567903299300     0.877652587763     1.007825032230
         H           -1.831041656130     2.567877299300    -0.877566412237     1.007825032230
         H           -0.536871656130     3.422517299300    -0.000023412237     1.007825032230
         H           -0.536872656130    -3.422574700700    -0.000027412237     1.007825032230
         H           -1.831049656130    -2.567931700700    -0.877557412237     1.007825032230
         H           -1.830960656130    -2.567963700700     0.877661587763     1.007825032230

  Basis Set: AUG-CC-PVTZ
    Blend: AUG-CC-PVTZ
  Basis Set: (AUG-CC-PVTZ AUX)
    Blend: AUG-CC-PVTZ-JKFIT
	 Reference Energy          =    -457.4700007463415545 [Eh]
	 Singles Energy            =      -0.0000000000000000 [Eh]
	 Same-Spin Energy          =      -0.4671232612003257 [Eh]
	 Opposite-Spin Energy      =      -1.4774990842046105 [Eh]
	 Correlation Energy        =      -1.9446223454049363 [Eh]
	 Total Energy              =    -459.4146230917464777 [Eh]

	 ================> DF-SCS-MP2 Energies <==================
	-----------------------------------------------------------
	 SCS Same-Spin Scale       =       0.3333333333333333 [-]
	 SCS Opposite-Spin Scale   =       1.2000000000000000 [-]
	 SCS Same-Spin Energy      =      -0.1557077537334419 [Eh]
	 SCS Opposite-Spin Energy  =      -1.7729989010455325 [Eh]
	 SCS Correlation Energy    =      -1.9287066547789744 [Eh]
	 SCS Total Energy          =    -459.3987074011205323 [Eh]
	-----------------------------------------------------------

  Dipole Moment: [D]
     X:    -1.1447      Y:    -0.0317      Z:     0.0000     Total:     1.1452

*** Psi4 exiting successfully. Buy a developer a beer!
