                               Psi4 1.4a3.dev225

  ==> Input File <==

--------------------------------------------------------------------------
#psi4
#
memory 32 gb

molecule  {
0 1
  O       -2.3098380     0.0000000     0.0000530
  O        3.0303810     0.0000000    -0.0000560
  C       -0.3206930     1.2871930     0.0000000
  C       -0.3206930    -1.2871930     0.0000010
  C       -1.0703170     0.0000000     0.0000210
  C        1.0315930     1.2651910    -0.0000170
  C        1.0315930    -1.2651910    -0.0000160
  C        1.6909690     0.0000000    -0.0000301
  C       -1.1413450     2.5387140     0.0000150
  C       -1.1413450    -2.5387140     0.0000190
  H        1.6245090     2.1778770    -0.0000300
  H        1.6245090    -2.1778770    -0.0000270
  H       -1.7933300     2.5679320     0.8776520
  H       -1.7934040     2.5679060    -0.8775670
  H       -0.4992340     3.4225460    -0.0000240
  H       -0.4992350    -3.4225460    -0.0000280
  H       -1.7934120    -2.5679030    -0.8775580
  H       -1.7933230    -2.5679350     0.8776610
units angstrom
no_reorient  #important for SAPT in psi4, default
symmetry c1  #important for SAPT in psi4, default
}

set PROPERTIES_ORIGIN ["COM"]
properties('MP2/aug-cc-pvtz', properties = ['dipole'])
--------------------------------------------------------------------------

    Molecular point group: c1
  Charge       = 0
  Multiplicity = 1
  Basis Set: AUG-CC-PVTZ
    Blend: AUG-CC-PVTZ
  Basis Set: (AUG-CC-PVTZ AUX)
    Blend: AUG-CC-PVTZ-JKFIT

    Orbital Energies [Eh]
    ---------------------

    Doubly Occupied:

       1A    -20.584197     2A    -20.557714     3A    -11.365487
       4A    -11.353797     5A    -11.292861     6A    -11.292837
       7A    -11.272044     8A    -11.272019     9A    -11.246631
      10A    -11.246631    11A     -1.407525    12A     -1.329196
      13A     -1.170917    14A     -1.109340    15A     -1.017060
      16A     -0.974186    17A     -0.934849    18A     -0.827417
      19A     -0.813729    20A     -0.724910    21A     -0.704239
      22A     -0.637524    23A     -0.622261    24A     -0.619613
      25A     -0.618407    26A     -0.592701    27A     -0.584676
      28A     -0.570741    29A     -0.552858    30A     -0.546165
      31A     -0.542941    32A     -0.524246    33A     -0.457316
      34A     -0.444558    35A     -0.389398    36A     -0.389023

  @DF-RHF Final Energy:  -457.44486029794592

   => Energetics <=

    Nuclear Repulsion Energy =            491.1037135246720595
    One-Electron Energy =               -1595.9171198890653613
    Two-Electron Energy =                 647.3685460664474931
    Total Energy =                       -457.4448602979458656
  Basis Set: (AUG-CC-PVTZ AUX)
    Blend: AUG-CC-PVTZ-RI
    Molecular point group: c1

    Geometry (in Angstrom), charge = 0, multiplicity = 1:

       Center              X                  Y                   Z               Mass
    ------------   -----------------  -----------------  -----------------  -----------------
         O           -2.336891730468    -0.000000000000     0.000053393720    15.994914619570
         O            3.003327269532    -0.000000000000    -0.000055606280    15.994914619570
         C           -0.347746730468     1.287193000000     0.000000393720    12.000000000000
         C           -0.347746730468    -1.287193000000     0.000001393720    12.000000000000
         C           -1.097370730468    -0.000000000000     0.000021393720    12.000000000000
         C            1.004539269532     1.265191000000    -0.000016606280    12.000000000000
         C            1.004539269532    -1.265191000000    -0.000015606280    12.000000000000
         C            1.663915269532    -0.000000000000    -0.000029706280    12.000000000000
         C           -1.168398730468     2.538714000000     0.000015393720    12.000000000000
         C           -1.168398730468    -2.538714000000     0.000019393720    12.000000000000
         H            1.597455269532     2.177877000000    -0.000029606280     1.007825032230
         H            1.597455269532    -2.177877000000    -0.000026606280     1.007825032230
         H           -1.820383730468     2.567932000000     0.877652393720     1.007825032230
         H           -1.820457730468     2.567906000000    -0.877566606280     1.007825032230
         H           -0.526287730468     3.422546000000    -0.000023606280     1.007825032230
         H           -0.526288730468    -3.422546000000    -0.000027606280     1.007825032230
         H           -1.820465730468    -2.567903000000    -0.877557606280     1.007825032230
         H           -1.820376730468    -2.567935000000     0.877661393720     1.007825032230

  Basis Set: AUG-CC-PVTZ
    Blend: AUG-CC-PVTZ
  Basis Set: (AUG-CC-PVTZ AUX)
    Blend: AUG-CC-PVTZ-JKFIT
	 Reference Energy          =    -457.4448602979459224 [Eh]
	 Singles Energy            =      -0.0000000000000000 [Eh]
	 Same-Spin Energy          =      -0.4713802084648503 [Eh]
	 Opposite-Spin Energy      =      -1.4855139528429517 [Eh]
	 Correlation Energy        =      -1.9568941613078019 [Eh]
	 Total Energy              =    -459.4017544592537092 [Eh]

	 ================> DF-SCS-MP2 Energies <==================
	-----------------------------------------------------------
	 SCS Same-Spin Scale       =       0.3333333333333333 [-]
	 SCS Opposite-Spin Scale   =       1.2000000000000000 [-]
	 SCS Same-Spin Energy      =      -0.1571267361549501 [Eh]
	 SCS Opposite-Spin Energy  =      -1.7826167434115421 [Eh]
	 SCS Correlation Energy    =      -1.9397434795664921 [Eh]
	 SCS Total Energy          =    -459.3846037775124387 [Eh]
	-----------------------------------------------------------

  Dipole Moment: [D]
     X:    -1.3986      Y:    -0.0000      Z:     0.0000     Total:     1.3986

*** Psi4 exiting successfully. Buy a developer a beer!
