                               Psi4 1.4a3.dev225

  ==> Input File <==

--------------------------------------------------------------------------
#psi4
#
memory 32 gb

molecule  {
0 1
  O       -2.3098380     0.0000000     0.0000530
  O        3.0303810     0.0000000    -0.0000560
  C       -0.3206930     1.2871930     0.0000000
  C       -0.3206930    -1.2871930     0.0000010
  C       -1.0703170     0.0000000     0.0000210
  C        1.0315930     1.2651910    -0.0000170
  C        1.0315930    -1.2651910    -0.0000160
  C        1.8109690     0.0000000    -0.0000324
  C       -1.1413450     2.5387140     0.0000150
  C       -1.1413450    -2.5387140     0.0000190
  H        1.6245090     2.1778770    -0.0000300
  H        1.6245090    -2.1778770    -0.0000270
  H       -1.7933300     2.5679320     0.8776520
  H       -1.7934040     2.5679060    -0.8775670
  H       -0.4992340     3.4225460    -0.0000240
  H       -0.4992350    -3.4225460    -0.0000280
  H       -1.7934120    -2.5679030    -0.8775580
  H       -1.7933230    -2.5679350     0.8776610
units angstrom
no_reorient  #important for SAPT in psi4, default
symmetry c1  #important for SAPT in psi4, default
}

set PROPERTIES_ORIGIN ["COM"]
properties('MP2/aug-cc-pvtz', properties = ['dipole'])
--------------------------------------------------------------------------

    Molecular point group: c1
  Charge       = 0
  Multiplicity = 1
  Basis Set: AUG-CC-PVTZ
    Blend: AUG-CC-PVTZ
  Basis Set: (AUG-CC-PVTZ AUX)
    Blend: AUG-CC-PVTZ-JKFIT

    Orbital Energies [Eh]
    ---------------------

    Doubly Occupied:

       1A    -20.576792     2A    -20.568613     3A    -11.359542
       4A    -11.352942     5A    -11.286491     6A    -11.286466
       7A    -11.269832     8A    -11.269809     9A    -11.242726
      10A    -11.242726    11A     -1.403549    12A     -1.400273
      13A     -1.158662    14A     -1.100931    15A     -1.005104
      16A     -0.963219    17A     -0.928579    18A     -0.822310
      19A     -0.806598    20A     -0.721852    21A     -0.695798
      22A     -0.660817    23A     -0.617825    24A     -0.611840
      25A     -0.605450    26A     -0.594501    27A     -0.588504
      28A     -0.575852    29A     -0.560020    30A     -0.551599
      31A     -0.548274    32A     -0.533591    33A     -0.458428
      34A     -0.432833    35A     -0.401071    36A     -0.383687

  @DF-RHF Final Energy:  -457.47358160238906

   => Energetics <=

    Nuclear Repulsion Energy =            490.4525203096287669
    One-Electron Energy =               -1594.6779898980601047
    Two-Electron Energy =                 646.7518879860422203
    Total Energy =                       -457.4735816023890038
  Basis Set: (AUG-CC-PVTZ AUX)
    Blend: AUG-CC-PVTZ-RI
    Molecular point group: c1

    Geometry (in Angstrom), charge = 0, multiplicity = 1:

       Center              X                  Y                   Z               Mass
    ------------   -----------------  -----------------  -----------------  -----------------
         O           -2.347475885453    -0.000000000000     0.000053596583    15.994914619570
         O            2.992743114547    -0.000000000000    -0.000055403417    15.994914619570
         C           -0.358330885453     1.287193000000     0.000000596583    12.000000000000
         C           -0.358330885453    -1.287193000000     0.000001596583    12.000000000000
         C           -1.107954885453    -0.000000000000     0.000021596583    12.000000000000
         C            0.993955114547     1.265191000000    -0.000016403417    12.000000000000
         C            0.993955114547    -1.265191000000    -0.000015403417    12.000000000000
         C            1.773331114547    -0.000000000000    -0.000031803417    12.000000000000
         C           -1.178982885453     2.538714000000     0.000015596583    12.000000000000
         C           -1.178982885453    -2.538714000000     0.000019596583    12.000000000000
         H            1.586871114547     2.177877000000    -0.000029403417     1.007825032230
         H            1.586871114547    -2.177877000000    -0.000026403417     1.007825032230
         H           -1.830967885453     2.567932000000     0.877652596583     1.007825032230
         H           -1.831041885453     2.567906000000    -0.877566403417     1.007825032230
         H           -0.536871885453     3.422546000000    -0.000023403417     1.007825032230
         H           -0.536872885453    -3.422546000000    -0.000027403417     1.007825032230
         H           -1.831049885453    -2.567903000000    -0.877557403417     1.007825032230
         H           -1.830960885453    -2.567935000000     0.877661596583     1.007825032230

  Basis Set: AUG-CC-PVTZ
    Blend: AUG-CC-PVTZ
  Basis Set: (AUG-CC-PVTZ AUX)
    Blend: AUG-CC-PVTZ-JKFIT
	 Reference Energy          =    -457.4735816023890607 [Eh]
	 Singles Energy            =      -0.0000000000000000 [Eh]
	 Same-Spin Energy          =      -0.4660405005175850 [Eh]
	 Opposite-Spin Energy      =      -1.4754231508239555 [Eh]
	 Correlation Energy        =      -1.9414636513415404 [Eh]
	 Total Energy              =    -459.4150452537306251 [Eh]

	 ================> DF-SCS-MP2 Energies <==================
	-----------------------------------------------------------
	 SCS Same-Spin Scale       =       0.3333333333333333 [-]
	 SCS Opposite-Spin Scale   =       1.2000000000000000 [-]
	 SCS Same-Spin Energy      =      -0.1553468335058616 [Eh]
	 SCS Opposite-Spin Energy  =      -1.7705077809887466 [Eh]
	 SCS Correlation Energy    =      -1.9258546144946083 [Eh]
	 SCS Total Energy          =    -459.3994362168836574 [Eh]
	-----------------------------------------------------------

  Dipole Moment: [D]
     X:    -1.0384      Y:    -0.0000      Z:     0.0000     Total:     1.0384

*** Psi4 exiting successfully. Buy a developer a beer!
