                               Psi4 1.4a3.dev225

  ==> Input File <==

--------------------------------------------------------------------------
#psi4
#
memory 32 gb

molecule  {
0 1
  O       -2.3098380     0.0000000     0.0000530
  O        3.0303810     0.0000000    -0.0000560
  C       -0.3206930     1.2871930     0.0000000
  C       -0.3206930    -1.2871930     0.0000010
  C       -1.0451545    -0.0432070     0.0000203
  C        1.0315930     1.2651910    -0.0000170
  C        1.0315930    -1.2651910    -0.0000160
  C        1.7909690     0.0000000    -0.0000320
  C       -1.1413450     2.5387140     0.0000150
  C       -1.1413450    -2.5387140     0.0000190
  H        1.6245090     2.1778770    -0.0000300
  H        1.6245090    -2.1778770    -0.0000270
  H       -1.7933300     2.5679320     0.8776520
  H       -1.7934040     2.5679060    -0.8775670
  H       -0.4992340     3.4225460    -0.0000240
  H       -0.4992350    -3.4225460    -0.0000280
  H       -1.7934120    -2.5679030    -0.8775580
  H       -1.7933230    -2.5679350     0.8776610
units angstrom
no_reorient  #important for SAPT in psi4, default
symmetry c1  #important for SAPT in psi4, default
}

set PROPERTIES_ORIGIN ["COM"]
properties('MP2/aug-cc-pvtz', properties = ['dipole'])
--------------------------------------------------------------------------

    Molecular point group: c1
  Charge       = 0
  Multiplicity = 1
  Basis Set: AUG-CC-PVTZ
    Blend: AUG-CC-PVTZ
  Basis Set: (AUG-CC-PVTZ AUX)
    Blend: AUG-CC-PVTZ-JKFIT

    Orbital Energies [Eh]
    ---------------------

    Doubly Occupied:

       1A    -20.575732     2A    -20.568774     3A    -11.361029
       4A    -11.354639     5A    -11.289549     6A    -11.286332
       7A    -11.276735     8A    -11.267109     9A    -11.244265
      10A    -11.243318    11A     -1.391289    12A     -1.384718
      13A     -1.164279    14A     -1.103808    15A     -1.007988
      16A     -0.965642    17A     -0.934320    18A     -0.825898
      19A     -0.808415    20A     -0.721871    21A     -0.694690
      22A     -0.655450    23A     -0.617686    24A     -0.609260
      25A     -0.608430    26A     -0.594823    27A     -0.589197
      28A     -0.574280    29A     -0.555957    30A     -0.551266
      31A     -0.546075    32A     -0.526019    33A     -0.459503
      34A     -0.438301    35A     -0.399176    36A     -0.385547

  @DF-RHF Final Energy:  -457.46499982532288

   => Energetics <=

    Nuclear Repulsion Energy =            490.5803996185767915
    One-Electron Energy =               -1594.9280562050357730
    Two-Electron Energy =                 646.8826567611361043
    Total Energy =                       -457.4649998253228205
  Basis Set: (AUG-CC-PVTZ AUX)
    Blend: AUG-CC-PVTZ-RI
    Molecular point group: c1

    Geometry (in Angstrom), charge = 0, multiplicity = 1:

       Center              X                  Y                   Z               Mass
    ------------   -----------------  -----------------  -----------------  -----------------
         O           -2.347931224621     0.003810913204     0.000053623043    15.994914619570
         O            2.992287775379     0.003810913204    -0.000055376957    15.994914619570
         C           -0.358786224621     1.291003913204     0.000000623043    12.000000000000
         C           -0.358786224621    -1.283382086796     0.000001623043    12.000000000000
         C           -1.083247724621    -0.039396086796     0.000020923043    12.000000000000
         C            0.993499775379     1.269001913204    -0.000016376957    12.000000000000
         C            0.993499775379    -1.261380086796    -0.000015376957    12.000000000000
         C            1.752875775379     0.003810913204    -0.000031376957    12.000000000000
         C           -1.179438224621     2.542524913204     0.000015623043    12.000000000000
         C           -1.179438224621    -2.534903086796     0.000019623043    12.000000000000
         H            1.586415775379     2.181687913204    -0.000029376957     1.007825032230
         H            1.586415775379    -2.174066086796    -0.000026376957     1.007825032230
         H           -1.831423224621     2.571742913204     0.877652623043     1.007825032230
         H           -1.831497224621     2.571716913204    -0.877566376957     1.007825032230
         H           -0.537327224621     3.426356913204    -0.000023376957     1.007825032230
         H           -0.537328224621    -3.418735086796    -0.000027376957     1.007825032230
         H           -1.831505224621    -2.564092086796    -0.877557376957     1.007825032230
         H           -1.831416224621    -2.564124086796     0.877661623043     1.007825032230

  Basis Set: AUG-CC-PVTZ
    Blend: AUG-CC-PVTZ
  Basis Set: (AUG-CC-PVTZ AUX)
    Blend: AUG-CC-PVTZ-JKFIT
	 Reference Energy          =    -457.4649998253228773 [Eh]
	 Singles Energy            =      -0.0000000000000000 [Eh]
	 Same-Spin Energy          =      -0.4679677052241741 [Eh]
	 Opposite-Spin Energy      =      -1.4792166081153770 [Eh]
	 Correlation Energy        =      -1.9471843133395512 [Eh]
	 Total Energy              =    -459.4121841386624396 [Eh]

	 ================> DF-SCS-MP2 Energies <==================
	-----------------------------------------------------------
	 SCS Same-Spin Scale       =       0.3333333333333333 [-]
	 SCS Opposite-Spin Scale   =       1.2000000000000000 [-]
	 SCS Same-Spin Energy      =      -0.1559892350747247 [Eh]
	 SCS Opposite-Spin Energy  =      -1.7750599297384524 [Eh]
	 SCS Correlation Energy    =      -1.9310491648131771 [Eh]
	 SCS Total Energy          =    -459.3960489901360802 [Eh]
	-----------------------------------------------------------

  Dipole Moment: [D]
     X:    -1.0311      Y:    -0.1540      Z:     0.0000     Total:     1.0426

*** Psi4 exiting successfully. Buy a developer a beer!
