                               Psi4 1.4a3.dev225

  ==> Input File <==

--------------------------------------------------------------------------
#psi4
#
memory 32 gb

molecule  {
0 1
  O       -2.3098380     0.0000000     0.0000530
  O        3.0303810     0.0000000    -0.0000560
  C       -0.3206930     1.2871930     0.0000000
  C       -0.3206930    -1.2871930     0.0000010
  C       -1.0703170     0.0000000     0.0000210
  C        1.0315930     1.2651910    -0.0000170
  C        1.0315930    -1.2651910    -0.0000160
  C        1.7909690     0.0000000    -0.0000320
  C       -1.1413450     2.5387140     0.0000150
  C       -1.1413450    -2.5387140     0.0000190
  H        1.6245090     2.1778770    -0.0000300
  H        1.6245090    -2.1778770    -0.0000270
  H       -1.7933300     2.5679320     0.8776520
  H       -1.7934040     2.5679060    -0.8775670
  H       -0.4992340     3.4225460    -0.0000240
  H       -0.4992350    -3.4225460    -0.0000280
  H       -1.9126523    -2.5732406    -1.0380362
  H       -1.7933230    -2.5679350     0.8776610
units angstrom
no_reorient  #important for SAPT in psi4, default
symmetry c1  #important for SAPT in psi4, default
}

set PROPERTIES_ORIGIN ["COM"]
properties('MP2/aug-cc-pvtz', properties = ['dipole'])
--------------------------------------------------------------------------

    Molecular point group: c1
  Charge       = 0
  Multiplicity = 1
  Basis Set: AUG-CC-PVTZ
    Blend: AUG-CC-PVTZ
  Basis Set: (AUG-CC-PVTZ AUX)
    Blend: AUG-CC-PVTZ-JKFIT

    Orbital Energies [Eh]
    ---------------------

    Doubly Occupied:

       1A    -20.577860     2A    -20.567538     3A    -11.360616
       4A    -11.353970     5A    -11.289277     6A    -11.287961
       7A    -11.271767     8A    -11.270612     9A    -11.264869
      10A    -11.243597    11A     -1.401907    12A     -1.389688
      13A     -1.161256    14A     -1.101784    15A     -1.004254
      16A     -0.960848    17A     -0.927429    18A     -0.821637
      19A     -0.806698    20A     -0.722317    21A     -0.697345
      22A     -0.655654    23A     -0.616365    24A     -0.612350
      25A     -0.607177    26A     -0.594926    27A     -0.582342
      28A     -0.570251    29A     -0.554686    30A     -0.550284
      31A     -0.541159    32A     -0.519775    33A     -0.458930
      34A     -0.435983    35A     -0.399419    36A     -0.383674

  @DF-RHF Final Energy:  -457.45130234938767

   => Energetics <=

    Nuclear Repulsion Energy =            489.7488490047759910
    One-Electron Energy =               -1593.2678896281777270
    Two-Electron Energy =                 646.0677382740140047
    Total Energy =                       -457.4513023493876744
  Basis Set: (AUG-CC-PVTZ AUX)
    Blend: AUG-CC-PVTZ-RI
    Molecular point group: c1

    Geometry (in Angstrom), charge = 0, multiplicity = 1:

       Center              X                  Y                   Z               Mass
    ------------   -----------------  -----------------  -----------------  -----------------
         O           -2.344828572498     0.000039538926     0.001242323221    15.994914619570
         O            2.995390427502     0.000039538926     0.001133323221    15.994914619570
         C           -0.355683572498     1.287232538926     0.001189323221    12.000000000000
         C           -0.355683572498    -1.287153461074     0.001190323221    12.000000000000
         C           -1.105307572498     0.000039538926     0.001210323221    12.000000000000
         C            0.996602427502     1.265230538926     0.001172323221    12.000000000000
         C            0.996602427502    -1.265151461074     0.001173323221    12.000000000000
         C            1.755978427502     0.000039538926     0.001157323221    12.000000000000
         C           -1.176335572498     2.538753538926     0.001204323221    12.000000000000
         C           -1.176335572498    -2.538674461074     0.001208323221    12.000000000000
         H            1.589518427502     2.177916538926     0.001159323221     1.007825032230
         H            1.589518427502    -2.177837461074     0.001162323221     1.007825032230
         H           -1.828320572498     2.567971538926     0.878841323221     1.007825032230
         H           -1.828394572498     2.567945538926    -0.876377676779     1.007825032230
         H           -0.534224572498     3.422585538926     0.001165323221     1.007825032230
         H           -0.534225572498    -3.422506461074     0.001161323221     1.007825032230
         H           -1.947642872498    -2.573201061074    -1.036846876779     1.007825032230
         H           -1.828313572498    -2.567895461074     0.878850323221     1.007825032230

  Basis Set: AUG-CC-PVTZ
    Blend: AUG-CC-PVTZ
  Basis Set: (AUG-CC-PVTZ AUX)
    Blend: AUG-CC-PVTZ-JKFIT
	 Reference Energy          =    -457.4513023493876744 [Eh]
	 Singles Energy            =      -0.0000000000000000 [Eh]
	 Same-Spin Energy          =      -0.4669559178381221 [Eh]
	 Opposite-Spin Energy      =      -1.4785960096318669 [Eh]
	 Correlation Energy        =      -1.9455519274699888 [Eh]
	 Total Energy              =    -459.3968542768576526 [Eh]

	 ================> DF-SCS-MP2 Energies <==================
	-----------------------------------------------------------
	 SCS Same-Spin Scale       =       0.3333333333333333 [-]
	 SCS Opposite-Spin Scale   =       1.2000000000000000 [-]
	 SCS Same-Spin Energy      =      -0.1556519726127074 [Eh]
	 SCS Opposite-Spin Energy  =      -1.7743152115582401 [Eh]
	 SCS Correlation Energy    =      -1.9299671841709474 [Eh]
	 SCS Total Energy          =    -459.3812695335586227 [Eh]
	-----------------------------------------------------------

  Dipole Moment: [D]
     X:    -1.0894      Y:     0.0362      Z:     0.0493     Total:     1.0911

*** Psi4 exiting successfully. Buy a developer a beer!
