                               Psi4 1.4a3.dev225

  ==> Input File <==

--------------------------------------------------------------------------
#psi4
#
memory 32 gb

molecule  {
0 1
  O       -2.3098380     0.0000000     0.0000530
  O        3.0303810     0.0000000    -0.0000560
  C       -0.3206930     1.2871930     0.0000000
  C       -0.3206930    -1.2871930     0.0000010
  C       -1.0703170     0.0000000     0.0000210
  C        1.0315930     1.2651910    -0.0000170
  C        1.0315930    -1.2651910    -0.0000160
  C        1.6880438     0.1714830    -0.0000300
  C       -1.1413450     2.5387140     0.0000150
  C       -1.1413450    -2.5387140     0.0000190
  H        1.6245090     2.1778770    -0.0000300
  H        1.6245090    -2.1778770    -0.0000270
  H       -1.7933300     2.5679320     0.8776520
  H       -1.7934040     2.5679060    -0.8775670
  H       -0.4992340     3.4225460    -0.0000240
  H       -0.4992350    -3.4225460    -0.0000280
  H       -1.7934120    -2.5679030    -0.8775580
  H       -1.7933230    -2.5679350     0.8776610
units angstrom
no_reorient  #important for SAPT in psi4, default
symmetry c1  #important for SAPT in psi4, default
}

set PROPERTIES_ORIGIN ["COM"]
properties('MP2/aug-cc-pvtz', properties = ['dipole'])
--------------------------------------------------------------------------

    Molecular point group: c1
  Charge       = 0
  Multiplicity = 1
  Basis Set: AUG-CC-PVTZ
    Blend: AUG-CC-PVTZ
  Basis Set: (AUG-CC-PVTZ AUX)
    Blend: AUG-CC-PVTZ-JKFIT

    Orbital Energies [Eh]
    ---------------------

    Doubly Occupied:

       1A    -20.585685     2A    -20.552777     3A    -11.366865
       4A    -11.349865     5A    -11.317956     6A    -11.279416
       7A    -11.274530     8A    -11.259761     9A    -11.257821
      10A    -11.238549    11A     -1.409043    12A     -1.319302
      13A     -1.181068    14A     -1.106872    15A     -1.038018
      16A     -0.965136    17A     -0.936340    18A     -0.837103
      19A     -0.806901    20A     -0.723436    21A     -0.702510
      22A     -0.643393    23A     -0.626169    24A     -0.619472
      25A     -0.614041    26A     -0.592631    27A     -0.583580
      28A     -0.575323    29A     -0.552060    30A     -0.548152
      31A     -0.534262    32A     -0.526564    33A     -0.457489
      34A     -0.432052    35A     -0.390208    36A     -0.384207

  @DF-RHF Final Energy:  -457.40069154540174

   => Energetics <=

    Nuclear Repulsion Energy =            491.2347336493521084
    One-Electron Energy =               -1596.0937337493021460
    Two-Electron Energy =                 647.4583085545482390
    Total Energy =                       -457.4006915454017417
  Basis Set: (AUG-CC-PVTZ AUX)
    Blend: AUG-CC-PVTZ-RI
    Molecular point group: c1

    Geometry (in Angstrom), charge = 0, multiplicity = 1:

       Center              X                  Y                   Z               Mass
    ------------   -----------------  -----------------  -----------------  -----------------
         O           -2.336633724049    -0.015125022079     0.000053384900    15.994914619570
         O            3.003585275951    -0.015125022079    -0.000055615100    15.994914619570
         C           -0.347488724049     1.272067977921     0.000000384900    12.000000000000
         C           -0.347488724049    -1.302318022079     0.000001384900    12.000000000000
         C           -1.097112724049    -0.015125022079     0.000021384900    12.000000000000
         C            1.004797275951     1.250065977921    -0.000016615100    12.000000000000
         C            1.004797275951    -1.280316022079    -0.000015615100    12.000000000000
         C            1.661248075951     0.156357977921    -0.000029615100    12.000000000000
         C           -1.168140724049     2.523588977921     0.000015384900    12.000000000000
         C           -1.168140724049    -2.553839022079     0.000019384900    12.000000000000
         H            1.597713275951     2.162751977921    -0.000029615100     1.007825032230
         H            1.597713275951    -2.193002022079    -0.000026615100     1.007825032230
         H           -1.820125724049     2.552806977921     0.877652384900     1.007825032230
         H           -1.820199724049     2.552780977921    -0.877566615100     1.007825032230
         H           -0.526029724049     3.407420977921    -0.000023615100     1.007825032230
         H           -0.526030724049    -3.437671022079    -0.000027615100     1.007825032230
         H           -1.820207724049    -2.583028022079    -0.877557615100     1.007825032230
         H           -1.820118724049    -2.583060022079     0.877661384900     1.007825032230

  Basis Set: AUG-CC-PVTZ
    Blend: AUG-CC-PVTZ
  Basis Set: (AUG-CC-PVTZ AUX)
    Blend: AUG-CC-PVTZ-JKFIT
	 Reference Energy          =    -457.4006915454017417 [Eh]
	 Singles Energy            =      -0.0000000000000000 [Eh]
	 Same-Spin Energy          =      -0.4734150194325722 [Eh]
	 Opposite-Spin Energy      =      -1.4892193133795304 [Eh]
	 Correlation Energy        =      -1.9626343328121028 [Eh]
	 Total Energy              =    -459.3633258782138569 [Eh]

	 ================> DF-SCS-MP2 Energies <==================
	-----------------------------------------------------------
	 SCS Same-Spin Scale       =       0.3333333333333333 [-]
	 SCS Opposite-Spin Scale   =       1.2000000000000000 [-]
	 SCS Same-Spin Energy      =      -0.1578050064775241 [Eh]
	 SCS Opposite-Spin Energy  =      -1.7870631760554365 [Eh]
	 SCS Correlation Energy    =      -1.9448681825329606 [Eh]
	 SCS Total Energy          =    -459.3455597279346989 [Eh]
	-----------------------------------------------------------

  Dipole Moment: [D]
     X:    -1.3651      Y:     0.7130      Z:     0.0000     Total:     1.5401

*** Psi4 exiting successfully. Buy a developer a beer!
