                               Psi4 1.4a3.dev225

  ==> Input File <==

--------------------------------------------------------------------------
#psi4
#
memory 32 gb

molecule  {
0 1
  O       -2.3098380     0.0000000     0.0000530
  O        3.0303810     0.0000000    -0.0000560
  C       -0.3206930     1.2871930     0.0000000
  C       -0.3206371    -1.2399855     0.0000012
  C       -1.0703170     0.0000000     0.0000210
  C        1.0315930     1.2651910    -0.0000170
  C        1.0315930    -1.2651910    -0.0000160
  C        1.7909690     0.0000000    -0.0000320
  C       -1.1413450     2.5387140     0.0000150
  C       -1.1413450    -2.5387140     0.0000190
  H        1.6245090     2.1778770    -0.0000300
  H        1.6245090    -2.1778770    -0.0000270
  H       -1.7933300     2.5679320     0.8776520
  H       -1.7934040     2.5679060    -0.8775670
  H       -0.4992340     3.4225460    -0.0000240
  H       -0.4992350    -3.4225460    -0.0000280
  H       -1.7934120    -2.5679030    -0.8775580
  H       -1.7933230    -2.5679350     0.8776610
units angstrom
no_reorient  #important for SAPT in psi4, default
symmetry c1  #important for SAPT in psi4, default
}

set PROPERTIES_ORIGIN ["COM"]
properties('MP2/aug-cc-pvtz', properties = ['dipole'])
--------------------------------------------------------------------------

    Molecular point group: c1
  Charge       = 0
  Multiplicity = 1
  Basis Set: AUG-CC-PVTZ
    Blend: AUG-CC-PVTZ
  Basis Set: (AUG-CC-PVTZ AUX)
    Blend: AUG-CC-PVTZ-JKFIT

    Orbital Energies [Eh]
    ---------------------

    Doubly Occupied:

       1A    -20.578339     2A    -20.567634     3A    -11.358403
       4A    -11.352713     5A    -11.286709     6A    -11.285889
       7A    -11.273696     8A    -11.269811     9A    -11.244429
      10A    -11.242949    11A     -1.403040    12A     -1.389661
      13A     -1.163539    14A     -1.099914    15A     -1.004439
      16A     -0.963018    17A     -0.935836    18A     -0.826438
      19A     -0.807209    20A     -0.723608    21A     -0.699129
      22A     -0.654765    23A     -0.618417    24A     -0.616713
      25A     -0.607159    26A     -0.590752    27A     -0.586815
      28A     -0.570269    29A     -0.555037    30A     -0.551759
      31A     -0.545159    32A     -0.533912    33A     -0.460881
      34A     -0.435776    35A     -0.400603    36A     -0.385176

  @DF-RHF Final Energy:  -457.46894861539471

   => Energetics <=

    Nuclear Repulsion Energy =            491.0262517194608449
    One-Electron Energy =               -1595.8112071611719784
    Two-Electron Energy =                 647.3160068263165385
    Total Energy =                       -457.4689486153946518
  Basis Set: (AUG-CC-PVTZ AUX)
    Blend: AUG-CC-PVTZ-RI
    Molecular point group: c1

    Geometry (in Angstrom), charge = 0, multiplicity = 1:

       Center              X                  Y                   Z               Mass
    ------------   -----------------  -----------------  -----------------  -----------------
         O           -2.345716790075    -0.004163762471     0.000053543662    15.994914619570
         O            2.994502209925    -0.004163762471    -0.000055456338    15.994914619570
         C           -0.356571790075     1.283029237529     0.000000543662    12.000000000000
         C           -0.356515890075    -1.244149262471     0.000001743662    12.000000000000
         C           -1.106195790075    -0.004163762471     0.000021543662    12.000000000000
         C            0.995714209925     1.261027237529    -0.000016456338    12.000000000000
         C            0.995714209925    -1.269354762471    -0.000015456338    12.000000000000
         C            1.755090209925    -0.004163762471    -0.000031456338    12.000000000000
         C           -1.177223790075     2.534550237529     0.000015543662    12.000000000000
         C           -1.177223790075    -2.542877762471     0.000019543662    12.000000000000
         H            1.588630209925     2.173713237529    -0.000029456338     1.007825032230
         H            1.588630209925    -2.182040762471    -0.000026456338     1.007825032230
         H           -1.829208790075     2.563768237529     0.877652543662     1.007825032230
         H           -1.829282790075     2.563742237529    -0.877566456338     1.007825032230
         H           -0.535112790075     3.418382237529    -0.000023456338     1.007825032230
         H           -0.535113790075    -3.426709762471    -0.000027456338     1.007825032230
         H           -1.829290790075    -2.572066762471    -0.877557456338     1.007825032230
         H           -1.829201790075    -2.572098762471     0.877661543662     1.007825032230

  Basis Set: AUG-CC-PVTZ
    Blend: AUG-CC-PVTZ
  Basis Set: (AUG-CC-PVTZ AUX)
    Blend: AUG-CC-PVTZ-JKFIT
	 Reference Energy          =    -457.4689486153947087 [Eh]
	 Singles Energy            =      -0.0000000000000000 [Eh]
	 Same-Spin Energy          =      -0.4669615956228377 [Eh]
	 Opposite-Spin Energy      =      -1.4773717965093613 [Eh]
	 Correlation Energy        =      -1.9443333921321990 [Eh]
	 Total Energy              =    -459.4132820075269024 [Eh]

	 ================> DF-SCS-MP2 Energies <==================
	-----------------------------------------------------------
	 SCS Same-Spin Scale       =       0.3333333333333333 [-]
	 SCS Opposite-Spin Scale   =       1.2000000000000000 [-]
	 SCS Same-Spin Energy      =      -0.1556538652076125 [Eh]
	 SCS Opposite-Spin Energy  =      -1.7728461558112336 [Eh]
	 SCS Correlation Energy    =      -1.9285000210188461 [Eh]
	 SCS Total Energy          =    -459.3974486364135714 [Eh]
	-----------------------------------------------------------

  Dipole Moment: [D]
     X:    -1.0302      Y:    -0.0081      Z:     0.0000     Total:     1.0302

*** Psi4 exiting successfully. Buy a developer a beer!
