                               Psi4 1.4a3.dev225

  ==> Input File <==

--------------------------------------------------------------------------
#psi4
#
memory 32 gb

molecule  {
0 1
  O       -2.3098380     0.0000000     0.0000530
  O        3.0303810     0.0000000    -0.0000560
  C       -0.3206930     1.2871930     0.0000000
  C       -0.3206930    -1.2871930     0.0000010
  C       -1.2007588    -0.0854084     0.0000220
  C        1.0315930     1.2651910    -0.0000170
  C        1.0315930    -1.2651910    -0.0000160
  C        1.7909690     0.0000000    -0.0000320
  C       -1.1413450     2.5387140     0.0000150
  C       -1.1413450    -2.5387140     0.0000190
  H        1.6245090     2.1778770    -0.0000300
  H        1.6245090    -2.1778770    -0.0000270
  H       -1.7933300     2.5679320     0.8776520
  H       -1.7934040     2.5679060    -0.8775670
  H       -0.4992340     3.4225460    -0.0000240
  H       -0.4992350    -3.4225460    -0.0000280
  H       -1.7934120    -2.5679030    -0.8775580
  H       -1.7933230    -2.5679350     0.8776610
units angstrom
no_reorient  #important for SAPT in psi4, default
symmetry c1  #important for SAPT in psi4, default
}

set PROPERTIES_ORIGIN ["COM"]
properties('MP2/aug-cc-pvtz', properties = ['dipole'])
--------------------------------------------------------------------------

    Molecular point group: c1
  Charge       = 0
  Multiplicity = 1
  Basis Set: AUG-CC-PVTZ
    Blend: AUG-CC-PVTZ
  Basis Set: (AUG-CC-PVTZ AUX)
    Blend: AUG-CC-PVTZ-JKFIT

    Orbital Energies [Eh]
    ---------------------

    Doubly Occupied:

       1A    -20.590270     2A    -20.557809     3A    -11.358378
       4A    -11.345885     5A    -11.284342     6A    -11.280183
       7A    -11.272202     8A    -11.253676     9A    -11.243266
      10A    -11.239181    11A     -1.498549    12A     -1.381202
      13A     -1.149106    14A     -1.092516    15A     -1.005078
      16A     -0.961164    17A     -0.912002    18A     -0.812826
      19A     -0.799381    20A     -0.728013    21A     -0.721999
      22A     -0.656346    23A     -0.639282    24A     -0.624585
      25A     -0.601868    26A     -0.588229    27A     -0.584877
      28A     -0.579525    29A     -0.571352    30A     -0.559473
      31A     -0.552728    32A     -0.548676    33A     -0.445816
      34A     -0.409799    35A     -0.400275    36A     -0.376897

  @DF-RHF Final Energy:  -457.45097007984435

   => Energetics <=

    Nuclear Repulsion Energy =            490.6096358067967458
    One-Electron Energy =               -1594.8677000561031036
    Two-Electron Energy =                 646.8070941694619478
    Total Energy =                       -457.4509700798442964
  Basis Set: (AUG-CC-PVTZ AUX)
    Blend: AUG-CC-PVTZ-RI
    Molecular point group: c1

    Geometry (in Angstrom), charge = 0, multiplicity = 1:

       Center              X                  Y                   Z               Mass
    ------------   -----------------  -----------------  -----------------  -----------------
         O           -2.334206724390     0.007533131189     0.000053473101    15.994914619570
         O            3.006012275610     0.007533131189    -0.000055526899    15.994914619570
         C           -0.345061724390     1.294726131189     0.000000473101    12.000000000000
         C           -0.345061724390    -1.279659868811     0.000001473101    12.000000000000
         C           -1.225127524390    -0.077875268811     0.000022473101    12.000000000000
         C            1.007224275610     1.272724131189    -0.000016526899    12.000000000000
         C            1.007224275610    -1.257657868811    -0.000015526899    12.000000000000
         C            1.766600275610     0.007533131189    -0.000031526899    12.000000000000
         C           -1.165713724390     2.546247131189     0.000015473101    12.000000000000
         C           -1.165713724390    -2.531180868811     0.000019473101    12.000000000000
         H            1.600140275610     2.185410131189    -0.000029526899     1.007825032230
         H            1.600140275610    -2.170343868811    -0.000026526899     1.007825032230
         H           -1.817698724390     2.575465131189     0.877652473101     1.007825032230
         H           -1.817772724390     2.575439131189    -0.877566526899     1.007825032230
         H           -0.523602724390     3.430079131189    -0.000023526899     1.007825032230
         H           -0.523603724390    -3.415012868811    -0.000027526899     1.007825032230
         H           -1.817780724390    -2.560369868811    -0.877557526899     1.007825032230
         H           -1.817691724390    -2.560401868811     0.877661473101     1.007825032230

  Basis Set: AUG-CC-PVTZ
    Blend: AUG-CC-PVTZ
  Basis Set: (AUG-CC-PVTZ AUX)
    Blend: AUG-CC-PVTZ-JKFIT
	 Reference Energy          =    -457.4509700798443532 [Eh]
	 Singles Energy            =      -0.0000000000000000 [Eh]
	 Same-Spin Energy          =      -0.4632137292569832 [Eh]
	 Opposite-Spin Energy      =      -1.4691947090789899 [Eh]
	 Correlation Energy        =      -1.9324084383359730 [Eh]
	 Total Energy              =    -459.3833785181803364 [Eh]

	 ================> DF-SCS-MP2 Energies <==================
	-----------------------------------------------------------
	 SCS Same-Spin Scale       =       0.3333333333333333 [-]
	 SCS Opposite-Spin Scale   =       1.2000000000000000 [-]
	 SCS Same-Spin Energy      =      -0.1544045764189944 [Eh]
	 SCS Opposite-Spin Energy  =      -1.7630336508947877 [Eh]
	 SCS Correlation Energy    =      -1.9174382273137820 [Eh]
	 SCS Total Energy          =    -459.3684083071581199 [Eh]
	-----------------------------------------------------------

  Dipole Moment: [D]
     X:    -1.8882      Y:    -0.4050      Z:     0.0000     Total:     1.9311

*** Psi4 exiting successfully. Buy a developer a beer!
