                               Psi4 1.4a3.dev225

  ==> Input File <==

--------------------------------------------------------------------------
#psi4
#
memory 32 gb

molecule  {
0 1
  O       -2.3098380     0.0000000     0.0000530
  O        3.0303810     0.0000000    -0.0000560
  C       -0.3206930     1.2871930     0.0000000
  C       -0.3206930    -1.2871930     0.0000010
  C       -1.0903170     0.0000000     0.0000215
  C        1.0315930     1.2651910    -0.0000170
  C        1.0315930    -1.2651910    -0.0000160
  C        1.7909690     0.0000000    -0.0000320
  C       -1.1413450     2.5387140     0.0000150
  C       -1.1413450    -2.5387140     0.0000190
  H        1.6245090     2.1778770    -0.0000300
  H        1.6245090    -2.1778770    -0.0000270
  H       -1.7933300     2.5679320     0.8776520
  H       -1.7934040     2.5679060    -0.8775670
  H       -0.4992340     3.4225460    -0.0000240
  H       -0.4992350    -3.4225460    -0.0000280
  H       -1.7934120    -2.5679030    -0.8775580
  H       -1.7933230    -2.5679350     0.8776610
units angstrom
no_reorient  #important for SAPT in psi4, default
symmetry c1  #important for SAPT in psi4, default
}

set PROPERTIES_ORIGIN ["COM"]
properties('MP2/aug-cc-pvtz', properties = ['dipole'])
--------------------------------------------------------------------------

    Molecular point group: c1
  Charge       = 0
  Multiplicity = 1
  Basis Set: AUG-CC-PVTZ
    Blend: AUG-CC-PVTZ
  Basis Set: (AUG-CC-PVTZ AUX)
    Blend: AUG-CC-PVTZ-JKFIT

    Orbital Energies [Eh]
    ---------------------

    Doubly Occupied:

       1A    -20.579723     2A    -20.565485     3A    -11.360103
       4A    -11.352128     5A    -11.287077     6A    -11.287053
       7A    -11.269188     8A    -11.269165     9A    -11.243095
      10A    -11.243094    11A     -1.415626    12A     -1.387937
      13A     -1.158673    14A     -1.100928    15A     -1.006844
      16A     -0.964481    17A     -0.926720    18A     -0.821021
      19A     -0.807081    20A     -0.722359    21A     -0.699728
      22A     -0.655802    23A     -0.619573    24A     -0.615920
      25A     -0.606574    26A     -0.592367    27A     -0.589153
      28A     -0.574581    29A     -0.554147    30A     -0.551882
      31A     -0.550534    32A     -0.539401    33A     -0.457109
      34A     -0.433045    35A     -0.400088    36A     -0.383811

  @DF-RHF Final Energy:  -457.47365909020920

   => Energetics <=

    Nuclear Repulsion Energy =            490.5131812818067374
    One-Electron Energy =               -1594.7906863309979144
    Two-Electron Energy =                 646.8038459589819240
    Total Energy =                       -457.4736590902092530
  Basis Set: (AUG-CC-PVTZ AUX)
    Blend: AUG-CC-PVTZ-RI
    Molecular point group: c1

    Geometry (in Angstrom), charge = 0, multiplicity = 1:

       Center              X                  Y                   Z               Mass
    ------------   -----------------  -----------------  -----------------  -----------------
         O           -2.343947833791    -0.000000000000     0.000053517202    15.994914619570
         O            2.996271166209    -0.000000000000    -0.000055482798    15.994914619570
         C           -0.354802833791     1.287193000000     0.000000517202    12.000000000000
         C           -0.354802833791    -1.287193000000     0.000001517202    12.000000000000
         C           -1.124426833791    -0.000000000000     0.000022017202    12.000000000000
         C            0.997483166209     1.265191000000    -0.000016482798    12.000000000000
         C            0.997483166209    -1.265191000000    -0.000015482798    12.000000000000
         C            1.756859166209    -0.000000000000    -0.000031482798    12.000000000000
         C           -1.175454833791     2.538714000000     0.000015517202    12.000000000000
         C           -1.175454833791    -2.538714000000     0.000019517202    12.000000000000
         H            1.590399166209     2.177877000000    -0.000029482798     1.007825032230
         H            1.590399166209    -2.177877000000    -0.000026482798     1.007825032230
         H           -1.827439833791     2.567932000000     0.877652517202     1.007825032230
         H           -1.827513833791     2.567906000000    -0.877566482798     1.007825032230
         H           -0.533343833791     3.422546000000    -0.000023482798     1.007825032230
         H           -0.533344833791    -3.422546000000    -0.000027482798     1.007825032230
         H           -1.827521833791    -2.567903000000    -0.877557482798     1.007825032230
         H           -1.827432833791    -2.567935000000     0.877661517202     1.007825032230

  Basis Set: AUG-CC-PVTZ
    Blend: AUG-CC-PVTZ
  Basis Set: (AUG-CC-PVTZ AUX)
    Blend: AUG-CC-PVTZ-JKFIT
	 Reference Energy          =    -457.4736590902091962 [Eh]
	 Singles Energy            =      -0.0000000000000000 [Eh]
	 Same-Spin Energy          =      -0.4660653527524829 [Eh]
	 Opposite-Spin Energy      =      -1.4753598482690429 [Eh]
	 Correlation Energy        =      -1.9414252010215258 [Eh]
	 Total Energy              =    -459.4150842912306985 [Eh]

	 ================> DF-SCS-MP2 Energies <==================
	-----------------------------------------------------------
	 SCS Same-Spin Scale       =       0.3333333333333333 [-]
	 SCS Opposite-Spin Scale   =       1.2000000000000000 [-]
	 SCS Same-Spin Energy      =      -0.1553551175841610 [Eh]
	 SCS Opposite-Spin Energy  =      -1.7704318179228513 [Eh]
	 SCS Correlation Energy    =      -1.9257869355070123 [Eh]
	 SCS Total Energy          =    -459.3994460257162018 [Eh]
	-----------------------------------------------------------

  Dipole Moment: [D]
     X:    -1.2231      Y:    -0.0000      Z:     0.0000     Total:     1.2231

*** Psi4 exiting successfully. Buy a developer a beer!
