                               Psi4 1.4a3.dev225

  ==> Input File <==

--------------------------------------------------------------------------
#psi4
#
memory 32 gb

molecule  {
0 1
  O       -2.3098380     0.0000000     0.0000530
  O        3.0303810     0.0000000    -0.0000560
  C       -0.3206930     1.2871930     0.0000000
  C       -0.3206930    -1.2871930     0.0000010
  C       -1.0703170     0.0000000     0.0000210
  C        1.0315930     1.2651910    -0.0000170
  C        1.0315930    -1.2651910    -0.0000160
  C        1.8909690     0.0000000    -0.0000339
  C       -1.1413450     2.5387140     0.0000150
  C       -1.1413450    -2.5387140     0.0000190
  H        1.6245090     2.1778770    -0.0000300
  H        1.6245090    -2.1778770    -0.0000270
  H       -1.7933300     2.5679320     0.8776520
  H       -1.7934040     2.5679060    -0.8775670
  H       -0.4992340     3.4225460    -0.0000240
  H       -0.4992350    -3.4225460    -0.0000280
  H       -1.7934120    -2.5679030    -0.8775580
  H       -1.7933230    -2.5679350     0.8776610
units angstrom
no_reorient  #important for SAPT in psi4, default
symmetry c1  #important for SAPT in psi4, default
}

set PROPERTIES_ORIGIN ["COM"]
properties('MP2/aug-cc-pvtz', properties = ['dipole'])
--------------------------------------------------------------------------

    Molecular point group: c1
  Charge       = 0
  Multiplicity = 1
  Basis Set: AUG-CC-PVTZ
    Blend: AUG-CC-PVTZ
  Basis Set: (AUG-CC-PVTZ AUX)
    Blend: AUG-CC-PVTZ-JKFIT

    Orbital Energies [Eh]
    ---------------------

    Doubly Occupied:

       1A    -20.575724     2A    -20.571765     3A    -11.355251
       4A    -11.351502     5A    -11.281928     6A    -11.281903
       7A    -11.267060     8A    -11.267037     9A    -11.239765
      10A    -11.239764    11A     -1.463550    12A     -1.396320
      13A     -1.149825    14A     -1.095457    15A     -0.995964
      16A     -0.956290    17A     -0.923365    18A     -0.819156
      19A     -0.800907    20A     -0.723179    21A     -0.691221
      22A     -0.683117    23A     -0.618361    24A     -0.606773
      25A     -0.600285    26A     -0.595471    27A     -0.587105
      28A     -0.585399    29A     -0.582854    30A     -0.551363
      31A     -0.544986    32A     -0.531659    33A     -0.455812
      34A     -0.418255    35A     -0.403819    36A     -0.379215

  @DF-RHF Final Energy:  -457.46631626180954

   => Energetics <=

    Nuclear Repulsion Energy =            490.2606716042219546
    One-Electron Energy =               -1594.2711577758186650
    Two-Electron Energy =                 646.5441699097872288
    Total Energy =                       -457.4663162618095384
  Basis Set: (AUG-CC-PVTZ AUX)
    Blend: AUG-CC-PVTZ-RI
    Molecular point group: c1

    Geometry (in Angstrom), charge = 0, multiplicity = 1:

       Center              X                  Y                   Z               Mass
    ------------   -----------------  -----------------  -----------------  -----------------
         O           -2.354531988777    -0.000000000000     0.000053728885    15.994914619570
         O            2.985687011223    -0.000000000000    -0.000055271115    15.994914619570
         C           -0.365386988777     1.287193000000     0.000000728885    12.000000000000
         C           -0.365386988777    -1.287193000000     0.000001728885    12.000000000000
         C           -1.115010988777    -0.000000000000     0.000021728885    12.000000000000
         C            0.986899011223     1.265191000000    -0.000016271115    12.000000000000
         C            0.986899011223    -1.265191000000    -0.000015271115    12.000000000000
         C            1.846275011223    -0.000000000000    -0.000033171115    12.000000000000
         C           -1.186038988777     2.538714000000     0.000015728885    12.000000000000
         C           -1.186038988777    -2.538714000000     0.000019728885    12.000000000000
         H            1.579815011223     2.177877000000    -0.000029271115     1.007825032230
         H            1.579815011223    -2.177877000000    -0.000026271115     1.007825032230
         H           -1.838023988777     2.567932000000     0.877652728885     1.007825032230
         H           -1.838097988777     2.567906000000    -0.877566271115     1.007825032230
         H           -0.543927988777     3.422546000000    -0.000023271115     1.007825032230
         H           -0.543928988777    -3.422546000000    -0.000027271115     1.007825032230
         H           -1.838105988777    -2.567903000000    -0.877557271115     1.007825032230
         H           -1.838016988777    -2.567935000000     0.877661728885     1.007825032230

  Basis Set: AUG-CC-PVTZ
    Blend: AUG-CC-PVTZ
  Basis Set: (AUG-CC-PVTZ AUX)
    Blend: AUG-CC-PVTZ-JKFIT
	 Reference Energy          =    -457.4663162618095384 [Eh]
	 Singles Energy            =      -0.0000000000000000 [Eh]
	 Same-Spin Energy          =      -0.4633895644399924 [Eh]
	 Opposite-Spin Energy      =      -1.4703016357083485 [Eh]
	 Correlation Energy        =      -1.9336912001483408 [Eh]
	 Total Energy              =    -459.4000074619578982 [Eh]

	 ================> DF-SCS-MP2 Energies <==================
	-----------------------------------------------------------
	 SCS Same-Spin Scale       =       0.3333333333333333 [-]
	 SCS Opposite-Spin Scale   =       1.2000000000000000 [-]
	 SCS Same-Spin Energy      =      -0.1544631881466641 [Eh]
	 SCS Opposite-Spin Energy  =      -1.7643619628500182 [Eh]
	 SCS Correlation Energy    =      -1.9188251509966823 [Eh]
	 SCS Total Energy          =    -459.3851414128062061 [Eh]
	-----------------------------------------------------------

  Dipole Moment: [D]
     X:    -0.5464      Y:    -0.0000      Z:     0.0000     Total:     0.5464

*** Psi4 exiting successfully. Buy a developer a beer!
