                               Psi4 1.4a3.dev225

  ==> Input File <==

--------------------------------------------------------------------------
#psi4
#
memory 32 gb

molecule  {
0 1
  O       -2.3098380     0.0000000     0.0000530
  O        3.0303810     0.0000000    -0.0000560
  C       -0.3206930     1.2871930     0.0000000
  C       -0.3206930    -1.2871930     0.0000010
  C       -1.0803820     0.0172828     0.0000213
  C        1.0315930     1.2651910    -0.0000170
  C        1.0315930    -1.2651910    -0.0000160
  C        1.7909690     0.0000000    -0.0000320
  C       -1.1413450     2.5387140     0.0000150
  C       -1.1413450    -2.5387140     0.0000190
  H        1.6245090     2.1778770    -0.0000300
  H        1.6245090    -2.1778770    -0.0000270
  H       -1.7933300     2.5679320     0.8776520
  H       -1.7934040     2.5679060    -0.8775670
  H       -0.4992340     3.4225460    -0.0000240
  H       -0.4992350    -3.4225460    -0.0000280
  H       -1.7934120    -2.5679030    -0.8775580
  H       -1.7933230    -2.5679350     0.8776610
units angstrom
no_reorient  #important for SAPT in psi4, default
symmetry c1  #important for SAPT in psi4, default
}

set PROPERTIES_ORIGIN ["COM"]
properties('MP2/aug-cc-pvtz', properties = ['dipole'])
--------------------------------------------------------------------------

    Molecular point group: c1
  Charge       = 0
  Multiplicity = 1
  Basis Set: AUG-CC-PVTZ
    Blend: AUG-CC-PVTZ
  Basis Set: (AUG-CC-PVTZ AUX)
    Blend: AUG-CC-PVTZ-JKFIT

    Orbital Energies [Eh]
    ---------------------

    Doubly Occupied:

       1A    -20.578872     2A    -20.566199     3A    -11.360344
       4A    -11.352679     5A    -11.287739     6A    -11.286851
       7A    -11.271650     8A    -11.267893     9A    -11.243473
      10A    -11.243031    11A     -1.408747    12A     -1.388531
      13A     -1.159870    14A     -1.101570    15A     -1.007088
      16A     -0.964739    17A     -0.928385    18A     -0.822077
      19A     -0.807402    20A     -0.722176    21A     -0.698417
      22A     -0.655711    23A     -0.618985    24A     -0.614571
      25A     -0.607021    26A     -0.592952    27A     -0.589173
      28A     -0.574466    29A     -0.554522    30A     -0.551785
      31A     -0.549526    32A     -0.536371    33A     -0.457795
      34A     -0.434323    35A     -0.399974    36A     -0.384217

  @DF-RHF Final Energy:  -457.47246536005855

   => Energetics <=

    Nuclear Repulsion Energy =            490.5225868510744931
    One-Electron Energy =               -1594.8118575477881222
    Two-Electron Energy =                 646.8168053366550794
    Total Energy =                       -457.4724653600585498
  Basis Set: (AUG-CC-PVTZ AUX)
    Blend: AUG-CC-PVTZ-RI
    Molecular point group: c1

    Geometry (in Angstrom), charge = 0, multiplicity = 1:

       Center              X                  Y                   Z               Mass
    ------------   -----------------  -----------------  -----------------  -----------------
         O           -2.344824113623    -0.001524365282     0.000053534842    15.994914619570
         O            2.995394886377    -0.001524365282    -0.000055465158    15.994914619570
         C           -0.355679113623     1.285668634718     0.000000534842    12.000000000000
         C           -0.355679113623    -1.288717365282     0.000001534842    12.000000000000
         C           -1.115368113623     0.015758434718     0.000021834842    12.000000000000
         C            0.996606886377     1.263666634718    -0.000016465158    12.000000000000
         C            0.996606886377    -1.266715365282    -0.000015465158    12.000000000000
         C            1.755982886377    -0.001524365282    -0.000031465158    12.000000000000
         C           -1.176331113623     2.537189634718     0.000015534842    12.000000000000
         C           -1.176331113623    -2.540238365282     0.000019534842    12.000000000000
         H            1.589522886377     2.176352634718    -0.000029465158     1.007825032230
         H            1.589522886377    -2.179401365282    -0.000026465158     1.007825032230
         H           -1.828316113623     2.566407634718     0.877652534842     1.007825032230
         H           -1.828390113623     2.566381634718    -0.877566465158     1.007825032230
         H           -0.534220113623     3.421021634718    -0.000023465158     1.007825032230
         H           -0.534221113623    -3.424070365282    -0.000027465158     1.007825032230
         H           -1.828398113623    -2.569427365282    -0.877557465158     1.007825032230
         H           -1.828309113623    -2.569459365282     0.877661534842     1.007825032230

  Basis Set: AUG-CC-PVTZ
    Blend: AUG-CC-PVTZ
  Basis Set: (AUG-CC-PVTZ AUX)
    Blend: AUG-CC-PVTZ-JKFIT
	 Reference Energy          =    -457.4724653600585498 [Eh]
	 Singles Energy            =      -0.0000000000000000 [Eh]
	 Same-Spin Energy          =      -0.4664552634355441 [Eh]
	 Opposite-Spin Energy      =      -1.4761573137271213 [Eh]
	 Correlation Energy        =      -1.9426125771626654 [Eh]
	 Total Energy              =    -459.4150779372212128 [Eh]

	 ================> DF-SCS-MP2 Energies <==================
	-----------------------------------------------------------
	 SCS Same-Spin Scale       =       0.3333333333333333 [-]
	 SCS Opposite-Spin Scale   =       1.2000000000000000 [-]
	 SCS Same-Spin Energy      =      -0.1554850878118480 [Eh]
	 SCS Opposite-Spin Energy  =      -1.7713887764725456 [Eh]
	 SCS Correlation Energy    =      -1.9268738642843937 [Eh]
	 SCS Total Energy          =    -459.3993392243429525 [Eh]
	-----------------------------------------------------------

  Dipole Moment: [D]
     X:    -1.1765      Y:     0.0647      Z:     0.0000     Total:     1.1782

*** Psi4 exiting successfully. Buy a developer a beer!
