                               Psi4 1.4a3.dev225

  ==> Input File <==

--------------------------------------------------------------------------
#psi4
#
memory 32 gb

molecule  {
0 1
  O       -2.3098380     0.0000000     0.0000530
  O        3.0303810     0.0000000    -0.0000560
  C       -0.3206930     1.2871930     0.0000000
  C       -0.3206930    -1.2871930     0.0000010
  C       -1.0703170     0.0000000     0.0000210
  C        1.0315930     1.2651910    -0.0000170
  C        1.0315930    -1.2651910    -0.0000160
  C        1.7909690     0.0000000    -0.0000320
  C       -1.1413450     2.5387140     0.0000150
  C       -1.1413450    -2.5387140     0.0000190
  H        1.6245090     2.1778770    -0.0000300
  H        1.6245090    -2.1778770    -0.0000270
  H       -1.7933300     2.5679320     0.8776520
  H       -1.7934040     2.5679060    -0.8775670
  H       -0.5580107     3.3416430    -0.0000204
  H       -0.4992350    -3.4225460    -0.0000280
  H       -1.7934120    -2.5679030    -0.8775580
  H       -1.7933230    -2.5679350     0.8776610
units angstrom
no_reorient  #important for SAPT in psi4, default
symmetry c1  #important for SAPT in psi4, default
}

set PROPERTIES_ORIGIN ["COM"]
properties('MP2/aug-cc-pvtz', properties = ['dipole'])
--------------------------------------------------------------------------

    Molecular point group: c1
  Charge       = 0
  Multiplicity = 1
  Basis Set: AUG-CC-PVTZ
    Blend: AUG-CC-PVTZ
  Basis Set: (AUG-CC-PVTZ AUX)
    Blend: AUG-CC-PVTZ-JKFIT

    Orbital Energies [Eh]
    ---------------------

    Doubly Occupied:

       1A    -20.577598     2A    -20.566606     3A    -11.359899
       4A    -11.353062     5A    -11.287260     6A    -11.287038
       7A    -11.270072     8A    -11.270041     9A    -11.243169
      10A    -11.231299    11A     -1.401620    12A     -1.388834
      13A     -1.160866    14A     -1.103423    15A     -1.010371
      16A     -0.967812    17A     -0.931851    18A     -0.826112
      19A     -0.807807    20A     -0.722916    21A     -0.696938
      22A     -0.656128    23A     -0.617877    24A     -0.614879
      25A     -0.607676    26A     -0.601012    27A     -0.588598
      28A     -0.575242    29A     -0.559087    30A     -0.554598
      31A     -0.549952    32A     -0.532885    33A     -0.458438
      34A     -0.435327    35A     -0.399456    36A     -0.384477

  @DF-RHF Final Energy:  -457.46562713043659

   => Energetics <=

    Nuclear Repulsion Energy =            491.0133352385319654
    One-Electron Energy =               -1595.7574736828412370
    Two-Electron Energy =                 647.2785113138727411
    Total Energy =                       -457.4656271304365873
  Basis Set: (AUG-CC-PVTZ AUX)
    Blend: AUG-CC-PVTZ-RI
    Molecular point group: c1

    Geometry (in Angstrom), charge = 0, multiplicity = 1:

       Center              X                  Y                   Z               Mass
    ------------   -----------------  -----------------  -----------------  -----------------
         O           -2.345276464019     0.000599298880     0.000053534635    15.994914619570
         O            2.994942535981     0.000599298880    -0.000055465365    15.994914619570
         C           -0.356131464019     1.287792298880     0.000000534635    12.000000000000
         C           -0.356131464019    -1.286593701120     0.000001534635    12.000000000000
         C           -1.105755464019     0.000599298880     0.000021534635    12.000000000000
         C            0.996154535981     1.265790298880    -0.000016465365    12.000000000000
         C            0.996154535981    -1.264591701120    -0.000015465365    12.000000000000
         C            1.755530535981     0.000599298880    -0.000031465365    12.000000000000
         C           -1.176783464019     2.539313298880     0.000015534635    12.000000000000
         C           -1.176783464019    -2.538114701120     0.000019534635    12.000000000000
         H            1.589070535981     2.178476298880    -0.000029465365     1.007825032230
         H            1.589070535981    -2.177277701120    -0.000026465365     1.007825032230
         H           -1.828768464019     2.568531298880     0.877652534635     1.007825032230
         H           -1.828842464019     2.568505298880    -0.877566465365     1.007825032230
         H           -0.593449164019     3.342242298880    -0.000019865365     1.007825032230
         H           -0.534673464019    -3.421946701120    -0.000027465365     1.007825032230
         H           -1.828850464019    -2.567303701120    -0.877557465365     1.007825032230
         H           -1.828761464019    -2.567335701120     0.877661534635     1.007825032230

  Basis Set: AUG-CC-PVTZ
    Blend: AUG-CC-PVTZ
  Basis Set: (AUG-CC-PVTZ AUX)
    Blend: AUG-CC-PVTZ-JKFIT
	 Reference Energy          =    -457.4656271304365873 [Eh]
	 Singles Energy            =      -0.0000000000000000 [Eh]
	 Same-Spin Energy          =      -0.4668042018743831 [Eh]
	 Opposite-Spin Energy      =      -1.4763183902253996 [Eh]
	 Correlation Energy        =      -1.9431225920997828 [Eh]
	 Total Energy              =    -459.4087497225363563 [Eh]

	 ================> DF-SCS-MP2 Energies <==================
	-----------------------------------------------------------
	 SCS Same-Spin Scale       =       0.3333333333333333 [-]
	 SCS Opposite-Spin Scale   =       1.2000000000000000 [-]
	 SCS Same-Spin Energy      =      -0.1556014006247944 [Eh]
	 SCS Opposite-Spin Energy  =      -1.7715820682704795 [Eh]
	 SCS Correlation Energy    =      -1.9271834688952738 [Eh]
	 SCS Total Energy          =    -459.3928105993318809 [Eh]
	-----------------------------------------------------------

  Dipole Moment: [D]
     X:    -1.1259      Y:     0.0453      Z:     0.0000     Total:     1.1268

*** Psi4 exiting successfully. Buy a developer a beer!
