                               Psi4 1.4a3.dev225

  ==> Input File <==

--------------------------------------------------------------------------
#psi4
#
memory 32 gb

molecule  {
0 1
  O       -2.3098380     0.0000000     0.0000530
  O        3.0303810     0.0000000    -0.0000560
  C       -0.3206930     1.2871930     0.0000000
  C       -0.3206930    -1.2871930     0.0000010
  C       -1.0703170     0.0000000     0.0000210
  C        1.0315930     1.2651910    -0.0000170
  C        1.0315930    -1.2651910    -0.0000160
  C        1.9190575    -0.0863073    -0.0000345
  C       -1.1413450     2.5387140     0.0000150
  C       -1.1413450    -2.5387140     0.0000190
  H        1.6245090     2.1778770    -0.0000300
  H        1.6245090    -2.1778770    -0.0000270
  H       -1.7933300     2.5679320     0.8776520
  H       -1.7934040     2.5679060    -0.8775670
  H       -0.4992340     3.4225460    -0.0000240
  H       -0.4992350    -3.4225460    -0.0000280
  H       -1.7934120    -2.5679030    -0.8775580
  H       -1.7933230    -2.5679350     0.8776610
units angstrom
no_reorient  #important for SAPT in psi4, default
symmetry c1  #important for SAPT in psi4, default
}

set PROPERTIES_ORIGIN ["COM"]
properties('MP2/aug-cc-pvtz', properties = ['dipole'])
--------------------------------------------------------------------------

    Molecular point group: c1
  Charge       = 0
  Multiplicity = 1
  Basis Set: AUG-CC-PVTZ
    Blend: AUG-CC-PVTZ
  Basis Set: (AUG-CC-PVTZ AUX)
    Blend: AUG-CC-PVTZ-JKFIT

    Orbital Energies [Eh]
    ---------------------

    Doubly Occupied:

       1A    -20.579064     2A    -20.570049     3A    -11.353703
       4A    -11.352242     5A    -11.290429     6A    -11.270839
       7A    -11.267083     8A    -11.263166     9A    -11.243367
      10A    -11.234101    11A     -1.484668    12A     -1.394773
      13A     -1.148552    14A     -1.092691    15A     -0.997728
      16A     -0.951857    17A     -0.921626    18A     -0.820420
      19A     -0.797486    20A     -0.724563    21A     -0.695762
      22A     -0.685098    23A     -0.622806    24A     -0.605093
      25A     -0.599420    26A     -0.595786    27A     -0.595631
      28A     -0.584010    29A     -0.583771    30A     -0.552112
      31A     -0.542886    32A     -0.530497    33A     -0.453568
      34A     -0.408900    35A     -0.405104    36A     -0.376194

  @DF-RHF Final Energy:  -457.45125805573645

   => Energetics <=

    Nuclear Repulsion Energy =            490.2189316065466187
    One-Electron Energy =               -1594.1502814495356688
    Two-Electron Energy =                 646.4800917872526043
    Total Energy =                       -457.4512580557363890
  Basis Set: (AUG-CC-PVTZ AUX)
    Blend: AUG-CC-PVTZ-RI
    Molecular point group: c1

    Geometry (in Angstrom), charge = 0, multiplicity = 1:

       Center              X                  Y                   Z               Mass
    ------------   -----------------  -----------------  -----------------  -----------------
         O           -2.357009430755     0.007612415330     0.000053781806    15.994914619570
         O            2.983209569245     0.007612415330    -0.000055218194    15.994914619570
         C           -0.367864430755     1.294805415330     0.000000781806    12.000000000000
         C           -0.367864430755    -1.279580584670     0.000001781806    12.000000000000
         C           -1.117488430755     0.007612415330     0.000021781806    12.000000000000
         C            0.984421569245     1.272803415330    -0.000016218194    12.000000000000
         C            0.984421569245    -1.257578584670    -0.000015218194    12.000000000000
         C            1.871886069245    -0.078694884670    -0.000033718194    12.000000000000
         C           -1.188516430755     2.546326415330     0.000015781806    12.000000000000
         C           -1.188516430755    -2.531101584670     0.000019781806    12.000000000000
         H            1.577337569245     2.185489415330    -0.000029218194     1.007825032230
         H            1.577337569245    -2.170264584670    -0.000026218194     1.007825032230
         H           -1.840501430755     2.575544415330     0.877652781806     1.007825032230
         H           -1.840575430755     2.575518415330    -0.877566218194     1.007825032230
         H           -0.546405430755     3.430158415330    -0.000023218194     1.007825032230
         H           -0.546406430755    -3.414933584670    -0.000027218194     1.007825032230
         H           -1.840583430755    -2.560290584670    -0.877557218194     1.007825032230
         H           -1.840494430755    -2.560322584670     0.877661781806     1.007825032230

  Basis Set: AUG-CC-PVTZ
    Blend: AUG-CC-PVTZ
  Basis Set: (AUG-CC-PVTZ AUX)
    Blend: AUG-CC-PVTZ-JKFIT
	 Reference Energy          =    -457.4512580557364458 [Eh]
	 Singles Energy            =      -0.0000000000000000 [Eh]
	 Same-Spin Energy          =      -0.4630974716437678 [Eh]
	 Opposite-Spin Energy      =      -1.4696646204679296 [Eh]
	 Correlation Energy        =      -1.9327620921116972 [Eh]
	 Total Energy              =    -459.3840201478481617 [Eh]

	 ================> DF-SCS-MP2 Energies <==================
	-----------------------------------------------------------
	 SCS Same-Spin Scale       =       0.3333333333333333 [-]
	 SCS Opposite-Spin Scale   =       1.2000000000000000 [-]
	 SCS Same-Spin Energy      =      -0.1543658238812559 [Eh]
	 SCS Opposite-Spin Energy  =      -1.7635975445615155 [Eh]
	 SCS Correlation Energy    =      -1.9179633684427715 [Eh]
	 SCS Total Energy          =    -459.3692214241792158 [Eh]
	-----------------------------------------------------------

  Dipole Moment: [D]
     X:    -0.3370      Y:    -0.4591      Z:    -0.0000     Total:     0.5695

*** Psi4 exiting successfully. Buy a developer a beer!
