                               Psi4 1.4a3.dev225

  ==> Input File <==

--------------------------------------------------------------------------
#psi4
#
memory 32 gb

molecule  {
0 1
  O       -2.3098380     0.0000000     0.0000530
  O        3.0303810     0.0000000    -0.0000560
  C       -0.3206930     1.2871930     0.0000000
  C       -0.3206930    -1.2871930     0.0000010
  C       -1.0703170     0.0000000     0.0000210
  C        1.0315930     1.2651910    -0.0000170
  C        1.0315930    -1.2651910    -0.0000160
  C        1.6545606     0.0724456    -0.0000294
  C       -1.1413450     2.5387140     0.0000150
  C       -1.1413450    -2.5387140     0.0000190
  H        1.6245090     2.1778770    -0.0000300
  H        1.6245090    -2.1778770    -0.0000270
  H       -1.7933300     2.5679320     0.8776520
  H       -1.7934040     2.5679060    -0.8775670
  H       -0.4992340     3.4225460    -0.0000240
  H       -0.4992350    -3.4225460    -0.0000280
  H       -1.7934120    -2.5679030    -0.8775580
  H       -1.7933230    -2.5679350     0.8776610
units angstrom
no_reorient  #important for SAPT in psi4, default
symmetry c1  #important for SAPT in psi4, default
}

set PROPERTIES_ORIGIN ["COM"]
properties('MP2/aug-cc-pvtz', properties = ['dipole'])
--------------------------------------------------------------------------

    Molecular point group: c1
  Charge       = 0
  Multiplicity = 1
  Basis Set: AUG-CC-PVTZ
    Blend: AUG-CC-PVTZ
  Basis Set: (AUG-CC-PVTZ AUX)
    Blend: AUG-CC-PVTZ-JKFIT

    Orbital Energies [Eh]
    ---------------------

    Doubly Occupied:

       1A    -20.586765     2A    -20.552899     3A    -11.367508
       4A    -11.352683     5A    -11.304831     6A    -11.286044
       7A    -11.276745     8A    -11.267192     9A    -11.252230
      10A    -11.243861    11A     -1.409830    12A     -1.309555
      13A     -1.175926    14A     -1.111467    15A     -1.024955
      16A     -0.974879    17A     -0.936826    18A     -0.831458
      19A     -0.813384    20A     -0.726051    21A     -0.706443
      22A     -0.637013    23A     -0.624604    24A     -0.622593
      25A     -0.619893    26A     -0.593900    27A     -0.581239
      28A     -0.571642    29A     -0.554091    30A     -0.547144
      31A     -0.533896    32A     -0.521144    33A     -0.457845
      34A     -0.441950    35A     -0.390793    36A     -0.383132

  @DF-RHF Final Energy:  -457.42150911885011

   => Energetics <=

    Nuclear Repulsion Energy =            491.3948402736800176
    One-Electron Energy =               -1596.4478822629803290
    Two-Electron Energy =                 647.6315328704502008
    Total Energy =                       -457.4215091188500537
  Basis Set: (AUG-CC-PVTZ AUX)
    Blend: AUG-CC-PVTZ-RI
    Molecular point group: c1

    Geometry (in Angstrom), charge = 0, multiplicity = 1:

       Center              X                  Y                   Z               Mass
    ------------   -----------------  -----------------  -----------------  -----------------
         O           -2.333680462564    -0.006389795487     0.000053331979    15.994914619570
         O            3.006538537436    -0.006389795487    -0.000055668021    15.994914619570
         C           -0.344535462564     1.280803204513     0.000000331979    12.000000000000
         C           -0.344535462564    -1.293582795487     0.000001331979    12.000000000000
         C           -1.094159462564    -0.006389795487     0.000021331979    12.000000000000
         C            1.007750537436     1.258801204513    -0.000016668021    12.000000000000
         C            1.007750537436    -1.271580795487    -0.000015668021    12.000000000000
         C            1.630718137436     0.066055804513    -0.000029068021    12.000000000000
         C           -1.165187462564     2.532324204513     0.000015331979    12.000000000000
         C           -1.165187462564    -2.545103795487     0.000019331979    12.000000000000
         H            1.600666537436     2.171487204513    -0.000029668021     1.007825032230
         H            1.600666537436    -2.184266795487    -0.000026668021     1.007825032230
         H           -1.817172462564     2.561542204513     0.877652331979     1.007825032230
         H           -1.817246462564     2.561516204513    -0.877566668021     1.007825032230
         H           -0.523076462564     3.416156204513    -0.000023668021     1.007825032230
         H           -0.523077462564    -3.428935795487    -0.000027668021     1.007825032230
         H           -1.817254462564    -2.574292795487    -0.877557668021     1.007825032230
         H           -1.817165462564    -2.574324795487     0.877661331979     1.007825032230

  Basis Set: AUG-CC-PVTZ
    Blend: AUG-CC-PVTZ
  Basis Set: (AUG-CC-PVTZ AUX)
    Blend: AUG-CC-PVTZ-JKFIT
	 Reference Energy          =    -457.4215091188501106 [Eh]
	 Singles Energy            =      -0.0000000000000000 [Eh]
	 Same-Spin Energy          =      -0.4736221069961487 [Eh]
	 Opposite-Spin Energy      =      -1.4897229006777484 [Eh]
	 Correlation Energy        =      -1.9633450076738970 [Eh]
	 Total Energy              =    -459.3848541265240328 [Eh]

	 ================> DF-SCS-MP2 Energies <==================
	-----------------------------------------------------------
	 SCS Same-Spin Scale       =       0.3333333333333333 [-]
	 SCS Opposite-Spin Scale   =       1.2000000000000000 [-]
	 SCS Same-Spin Energy      =      -0.1578740356653829 [Eh]
	 SCS Opposite-Spin Energy  =      -1.7876674808132980 [Eh]
	 SCS Correlation Energy    =      -1.9455415164786809 [Eh]
	 SCS Total Energy          =    -459.3670506353287806 [Eh]
	-----------------------------------------------------------

  Dipole Moment: [D]
     X:    -1.3889      Y:     0.3028      Z:     0.0000     Total:     1.4215

*** Psi4 exiting successfully. Buy a developer a beer!
