                               Psi4 1.4a3.dev225

  ==> Input File <==

--------------------------------------------------------------------------
#psi4
#
memory 32 gb

molecule  {
0 1
  O       -2.3098380     0.0000000     0.0000530
  O        3.0303810     0.0000000    -0.0000560
  C       -0.3206930     1.2871930     0.0000000
  C       -0.3206930    -1.2871930     0.0000010
  C       -1.0703170     0.0000000     0.0000210
  C        1.0315930     1.2651910    -0.0000170
  C        1.0315930    -1.2651910    -0.0000160
  C        1.8129340    -0.0134456    -0.0000324
  C       -1.1413450     2.5387140     0.0000150
  C       -1.1413450    -2.5387140     0.0000190
  H        1.6245090     2.1778770    -0.0000300
  H        1.6245090    -2.1778770    -0.0000270
  H       -1.7933300     2.5679320     0.8776520
  H       -1.7934040     2.5679060    -0.8775670
  H       -0.4992340     3.4225460    -0.0000240
  H       -0.4992350    -3.4225460    -0.0000280
  H       -1.7934120    -2.5679030    -0.8775580
  H       -1.7933230    -2.5679350     0.8776610
units angstrom
no_reorient  #important for SAPT in psi4, default
symmetry c1  #important for SAPT in psi4, default
}

set PROPERTIES_ORIGIN ["COM"]
properties('MP2/aug-cc-pvtz', properties = ['dipole'])
--------------------------------------------------------------------------

    Molecular point group: c1
  Charge       = 0
  Multiplicity = 1
  Basis Set: AUG-CC-PVTZ
    Blend: AUG-CC-PVTZ
  Basis Set: (AUG-CC-PVTZ AUX)
    Blend: AUG-CC-PVTZ-JKFIT

    Orbital Energies [Eh]
    ---------------------

    Doubly Occupied:

       1A    -20.576676     2A    -20.568775     3A    -11.359445
       4A    -11.352919     5A    -11.287899     6A    -11.284874
       7A    -11.270037     8A    -11.269468     9A    -11.243349
      10A    -11.241978    11A     -1.404674    12A     -1.400368
      13A     -1.158502    14A     -1.100781    15A     -1.005036
      16A     -0.962978    17A     -0.928471    18A     -0.822310
      19A     -0.806399    20A     -0.721828    21A     -0.695657
      22A     -0.661359    23A     -0.617792    24A     -0.611722
      25A     -0.605231    26A     -0.594586    27A     -0.588428
      28A     -0.576006    29A     -0.560575    30A     -0.551651
      31A     -0.548174    32A     -0.533588    33A     -0.458375
      34A     -0.432471    35A     -0.401205    36A     -0.383560

  @DF-RHF Final Energy:  -457.47350827205008

   => Energetics <=

    Nuclear Repulsion Energy =            490.4451631580400885
    One-Electron Energy =               -1594.6630471639398365
    Two-Electron Energy =                 646.7443757338496653
    Total Energy =                       -457.4735082720501396
  Basis Set: (AUG-CC-PVTZ AUX)
    Blend: AUG-CC-PVTZ-RI
    Molecular point group: c1

    Geometry (in Angstrom), charge = 0, multiplicity = 1:

       Center              X                  Y                   Z               Mass
    ------------   -----------------  -----------------  -----------------  -----------------
         O           -2.347649200991     0.001185919286     0.000053596583    15.994914619570
         O            2.992569799009     0.001185919286    -0.000055403417    15.994914619570
         C           -0.358504200991     1.288378919286     0.000000596583    12.000000000000
         C           -0.358504200991    -1.286007080714     0.000001596583    12.000000000000
         C           -1.108128200991     0.001185919286     0.000021596583    12.000000000000
         C            0.993781799009     1.266376919286    -0.000016403417    12.000000000000
         C            0.993781799009    -1.264005080714    -0.000015403417    12.000000000000
         C            1.775122799009    -0.012259680714    -0.000031803417    12.000000000000
         C           -1.179156200991     2.539899919286     0.000015596583    12.000000000000
         C           -1.179156200991    -2.537528080714     0.000019596583    12.000000000000
         H            1.586697799009     2.179062919286    -0.000029403417     1.007825032230
         H            1.586697799009    -2.176691080714    -0.000026403417     1.007825032230
         H           -1.831141200991     2.569117919286     0.877652596583     1.007825032230
         H           -1.831215200991     2.569091919286    -0.877566403417     1.007825032230
         H           -0.537045200991     3.423731919286    -0.000023403417     1.007825032230
         H           -0.537046200991    -3.421360080714    -0.000027403417     1.007825032230
         H           -1.831223200991    -2.566717080714    -0.877557403417     1.007825032230
         H           -1.831134200991    -2.566749080714     0.877661596583     1.007825032230

  Basis Set: AUG-CC-PVTZ
    Blend: AUG-CC-PVTZ
  Basis Set: (AUG-CC-PVTZ AUX)
    Blend: AUG-CC-PVTZ-JKFIT
	 Reference Energy          =    -457.4735082720500827 [Eh]
	 Singles Energy            =      -0.0000000000000000 [Eh]
	 Same-Spin Energy          =      -0.4659787784978923 [Eh]
	 Opposite-Spin Energy      =      -1.4753040374571336 [Eh]
	 Correlation Energy        =      -1.9412828159550259 [Eh]
	 Total Energy              =    -459.4147910880051313 [Eh]

	 ================> DF-SCS-MP2 Energies <==================
	-----------------------------------------------------------
	 SCS Same-Spin Scale       =       0.3333333333333333 [-]
	 SCS Opposite-Spin Scale   =       1.2000000000000000 [-]
	 SCS Same-Spin Energy      =      -0.1553262594992974 [Eh]
	 SCS Opposite-Spin Energy  =      -1.7703648449485603 [Eh]
	 SCS Correlation Energy    =      -1.9256911044478577 [Eh]
	 SCS Total Energy          =    -459.3991993764979611 [Eh]
	-----------------------------------------------------------

  Dipole Moment: [D]
     X:    -1.0288      Y:    -0.0626      Z:     0.0000     Total:     1.0307

*** Psi4 exiting successfully. Buy a developer a beer!
