                               Psi4 1.3.2 release

  ==> Input File <==

--------------------------------------------------------------------------
#psi4
#
memory 32 gb

molecule  {
0 1
  O       -1.9188471     0.0130163    -0.0452346
  O        1.6373540    -0.6495170    -0.0243010
  O        0.5013320     1.3172450     0.0146240
  C       -0.7376620    -0.7515420     0.0398980
  C        0.5122950     0.0966670     0.0022440
  H       -0.7208860    -1.3357450     0.9707590
  H       -0.7086820    -1.4630600    -0.7928450
  H       -1.5835860     0.9744290     0.0563990
  H        2.3862870    -0.0178550    -0.0276700
units angstrom
no_reorient  #important for SAPT in psi4, default
symmetry c1  #important for SAPT in psi4, default
}

set PROPERTIES_ORIGIN ["COM"]
properties('MP2/aug-cc-pvtz', properties = ['dipole'])
--------------------------------------------------------------------------

    Molecular point group: c1
  Charge       = 0
  Multiplicity = 1
  Basis Set: AUG-CC-PVTZ
    Blend: AUG-CC-PVTZ
  Basis Set: (AUG-CC-PVTZ AUX)
    Blend: AUG-CC-PVTZ-JKFIT

    Orbital Energies [Eh]
    ---------------------

    Doubly Occupied:

       1A    -20.639484     2A    -20.576685     3A    -20.575872
       4A    -11.411730     5A    -11.309908     6A     -1.485277
       7A     -1.388635     8A     -1.360946     9A     -1.006929
      10A     -0.832794    11A     -0.740951    12A     -0.728402
      13A     -0.685828    14A     -0.640370    15A     -0.614623
      16A     -0.609854    17A     -0.545599    18A     -0.506770
      19A     -0.481359    20A     -0.465389

  @DF-RHF Final Energy:  -302.78025360561151

   => Energetics <=

    Nuclear Repulsion Energy =            178.6237218377446823
    One-Electron Energy =                -769.5931413781672745
    Two-Electron Energy =                 288.1891659348110579
    Total Energy =                       -302.7802536056115059
  Basis Set: (AUG-CC-PVTZ AUX)
    Blend: AUG-CC-PVTZ-RI
    Molecular point group: c1

    Geometry (in Angstrom), charge = 0, multiplicity = 1:

       Center              X                  Y                   Z               Mass
    ------------   -----------------  -----------------  -----------------  -----------------
         O           -1.921216707410    -0.002418605288    -0.043072656851    15.994914619570
         O            1.634984392590    -0.664951905288    -0.022139056851    15.994914619570
         O            0.498962392590     1.301810094712     0.016785943149    15.994914619570
         C           -0.740031607410    -0.766976905288     0.042059943149    12.000000000000
         C            0.509925392590     0.081232094712     0.004405943149    12.000000000000
         H           -0.723255607410    -1.351179905288     0.972920943149     1.007825032230
         H           -0.711051607410    -1.478494905288    -0.790683056851     1.007825032230
         H           -1.585955607410     0.958994094712     0.058560943149     1.007825032230
         H            2.383917392590    -0.033289905288    -0.025508056851     1.007825032230

  Basis Set: AUG-CC-PVTZ
    Blend: AUG-CC-PVTZ
  Basis Set: (AUG-CC-PVTZ AUX)
    Blend: AUG-CC-PVTZ-JKFIT
	 Reference Energy          =    -302.7802536056115059 [Eh]
	 Singles Energy            =      -0.0000000000000000 [Eh]
	 Same-Spin Energy          =      -0.2843679293624028 [Eh]
	 Opposite-Spin Energy      =      -0.8580947217364534 [Eh]
	 Correlation Energy        =      -1.1424626510988563 [Eh]
	 Total Energy              =    -303.9227162567103733 [Eh]

	 ================> DF-SCS-MP2 Energies <==================
	-----------------------------------------------------------
	 SCS Same-Spin Scale       =       0.3333333333333333 [-]
	 SCS Opposite-Spin Scale   =       1.2000000000000000 [-]
	 SCS Same-Spin Energy      =      -0.0947893097874676 [Eh]
	 SCS Opposite-Spin Energy  =      -1.0297136660837440 [Eh]
	 SCS Correlation Energy    =      -1.1245029758712117 [Eh]
	 SCS Total Energy          =    -303.9047565814827294 [Eh]
	-----------------------------------------------------------

  Dipole Moment: [D]
     X:     2.1401      Y:    -0.9011      Z:     0.2146     Total:     2.3320

*** Psi4 exiting successfully. Buy a developer a beer!
