                               Psi4 1.3.2 release

  ==> Input File <==

--------------------------------------------------------------------------
#psi4
#
memory 32 gb

molecule  {
0 1
  O       -1.8913020     0.0537070    -0.0477600
  O        1.6373540    -0.6495170    -0.0243010
  O        0.5013320     1.3172450     0.0146240
  C       -0.7376620    -0.7515420     0.0398980
  C        0.5122950     0.0966670     0.0022440
  H       -0.7208860    -1.3357450     0.9707590
  H       -0.7086820    -1.4630600    -0.7928450
  H       -1.5835860     0.9744290     0.0563990
  H        2.3862870    -0.0178550    -0.0276700
units angstrom
no_reorient  #important for SAPT in psi4, default
symmetry c1  #important for SAPT in psi4, default
}

set PROPERTIES_ORIGIN ["COM"]
properties('MP2/aug-cc-pvtz', properties = ['dipole'])
--------------------------------------------------------------------------

    Molecular point group: c1
  Charge       = 0
  Multiplicity = 1
  Basis Set: AUG-CC-PVTZ
    Blend: AUG-CC-PVTZ
  Basis Set: (AUG-CC-PVTZ AUX)
    Blend: AUG-CC-PVTZ-JKFIT

    Orbital Energies [Eh]
    ---------------------

    Doubly Occupied:

       1A    -20.638492     2A    -20.575281     3A    -20.571205
       4A    -11.410362     5A    -11.311138     6A     -1.484463
       7A     -1.390717     8A     -1.365253     9A     -1.009300
      10A     -0.835344    11A     -0.742923    12A     -0.727787
      13A     -0.685997    14A     -0.647482    15A     -0.614078
      16A     -0.612698    17A     -0.544708    18A     -0.505463
      19A     -0.480612    20A     -0.467155

  @DF-RHF Final Energy:  -302.78540793573364

   => Energetics <=

    Nuclear Repulsion Energy =            179.1755075231377248
    One-Electron Energy =                -770.6809130900915079
    Two-Electron Energy =                 288.7199976312201102
    Total Energy =                       -302.7854079357336445
  Basis Set: (AUG-CC-PVTZ AUX)
    Blend: AUG-CC-PVTZ-RI
    Molecular point group: c1

    Geometry (in Angstrom), charge = 0, multiplicity = 1:

       Center              X                  Y                   Z               Mass
    ------------   -----------------  -----------------  -----------------  -----------------
         O           -1.899467509164     0.029710161755    -0.045066674853    15.994914619570
         O            1.629188490836    -0.673513838245    -0.021607674853    15.994914619570
         O            0.493166490836     1.293248161755     0.017317325147    15.994914619570
         C           -0.745827509164    -0.775538838245     0.042591325147    12.000000000000
         C            0.504129490836     0.072670161755     0.004937325147    12.000000000000
         H           -0.729051509164    -1.359741838245     0.973452325147     1.007825032230
         H           -0.716847509164    -1.487056838245    -0.790151674853     1.007825032230
         H           -1.591751509164     0.950432161755     0.059092325147     1.007825032230
         H            2.378121490836    -0.041851838245    -0.024976674853     1.007825032230

  Basis Set: AUG-CC-PVTZ
    Blend: AUG-CC-PVTZ
  Basis Set: (AUG-CC-PVTZ AUX)
    Blend: AUG-CC-PVTZ-JKFIT
	 Reference Energy          =    -302.7854079357336445 [Eh]
	 Singles Energy            =      -0.0000000000000000 [Eh]
	 Same-Spin Energy          =      -0.2836826459282898 [Eh]
	 Opposite-Spin Energy      =      -0.8564427038037272 [Eh]
	 Correlation Energy        =      -1.1401253497320170 [Eh]
	 Total Energy              =    -303.9255332854656899 [Eh]

	 ================> DF-SCS-MP2 Energies <==================
	-----------------------------------------------------------
	 SCS Same-Spin Scale       =       0.3333333333333333 [-]
	 SCS Opposite-Spin Scale   =       1.2000000000000000 [-]
	 SCS Same-Spin Energy      =      -0.0945608819760966 [Eh]
	 SCS Opposite-Spin Energy  =      -1.0277312445644726 [Eh]
	 SCS Correlation Energy    =      -1.1222921265405692 [Eh]
	 SCS Total Energy          =    -303.9077000622742162 [Eh]
	-----------------------------------------------------------

  Dipole Moment: [D]
     X:     2.0862      Y:    -0.9762      Z:     0.2254     Total:     2.3143

*** Psi4 exiting successfully. Buy a developer a beer!
