                               Psi4 1.3.2 release

  ==> Input File <==

--------------------------------------------------------------------------
#psi4
#
memory 32 gb

molecule  {
0 1
  O       -1.8623514     0.0934167    -0.0501787
  O        1.6373540    -0.6495170    -0.0243010
  O        0.5013320     1.3172450     0.0146240
  C       -0.7376620    -0.7515420     0.0398980
  C        0.5122950     0.0966670     0.0022440
  H       -0.7208860    -1.3357450     0.9707590
  H       -0.7086820    -1.4630600    -0.7928450
  H       -1.5835860     0.9744290     0.0563990
  H        2.3862870    -0.0178550    -0.0276700
units angstrom
no_reorient  #important for SAPT in psi4, default
symmetry c1  #important for SAPT in psi4, default
}

set PROPERTIES_ORIGIN ["COM"]
properties('MP2/aug-cc-pvtz', properties = ['dipole'])
--------------------------------------------------------------------------

    Molecular point group: c1
  Charge       = 0
  Multiplicity = 1
  Basis Set: AUG-CC-PVTZ
    Blend: AUG-CC-PVTZ
  Basis Set: (AUG-CC-PVTZ AUX)
    Blend: AUG-CC-PVTZ-JKFIT

    Orbital Energies [Eh]
    ---------------------

    Doubly Occupied:

       1A    -20.637485     2A    -20.573859     3A    -20.566007
       4A    -11.408985     5A    -11.312624     6A     -1.483698
       7A     -1.394873     8A     -1.368470     9A     -1.012339
      10A     -0.838394    11A     -0.745030    12A     -0.727179
      13A     -0.686406    14A     -0.655884    15A     -0.614432
      16A     -0.613401    17A     -0.542555    18A     -0.504154
      19A     -0.479880    20A     -0.468893

  @DF-RHF Final Energy:  -302.78588444108465

   => Energetics <=

    Nuclear Repulsion Energy =            179.7639154762739793
    One-Electron Energy =                -771.8305047428074204
    Two-Electron Energy =                 289.2807048254488222
    Total Energy =                       -302.7858844410846473
  Basis Set: (AUG-CC-PVTZ AUX)
    Blend: AUG-CC-PVTZ-RI
    Molecular point group: c1

    Geometry (in Angstrom), charge = 0, multiplicity = 1:

       Center              X                  Y                   Z               Mass
    ------------   -----------------  -----------------  -----------------  -----------------
         O           -1.876608549177     0.061064345896    -0.046976444133    15.994914619570
         O            1.623096850823    -0.681869354104    -0.021098744133    15.994914619570
         O            0.487074850823     1.284892645896     0.017826255867    15.994914619570
         C           -0.751919149177    -0.783894354104     0.043100255867    12.000000000000
         C            0.498037850823     0.064314645896     0.005446255867    12.000000000000
         H           -0.735143149177    -1.368097354104     0.973961255867     1.007825032230
         H           -0.722939149177    -1.495412354104    -0.789642744133     1.007825032230
         H           -1.597843149177     0.942076645896     0.059601255867     1.007825032230
         H            2.372029850823    -0.050207354104    -0.024467744133     1.007825032230

  Basis Set: AUG-CC-PVTZ
    Blend: AUG-CC-PVTZ
  Basis Set: (AUG-CC-PVTZ AUX)
    Blend: AUG-CC-PVTZ-JKFIT
	 Reference Energy          =    -302.7858844410846473 [Eh]
	 Singles Energy            =      -0.0000000000000000 [Eh]
	 Same-Spin Energy          =      -0.2830510340738606 [Eh]
	 Opposite-Spin Energy      =      -0.8549562845506501 [Eh]
	 Correlation Energy        =      -1.1380073186245108 [Eh]
	 Total Energy              =    -303.9238917597091358 [Eh]

	 ================> DF-SCS-MP2 Energies <==================
	-----------------------------------------------------------
	 SCS Same-Spin Scale       =       0.3333333333333333 [-]
	 SCS Opposite-Spin Scale   =       1.2000000000000000 [-]
	 SCS Same-Spin Energy      =      -0.0943503446912868 [Eh]
	 SCS Opposite-Spin Energy  =      -1.0259475414607802 [Eh]
	 SCS Correlation Energy    =      -1.1202978861520669 [Eh]
	 SCS Total Energy          =    -303.9061823272367064 [Eh]
	-----------------------------------------------------------

  Dipole Moment: [D]
     X:     2.0319      Y:    -1.0548      Z:     0.2367     Total:     2.3016

*** Psi4 exiting successfully. Buy a developer a beer!
