                               Psi4 1.3.2 release

  ==> Input File <==

--------------------------------------------------------------------------
#psi4
#
memory 32 gb

molecule  {
0 1
  O       -1.9052524     0.0334812    -0.0465104
  O        1.6373540    -0.6495170    -0.0243010
  O        0.5013320     1.3172450     0.0146240
  C       -0.7376620    -0.7515420     0.0398980
  C        0.5122950     0.0966670     0.0022440
  H       -0.7208860    -1.3357450     0.9707590
  H       -0.7086820    -1.4630600    -0.7928450
  H       -1.5835860     0.9744290     0.0563990
  H        2.3862870    -0.0178550    -0.0276700
units angstrom
no_reorient  #important for SAPT in psi4, default
symmetry c1  #important for SAPT in psi4, default
}

set PROPERTIES_ORIGIN ["COM"]
properties('MP2/aug-cc-pvtz', properties = ['dipole'])
--------------------------------------------------------------------------

    Molecular point group: c1
  Charge       = 0
  Multiplicity = 1
  Basis Set: AUG-CC-PVTZ
    Blend: AUG-CC-PVTZ
  Basis Set: (AUG-CC-PVTZ AUX)
    Blend: AUG-CC-PVTZ-JKFIT

    Orbital Energies [Eh]
    ---------------------

    Doubly Occupied:

       1A    -20.638990     2A    -20.575985     3A    -20.573605
       4A    -11.411047     5A    -11.310493     6A     -1.484865
       7A     -1.389462     8A     -1.363193     9A     -1.008038
      10A     -0.834007    11A     -0.741916    12A     -0.728096
      13A     -0.685888    14A     -0.643707    15A     -0.614339
      16A     -0.611457    17A     -0.545328    18A     -0.506118
      19A     -0.480988    20A     -0.466271

  @DF-RHF Final Energy:  -302.78334477521099

   => Energetics <=

    Nuclear Repulsion Energy =            178.8951624336383759
    One-Electron Energy =                -770.1294243869720049
    Two-Electron Energy =                 288.4509171781226655
    Total Energy =                       -302.7833447752109919
  Basis Set: (AUG-CC-PVTZ AUX)
    Blend: AUG-CC-PVTZ-RI
    Molecular point group: c1

    Geometry (in Angstrom), charge = 0, multiplicity = 1:

       Center              X                  Y                   Z               Mass
    ------------   -----------------  -----------------  -----------------  -----------------
         O           -1.910482535982     0.013740173122    -0.044080009416    15.994914619570
         O            1.632123864018    -0.669258026878    -0.021870609416    15.994914619570
         O            0.496101864018     1.297503973122     0.017054390584    15.994914619570
         C           -0.742892135982    -0.771283026878     0.042328390584    12.000000000000
         C            0.507064864018     0.076925973122     0.004674390584    12.000000000000
         H           -0.726116135982    -1.355486026878     0.973189390584     1.007825032230
         H           -0.713912135982    -1.482801026878    -0.790414609416     1.007825032230
         H           -1.588816135982     0.954687973122     0.058829390584     1.007825032230
         H            2.381056864018    -0.037596026878    -0.025239609416     1.007825032230

  Basis Set: AUG-CC-PVTZ
    Blend: AUG-CC-PVTZ
  Basis Set: (AUG-CC-PVTZ AUX)
    Blend: AUG-CC-PVTZ-JKFIT
	 Reference Energy          =    -302.7833447752109919 [Eh]
	 Singles Energy            =      -0.0000000000000000 [Eh]
	 Same-Spin Energy          =      -0.2840194585520048 [Eh]
	 Opposite-Spin Energy      =      -0.8572487807266685 [Eh]
	 Correlation Energy        =      -1.1412682392786735 [Eh]
	 Total Energy              =    -303.9246130144896370 [Eh]

	 ================> DF-SCS-MP2 Energies <==================
	-----------------------------------------------------------
	 SCS Same-Spin Scale       =       0.3333333333333333 [-]
	 SCS Opposite-Spin Scale   =       1.2000000000000000 [-]
	 SCS Same-Spin Energy      =      -0.0946731528506683 [Eh]
	 SCS Opposite-Spin Energy  =      -1.0286985368720023 [Eh]
	 SCS Correlation Energy    =      -1.1233716897226707 [Eh]
	 SCS Total Energy          =    -303.9067164649336519 [Eh]
	-----------------------------------------------------------

  Dipole Moment: [D]
     X:     2.1132      Y:    -0.9382      Z:     0.2199     Total:     2.3226

*** Psi4 exiting successfully. Buy a developer a beer!
