                               Psi4 1.3.2 release

  ==> Input File <==

--------------------------------------------------------------------------
#psi4
#
memory 32 gb

molecule  {
0 1
  O       -1.8320305     0.1320969    -0.0524876
  O        1.6373540    -0.6495170    -0.0243010
  O        0.5013320     1.3172450     0.0146240
  C       -0.7376620    -0.7515420     0.0398980
  C        0.5122950     0.0966670     0.0022440
  H       -0.7208860    -1.3357450     0.9707590
  H       -0.7086820    -1.4630600    -0.7928450
  H       -1.5835860     0.9744290     0.0563990
  H        2.3862870    -0.0178550    -0.0276700
units angstrom
no_reorient  #important for SAPT in psi4, default
symmetry c1  #important for SAPT in psi4, default
}

set PROPERTIES_ORIGIN ["COM"]
properties('MP2/aug-cc-pvtz', properties = ['dipole'])
--------------------------------------------------------------------------

    Molecular point group: c1
  Charge       = 0
  Multiplicity = 1
  Basis Set: AUG-CC-PVTZ
    Blend: AUG-CC-PVTZ
  Basis Set: (AUG-CC-PVTZ AUX)
    Blend: AUG-CC-PVTZ-JKFIT

    Orbital Energies [Eh]
    ---------------------

    Doubly Occupied:

       1A    -20.636464     2A    -20.572415     3A    -20.560285
       4A    -11.407603     5A    -11.314389     6A     -1.483013
       7A     -1.401444     8A     -1.370262     9A     -1.016154
      10A     -0.841916    11A     -0.747220    12A     -0.726624
      13A     -0.687210    14A     -0.664545    15A     -0.615099
      16A     -0.612886    17A     -0.539353    18A     -0.502852
      19A     -0.479257    20A     -0.470499

  @DF-RHF Final Energy:  -302.78042255698529

   => Energetics <=

    Nuclear Repulsion Energy =            180.3909160761140242
    One-Electron Energy =                -773.0436975239481399
    Two-Electron Energy =                 289.8723588908487727
    Total Energy =                       -302.7804225569852861
  Basis Set: (AUG-CC-PVTZ AUX)
    Blend: AUG-CC-PVTZ-RI
    Molecular point group: c1

    Geometry (in Angstrom), charge = 0, multiplicity = 1:

       Center              X                  Y                   Z               Mass
    ------------   -----------------  -----------------  -----------------  -----------------
         O           -1.852667620841     0.091605652262    -0.048799516978    15.994914619570
         O            1.616716879159    -0.690008247738    -0.020612916978    15.994914619570
         O            0.480694879159     1.276753752262     0.018312083022    15.994914619570
         C           -0.758299120841    -0.792033247738     0.043586083022    12.000000000000
         C            0.491657879159     0.056175752262     0.005932083022    12.000000000000
         H           -0.741523120841    -1.376236247738     0.974447083022     1.007825032230
         H           -0.729319120841    -1.503551247738    -0.789156916978     1.007825032230
         H           -1.604223120841     0.933937752262     0.060087083022     1.007825032230
         H            2.365649879159    -0.058346247738    -0.023981916978     1.007825032230

  Basis Set: AUG-CC-PVTZ
    Blend: AUG-CC-PVTZ
  Basis Set: (AUG-CC-PVTZ AUX)
    Blend: AUG-CC-PVTZ-JKFIT
	 Reference Energy          =    -302.7804225569852861 [Eh]
	 Singles Energy            =      -0.0000000000000000 [Eh]
	 Same-Spin Energy          =      -0.2824887272779600 [Eh]
	 Opposite-Spin Energy      =      -0.8536475393244858 [Eh]
	 Correlation Energy        =      -1.1361362666024459 [Eh]
	 Total Energy              =    -303.9165588235877067 [Eh]

	 ================> DF-SCS-MP2 Energies <==================
	-----------------------------------------------------------
	 SCS Same-Spin Scale       =       0.3333333333333333 [-]
	 SCS Opposite-Spin Scale   =       1.2000000000000000 [-]
	 SCS Same-Spin Energy      =      -0.0941629090926533 [Eh]
	 SCS Opposite-Spin Energy  =      -1.0243770471893829 [Eh]
	 SCS Correlation Energy    =      -1.1185399562820364 [Eh]
	 SCS Total Energy          =    -303.8989625132673496 [Eh]
	-----------------------------------------------------------

  Dipole Moment: [D]
     X:     1.9769      Y:    -1.1368      Z:     0.2485     Total:     2.2940

*** Psi4 exiting successfully. Buy a developer a beer!
