                               Psi4 1.3.2 release

  ==> Input File <==

--------------------------------------------------------------------------
#psi4
#
memory 32 gb

molecule  {
0 1
  O       -1.9449531    -0.0286060    -0.0426054
  O        1.6373540    -0.6495170    -0.0243010
  O        0.5013320     1.3172450     0.0146240
  C       -0.7376620    -0.7515420     0.0398980
  C        0.5122950     0.0966670     0.0022440
  H       -0.7208860    -1.3357450     0.9707590
  H       -0.7086820    -1.4630600    -0.7928450
  H       -1.5835860     0.9744290     0.0563990
  H        2.3862870    -0.0178550    -0.0276700
units angstrom
no_reorient  #important for SAPT in psi4, default
symmetry c1  #important for SAPT in psi4, default
}

set PROPERTIES_ORIGIN ["COM"]
properties('MP2/aug-cc-pvtz', properties = ['dipole'])
--------------------------------------------------------------------------

    Molecular point group: c1
  Charge       = 0
  Multiplicity = 1
  Basis Set: AUG-CC-PVTZ
    Blend: AUG-CC-PVTZ
  Basis Set: (AUG-CC-PVTZ AUX)
    Blend: AUG-CC-PVTZ-JKFIT

    Orbital Energies [Eh]
    ---------------------

    Doubly Occupied:

       1A    -20.640458     2A    -20.580019     3A    -20.578072
       4A    -11.413084     5A    -11.308910     6A     -1.486120
       7A     -1.387880     8A     -1.356248     9A     -1.005120
      10A     -0.830725    11A     -0.739180    12A     -0.728974
      13A     -0.685824    14A     -0.635226    15A     -0.615222
      16A     -0.605717    17A     -0.544926    18A     -0.508068
      19A     -0.482051    20A     -0.463652

  @DF-RHF Final Energy:  -302.77147774232401

   => Energetics <=

    Nuclear Repulsion Energy =            178.1065447823155807
    One-Electron Energy =                -768.5650921816077243
    Two-Electron Energy =                 287.6870696569681058
    Total Energy =                       -302.7714777423240093
  Basis Set: (AUG-CC-PVTZ AUX)
    Blend: AUG-CC-PVTZ-RI
    Molecular point group: c1

    Geometry (in Angstrom), charge = 0, multiplicity = 1:

       Center              X                  Y                   Z               Mass
    ------------   -----------------  -----------------  -----------------  -----------------
         O           -1.941829613858    -0.035282949732    -0.040996679925    15.994914619570
         O            1.640477486142    -0.656193949732    -0.022692279925    15.994914619570
         O            0.504455486142     1.310568050268     0.016232720075    15.994914619570
         C           -0.734538513858    -0.758218949732     0.041506720075    12.000000000000
         C            0.515418486142     0.089990050268     0.003852720075    12.000000000000
         H           -0.717762513858    -1.342421949732     0.972367720075     1.007825032230
         H           -0.705558513858    -1.469736949732    -0.791236279925     1.007825032230
         H           -1.580462513858     0.967752050268     0.058007720075     1.007825032230
         H            2.389410486142    -0.024531949732    -0.026061279925     1.007825032230

  Basis Set: AUG-CC-PVTZ
    Blend: AUG-CC-PVTZ
  Basis Set: (AUG-CC-PVTZ AUX)
    Blend: AUG-CC-PVTZ-JKFIT
	 Reference Energy          =    -302.7714777423240093 [Eh]
	 Singles Energy            =      -0.0000000000000000 [Eh]
	 Same-Spin Energy          =      -0.2850940984452406 [Eh]
	 Opposite-Spin Energy      =      -0.8598993881518771 [Eh]
	 Correlation Energy        =      -1.1449934865971176 [Eh]
	 Total Energy              =    -303.9164712289211252 [Eh]

	 ================> DF-SCS-MP2 Energies <==================
	-----------------------------------------------------------
	 SCS Same-Spin Scale       =       0.3333333333333333 [-]
	 SCS Opposite-Spin Scale   =       1.2000000000000000 [-]
	 SCS Same-Spin Energy      =      -0.0950313661484135 [Eh]
	 SCS Opposite-Spin Energy  =      -1.0318792657822524 [Eh]
	 SCS Correlation Energy    =      -1.1269106319306659 [Eh]
	 SCS Total Energy          =    -303.8983883742546936 [Eh]
	-----------------------------------------------------------

  Dipole Moment: [D]
     X:     2.1936      Y:    -0.8292      Z:     0.2041     Total:     2.3539

*** Psi4 exiting successfully. Buy a developer a beer!
