                               Psi4 1.3.2 release

  ==> Input File <==

--------------------------------------------------------------------------
#psi4
#
memory 32 gb

molecule  {
0 1
  O       -1.8770002     0.0736875    -0.0489829
  O        1.6373540    -0.6495170    -0.0243010
  O        0.5013320     1.3172450     0.0146240
  C       -0.7376620    -0.7515420     0.0398980
  C        0.5122950     0.0966670     0.0022440
  H       -0.7208860    -1.3357450     0.9707590
  H       -0.7086820    -1.4630600    -0.7928450
  H       -1.5835860     0.9744290     0.0563990
  H        2.3862870    -0.0178550    -0.0276700
units angstrom
no_reorient  #important for SAPT in psi4, default
symmetry c1  #important for SAPT in psi4, default
}

set PROPERTIES_ORIGIN ["COM"]
properties('MP2/aug-cc-pvtz', properties = ['dipole'])
--------------------------------------------------------------------------

    Molecular point group: c1
  Charge       = 0
  Multiplicity = 1
  Basis Set: AUG-CC-PVTZ
    Blend: AUG-CC-PVTZ
  Basis Set: (AUG-CC-PVTZ AUX)
    Blend: AUG-CC-PVTZ-JKFIT

    Orbital Energies [Eh]
    ---------------------

    Doubly Occupied:

       1A    -20.637991     2A    -20.574573     3A    -20.568673
       4A    -11.409674     5A    -11.311847     6A     -1.484073
       7A     -1.392497     8A     -1.367035     9A     -1.010729
      10A     -0.836807    11A     -0.743963    12A     -0.727479
      13A     -0.686164    14A     -0.651584    15A     -0.613975
      16A     -0.613465    17A     -0.543774    18A     -0.504809
      19A     -0.480240    20A     -0.468033

  @DF-RHF Final Energy:  -302.78630487375193

   => Energetics <=

    Nuclear Repulsion Energy =            179.4650088986689127
    One-Electron Energy =                -771.2478619240773696
    Two-Electron Energy =                 288.9965481516565546
    Total Energy =                       -302.7863048737519307
  Basis Set: (AUG-CC-PVTZ AUX)
    Blend: AUG-CC-PVTZ-RI
    Molecular point group: c1

    Geometry (in Angstrom), charge = 0, multiplicity = 1:

       Center              X                  Y                   Z               Mass
    ------------   -----------------  -----------------  -----------------  -----------------
         O           -1.888175022171     0.045486465183    -0.046032258370    15.994914619570
         O            1.626179177829    -0.677718034817    -0.021350358370    15.994914619570
         O            0.490157177829     1.289043965183     0.017574641630    15.994914619570
         C           -0.748836822171    -0.779743034817     0.042848641630    12.000000000000
         C            0.501120177829     0.068465965183     0.005194641630    12.000000000000
         H           -0.732060822171    -1.363946034817     0.973709641630     1.007825032230
         H           -0.719856822171    -1.491261034817    -0.789894358370     1.007825032230
         H           -1.594760822171     0.946227965183     0.059349641630     1.007825032230
         H            2.375112177829    -0.046056034817    -0.024719358370     1.007825032230

  Basis Set: AUG-CC-PVTZ
    Blend: AUG-CC-PVTZ
  Basis Set: (AUG-CC-PVTZ AUX)
    Blend: AUG-CC-PVTZ-JKFIT
	 Reference Energy          =    -302.7863048737519307 [Eh]
	 Singles Energy            =      -0.0000000000000000 [Eh]
	 Same-Spin Energy          =      -0.2833592033371280 [Eh]
	 Opposite-Spin Energy      =      -0.8556780421853549 [Eh]
	 Correlation Energy        =      -1.1390372455224829 [Eh]
	 Total Energy              =    -303.9253421192744327 [Eh]

	 ================> DF-SCS-MP2 Energies <==================
	-----------------------------------------------------------
	 SCS Same-Spin Scale       =       0.3333333333333333 [-]
	 SCS Opposite-Spin Scale   =       1.2000000000000000 [-]
	 SCS Same-Spin Energy      =      -0.0944530677790427 [Eh]
	 SCS Opposite-Spin Energy  =      -1.0268136506224259 [Eh]
	 SCS Correlation Energy    =      -1.1212667184014686 [Eh]
	 SCS Total Energy          =    -303.9075715921533742 [Eh]
	-----------------------------------------------------------

  Dipole Moment: [D]
     X:     2.0591      Y:    -1.0151      Z:     0.2310     Total:     2.3073

*** Psi4 exiting successfully. Buy a developer a beer!
