                               Psi4 1.3.2 release

  ==> Input File <==

--------------------------------------------------------------------------
#psi4
#
memory 32 gb

molecule  {
0 1
  O       -1.9695882    -0.0711090    -0.0398757
  O        1.6373540    -0.6495170    -0.0243010
  O        0.5013320     1.3172450     0.0146240
  C       -0.7376620    -0.7515420     0.0398980
  C        0.5122950     0.0966670     0.0022440
  H       -0.7208860    -1.3357450     0.9707590
  H       -0.7086820    -1.4630600    -0.7928450
  H       -1.5835860     0.9744290     0.0563990
  H        2.3862870    -0.0178550    -0.0276700
units angstrom
no_reorient  #important for SAPT in psi4, default
symmetry c1  #important for SAPT in psi4, default
}

set PROPERTIES_ORIGIN ["COM"]
properties('MP2/aug-cc-pvtz', properties = ['dipole'])
--------------------------------------------------------------------------

    Molecular point group: c1
  Charge       = 0
  Multiplicity = 1
  Basis Set: AUG-CC-PVTZ
    Blend: AUG-CC-PVTZ
  Basis Set: (AUG-CC-PVTZ AUX)
    Blend: AUG-CC-PVTZ-JKFIT

    Orbital Energies [Eh]
    ---------------------

    Doubly Occupied:

       1A    -20.641411     2A    -20.583678     3A    -20.579441
       4A    -11.414417     5A    -11.308119     6A     -1.486977
       7A     -1.387854     8A     -1.351684     9A     -1.003770
      10A     -0.829091    11A     -0.737695    12A     -0.729430
      13A     -0.685945    14A     -0.631952    15A     -0.615854
      16A     -0.601051    17A     -0.542379    18A     -0.509350
      19A     -0.482625    20A     -0.461975

  @DF-RHF Final Energy:  -302.75994602318212

   => Energetics <=

    Nuclear Repulsion Energy =            177.6219973999930346
    One-Electron Energy =                -767.5944897015647257
    Two-Electron Energy =                 287.2125462783895955
    Total Energy =                       -302.7599460231821240
  Basis Set: (AUG-CC-PVTZ AUX)
    Blend: AUG-CC-PVTZ-RI
    Molecular point group: c1

    Geometry (in Angstrom), charge = 0, multiplicity = 1:

       Center              X                  Y                   Z               Mass
    ------------   -----------------  -----------------  -----------------  -----------------
         O           -1.961281119705    -0.068842681701    -0.038841349705    15.994914619570
         O            1.645661080295    -0.647250681701    -0.023266649705    15.994914619570
         O            0.509639080295     1.319511318299     0.015658350295    15.994914619570
         C           -0.729354919705    -0.749275681701     0.040932350295    12.000000000000
         C            0.520602080295     0.098933318299     0.003278350295    12.000000000000
         H           -0.712578919705    -1.333478681701     0.971793350295     1.007825032230
         H           -0.700374919705    -1.460793681701    -0.791810649705     1.007825032230
         H           -1.575278919705     0.976695318299     0.057433350295     1.007825032230
         H            2.394594080295    -0.015588681701    -0.026635649705     1.007825032230

  Basis Set: AUG-CC-PVTZ
    Blend: AUG-CC-PVTZ
  Basis Set: (AUG-CC-PVTZ AUX)
    Blend: AUG-CC-PVTZ-JKFIT
	 Reference Energy          =    -302.7599460231821240 [Eh]
	 Singles Energy            =      -0.0000000000000000 [Eh]
	 Same-Spin Energy          =      -0.2858516706550439 [Eh]
	 Opposite-Spin Energy      =      -0.8618415355579970 [Eh]
	 Correlation Energy        =      -1.1476932062130409 [Eh]
	 Total Energy              =    -303.9076392293951585 [Eh]

	 ================> DF-SCS-MP2 Energies <==================
	-----------------------------------------------------------
	 SCS Same-Spin Scale       =       0.3333333333333333 [-]
	 SCS Opposite-Spin Scale   =       1.2000000000000000 [-]
	 SCS Same-Spin Energy      =      -0.0952838902183480 [Eh]
	 SCS Opposite-Spin Energy  =      -1.0342098426695965 [Eh]
	 SCS Correlation Energy    =      -1.1294937328879444 [Eh]
	 SCS Total Energy          =    -303.8894397560700895 [Eh]
	-----------------------------------------------------------

  Dipole Moment: [D]
     X:     2.2465      Y:    -0.7602      Z:     0.1940     Total:     2.3796

*** Psi4 exiting successfully. Buy a developer a beer!
