                               Psi4 1.3.2 release

  ==> Input File <==

--------------------------------------------------------------------------
#psi4
#
memory 32 gb

molecule  {
0 1
  O       -1.8003762     0.1697005    -0.0546839
  O        1.6373540    -0.6495170    -0.0243010
  O        0.5013320     1.3172450     0.0146240
  C       -0.7376620    -0.7515420     0.0398980
  C        0.5122950     0.0966670     0.0022440
  H       -0.7208860    -1.3357450     0.9707590
  H       -0.7086820    -1.4630600    -0.7928450
  H       -1.5835860     0.9744290     0.0563990
  H        2.3862870    -0.0178550    -0.0276700
units angstrom
no_reorient  #important for SAPT in psi4, default
symmetry c1  #important for SAPT in psi4, default
}

set PROPERTIES_ORIGIN ["COM"]
properties('MP2/aug-cc-pvtz', properties = ['dipole'])
--------------------------------------------------------------------------

    Molecular point group: c1
  Charge       = 0
  Multiplicity = 1
  Basis Set: AUG-CC-PVTZ
    Blend: AUG-CC-PVTZ
  Basis Set: (AUG-CC-PVTZ AUX)
    Blend: AUG-CC-PVTZ-JKFIT

    Orbital Energies [Eh]
    ---------------------

    Doubly Occupied:

       1A    -20.635427     2A    -20.570940     3A    -20.554065
       4A    -11.406219     5A    -11.316455     6A     -1.482457
       7A     -1.410094     8A     -1.370902     9A     -1.020836
      10A     -0.845816    11A     -0.749465    12A     -0.726165
      13A     -0.688770    14A     -0.672364    15A     -0.615185
      16A     -0.612339    17A     -0.535232    18A     -0.501572
      19A     -0.478888    20A     -0.471796

  @DF-RHF Final Energy:  -302.76756650909670

   => Energetics <=

    Nuclear Repulsion Energy =            181.0582955136461294
    One-Electron Energy =                -774.3217469654192655
    Two-Electron Energy =                 290.4958849426764118
    Total Energy =                       -302.7675665090966959
  Basis Set: (AUG-CC-PVTZ AUX)
    Blend: AUG-CC-PVTZ-RI
    Molecular point group: c1

    Geometry (in Angstrom), charge = 0, multiplicity = 1:

       Center              X                  Y                   Z               Mass
    ------------   -----------------  -----------------  -----------------  -----------------
         O           -1.827673859844     0.121296891399    -0.050533682550    15.994914619570
         O            1.610056340156    -0.697920608601    -0.020150782550    15.994914619570
         O            0.474034340156     1.268841391399     0.018774217450    15.994914619570
         C           -0.764959659844    -0.799945608601     0.044048217450    12.000000000000
         C            0.484997340156     0.048263391399     0.006394217450    12.000000000000
         H           -0.748183659844    -1.384148608601     0.974909217450     1.007825032230
         H           -0.735979659844    -1.511463608601    -0.788694782550     1.007825032230
         H           -1.610883659844     0.926025391399     0.060549217450     1.007825032230
         H            2.358989340156    -0.066258608601    -0.023519782550     1.007825032230

  Basis Set: AUG-CC-PVTZ
    Blend: AUG-CC-PVTZ
  Basis Set: (AUG-CC-PVTZ AUX)
    Blend: AUG-CC-PVTZ-JKFIT
	 Reference Energy          =    -302.7675665090966959 [Eh]
	 Singles Energy            =      -0.0000000000000000 [Eh]
	 Same-Spin Energy          =      -0.2820121091327685 [Eh]
	 Opposite-Spin Energy      =      -0.8525296836699985 [Eh]
	 Correlation Energy        =      -1.1345417928027670 [Eh]
	 Total Energy              =    -303.9021083018994887 [Eh]

	 ================> DF-SCS-MP2 Energies <==================
	-----------------------------------------------------------
	 SCS Same-Spin Scale       =       0.3333333333333333 [-]
	 SCS Opposite-Spin Scale   =       1.2000000000000000 [-]
	 SCS Same-Spin Energy      =      -0.0940040363775895 [Eh]
	 SCS Opposite-Spin Energy  =      -1.0230356204039981 [Eh]
	 SCS Correlation Energy    =      -1.1170396567815877 [Eh]
	 SCS Total Energy          =    -303.8846061658782673 [Eh]
	-----------------------------------------------------------

  Dipole Moment: [D]
     X:     1.9210      Y:    -1.2223      Z:     0.2611     Total:     2.2918

*** Psi4 exiting successfully. Buy a developer a beer!
