                               Psi4 1.3.2 release

  ==> Input File <==

--------------------------------------------------------------------------
#psi4
#
memory 32 gb

molecule  {
0 1
  O       -0.0000010     0.6011430     0.0000000
  C       -1.1082281    -0.2799433     0.0000000
  C        1.1669920    -0.2004920     0.0000000
  H       -1.2147260    -0.8409820     0.8921650
  H       -1.2147200    -0.8409890    -0.8921600
  H       -2.0188950     0.4803440    -0.0000050
  H        2.0188940     0.4803480    -0.0000030
  H        1.2147250    -0.8409800     0.8921650
  H        1.2147210    -0.8409860    -0.8921610
units angstrom
no_reorient  #important for SAPT in psi4, default
symmetry c1  #important for SAPT in psi4, default
}

set PROPERTIES_ORIGIN ["COM"]
properties('MP2/aug-cc-pvtz', properties = ['dipole'])
--------------------------------------------------------------------------

    Molecular point group: c1
  Charge       = 0
  Multiplicity = 1
  Basis Set: AUG-CC-PVTZ
    Blend: AUG-CC-PVTZ
  Basis Set: (AUG-CC-PVTZ AUX)
    Blend: AUG-CC-PVTZ-JKFIT

    Orbital Energies [Eh]
    ---------------------

    Doubly Occupied:

       1A    -20.561347     2A    -11.270989     3A    -11.269750
       4A     -1.374560     5A     -0.962521     6A     -0.879827
       7A     -0.668684     8A     -0.642711     9A     -0.637061
      10A     -0.562471    11A     -0.504116    12A     -0.478433
      13A     -0.433278

  @DF-RHF Final Energy:  -154.11651662705717

   => Energetics <=

    Nuclear Repulsion Energy =             84.0680330113475236
    One-Electron Energy =                -375.8776037541289838
    Two-Electron Energy =                 137.6930541157243226
    Total Energy =                       -154.1165166270571660
  Basis Set: (AUG-CC-PVTZ AUX)
    Blend: AUG-CC-PVTZ-RI
    Molecular point group: c1

    Geometry (in Angstrom), charge = 0, multiplicity = 1:

       Center              X                  Y                   Z               Mass
    ------------   -----------------  -----------------  -----------------  -----------------
         O           -0.015316404798     0.570128685194    -0.000000021889    15.994914619570
         C           -1.123543504798    -0.310957614806    -0.000000021889    12.000000000000
         C            1.151676595202    -0.231506314806    -0.000000021889    12.000000000000
         H           -1.230041404798    -0.871996314806     0.892164978111     1.007825032230
         H           -1.230035404798    -0.872003314806    -0.892160021889     1.007825032230
         H           -2.034210404798     0.449329685194    -0.000005021889     1.007825032230
         H            2.003578595202     0.449333685194    -0.000003021889     1.007825032230
         H            1.199409595202    -0.871994314806     0.892164978111     1.007825032230
         H            1.199405595202    -0.872000314806    -0.892161021889     1.007825032230

  Basis Set: AUG-CC-PVTZ
    Blend: AUG-CC-PVTZ
  Basis Set: (AUG-CC-PVTZ AUX)
    Blend: AUG-CC-PVTZ-JKFIT
	 Reference Energy          =    -154.1165166270571660 [Eh]
	 Singles Energy            =      -0.0000000000000000 [Eh]
	 Same-Spin Energy          =      -0.1458665583141233 [Eh]
	 Opposite-Spin Energy      =      -0.5175596738074623 [Eh]
	 Correlation Energy        =      -0.6634262321215856 [Eh]
	 Total Energy              =    -154.7799428591787603 [Eh]

	 ================> DF-SCS-MP2 Energies <==================
	-----------------------------------------------------------
	 SCS Same-Spin Scale       =       0.3333333333333333 [-]
	 SCS Opposite-Spin Scale   =       1.2000000000000000 [-]
	 SCS Same-Spin Energy      =      -0.0486221861047078 [Eh]
	 SCS Opposite-Spin Energy  =      -0.6210716085689547 [Eh]
	 SCS Correlation Energy    =      -0.6696937946736625 [Eh]
	 SCS Total Energy          =    -154.7862104217308286 [Eh]
	-----------------------------------------------------------

  Dipole Moment: [D]
     X:     0.0811      Y:    -1.4568      Z:    -0.0000     Total:     1.4591

*** Psi4 exiting successfully. Buy a developer a beer!
