                               Psi4 1.3.2 release

  ==> Input File <==

--------------------------------------------------------------------------
#psi4
#
memory 32 gb

molecule  {
0 1
  O       -0.0000010     0.6011430     0.0000000
  C       -1.2494163    -0.2571117     0.0000000
  C        1.1669920    -0.2004920     0.0000000
  H       -1.2147260    -0.8409820     0.8921650
  H       -1.2147200    -0.8409890    -0.8921600
  H       -2.0188950     0.4803440    -0.0000050
  H        2.0188940     0.4803480    -0.0000030
  H        1.2147250    -0.8409800     0.8921650
  H        1.2147210    -0.8409860    -0.8921610
units angstrom
no_reorient  #important for SAPT in psi4, default
symmetry c1  #important for SAPT in psi4, default
}

set PROPERTIES_ORIGIN ["COM"]
properties('MP2/aug-cc-pvtz', properties = ['dipole'])
--------------------------------------------------------------------------

    Molecular point group: c1
  Charge       = 0
  Multiplicity = 1
  Basis Set: AUG-CC-PVTZ
    Blend: AUG-CC-PVTZ
  Basis Set: (AUG-CC-PVTZ AUX)
    Blend: AUG-CC-PVTZ-JKFIT

    Orbital Energies [Eh]
    ---------------------

    Doubly Occupied:

       1A    -20.549590     2A    -11.270413     3A    -11.264512
       4A     -1.338425     5A     -0.963339     6A     -0.877376
       7A     -0.651301     8A     -0.641181     9A     -0.616423
      10A     -0.562265    11A     -0.531486    12A     -0.471141
      13A     -0.424101

  @DF-RHF Final Energy:  -154.11855104148449

   => Energetics <=

    Nuclear Repulsion Energy =             82.4952279303644644
    One-Electron Energy =                -372.9044526828080279
    Two-Electron Energy =                 136.2906737109590551
    Total Energy =                       -154.1185510414844941
  Basis Set: (AUG-CC-PVTZ AUX)
    Blend: AUG-CC-PVTZ-RI
    Molecular point group: c1

    Geometry (in Angstrom), charge = 0, multiplicity = 1:

       Center              X                  Y                   Z               Mass
    ------------   -----------------  -----------------  -----------------  -----------------
         O            0.021481809325     0.564178031346    -0.000000021889    15.994914619570
         C           -1.227933490675    -0.294076668654    -0.000000021889    12.000000000000
         C            1.188474809325    -0.237456968654    -0.000000021889    12.000000000000
         H           -1.193243190675    -0.877946968654     0.892164978111     1.007825032230
         H           -1.193237190675    -0.877953968654    -0.892160021889     1.007825032230
         H           -1.997412190675     0.443379031346    -0.000005021889     1.007825032230
         H            2.040376809325     0.443383031346    -0.000003021889     1.007825032230
         H            1.236207809325    -0.877944968654     0.892164978111     1.007825032230
         H            1.236203809325    -0.877950968654    -0.892161021889     1.007825032230

  Basis Set: AUG-CC-PVTZ
    Blend: AUG-CC-PVTZ
  Basis Set: (AUG-CC-PVTZ AUX)
    Blend: AUG-CC-PVTZ-JKFIT
	 Reference Energy          =    -154.1185510414844941 [Eh]
	 Singles Energy            =      -0.0000000000000000 [Eh]
	 Same-Spin Energy          =      -0.1456316109403455 [Eh]
	 Opposite-Spin Energy      =      -0.5182980174624425 [Eh]
	 Correlation Energy        =      -0.6639296284027880 [Eh]
	 Total Energy              =    -154.7824806698872919 [Eh]

	 ================> DF-SCS-MP2 Energies <==================
	-----------------------------------------------------------
	 SCS Same-Spin Scale       =       0.3333333333333333 [-]
	 SCS Opposite-Spin Scale   =       1.2000000000000000 [-]
	 SCS Same-Spin Energy      =      -0.0485438703134485 [Eh]
	 SCS Opposite-Spin Energy  =      -0.6219576209549310 [Eh]
	 SCS Correlation Energy    =      -0.6705014912683795 [Eh]
	 SCS Total Energy          =    -154.7890525327528621 [Eh]
	-----------------------------------------------------------

  Dipole Moment: [D]
     X:    -0.3013      Y:    -1.5163      Z:     0.0000     Total:     1.5460

*** Psi4 exiting successfully. Buy a developer a beer!
