                               Psi4 1.3.2 release

  ==> Input File <==

--------------------------------------------------------------------------
#psi4
#
memory 32 gb

molecule  {
0 1
  O       -0.0000010     0.6011430     0.0000000
  C       -1.1942557    -0.1592753     0.0000000
  C        1.1669920    -0.2004920     0.0000000
  H       -1.2147260    -0.8409820     0.8921650
  H       -1.2147200    -0.8409890    -0.8921600
  H       -2.0188950     0.4803440    -0.0000050
  H        2.0188940     0.4803480    -0.0000030
  H        1.2147250    -0.8409800     0.8921650
  H        1.2147210    -0.8409860    -0.8921610
units angstrom
no_reorient  #important for SAPT in psi4, default
symmetry c1  #important for SAPT in psi4, default
}

set PROPERTIES_ORIGIN ["COM"]
properties('MP2/aug-cc-pvtz', properties = ['dipole'])
--------------------------------------------------------------------------

    Molecular point group: c1
  Charge       = 0
  Multiplicity = 1
  Basis Set: AUG-CC-PVTZ
    Blend: AUG-CC-PVTZ
  Basis Set: (AUG-CC-PVTZ AUX)
    Blend: AUG-CC-PVTZ-JKFIT

    Orbital Energies [Eh]
    ---------------------

    Doubly Occupied:

       1A    -20.556417     2A    -11.271164     3A    -11.270877
       4A     -1.368712     5A     -0.968519     6A     -0.873065
       7A     -0.655491     8A     -0.652975     9A     -0.635765
      10A     -0.542079    11A     -0.536598    12A     -0.480977
      13A     -0.421253

  @DF-RHF Final Energy:  -154.12545927540290

   => Energetics <=

    Nuclear Repulsion Energy =             83.6750626938186457
    One-Electron Energy =                -375.1332578984188899
    Two-Electron Energy =                 137.3327359291973551
    Total Energy =                       -154.1254592754029034
  Basis Set: (AUG-CC-PVTZ AUX)
    Blend: AUG-CC-PVTZ-RI
    Molecular point group: c1

    Geometry (in Angstrom), charge = 0, multiplicity = 1:

       Center              X                  Y                   Z               Mass
    ------------   -----------------  -----------------  -----------------  -----------------
         O            0.007105171830     0.538678699276    -0.000000021889    15.994914619570
         C           -1.187149528170    -0.221739600724    -0.000000021889    12.000000000000
         C            1.174098171830    -0.262956300724    -0.000000021889    12.000000000000
         H           -1.207619828170    -0.903446300724     0.892164978111     1.007825032230
         H           -1.207613828170    -0.903453300724    -0.892160021889     1.007825032230
         H           -2.011788828170     0.417879699276    -0.000005021889     1.007825032230
         H            2.026000171830     0.417883699276    -0.000003021889     1.007825032230
         H            1.221831171830    -0.903444300724     0.892164978111     1.007825032230
         H            1.221827171830    -0.903450300724    -0.892161021889     1.007825032230

  Basis Set: AUG-CC-PVTZ
    Blend: AUG-CC-PVTZ
  Basis Set: (AUG-CC-PVTZ AUX)
    Blend: AUG-CC-PVTZ-JKFIT
	 Reference Energy          =    -154.1254592754029034 [Eh]
	 Singles Energy            =      -0.0000000000000000 [Eh]
	 Same-Spin Energy          =      -0.1453027101265642 [Eh]
	 Opposite-Spin Energy      =      -0.5162061298724664 [Eh]
	 Correlation Energy        =      -0.6615088399990305 [Eh]
	 Total Energy              =    -154.7869681154019474 [Eh]

	 ================> DF-SCS-MP2 Energies <==================
	-----------------------------------------------------------
	 SCS Same-Spin Scale       =       0.3333333333333333 [-]
	 SCS Opposite-Spin Scale   =       1.2000000000000000 [-]
	 SCS Same-Spin Energy      =      -0.0484342367088547 [Eh]
	 SCS Opposite-Spin Energy  =      -0.6194473558469596 [Eh]
	 SCS Correlation Energy    =      -0.6678815925558144 [Eh]
	 SCS Total Energy          =    -154.7933408679587046 [Eh]
	-----------------------------------------------------------

  Dipole Moment: [D]
     X:    -0.0177      Y:    -1.3074      Z:    -0.0000     Total:     1.3075

*** Psi4 exiting successfully. Buy a developer a beer!
