                               Psi4 1.3.2 release

  ==> Input File <==

--------------------------------------------------------------------------
#psi4
#
memory 32 gb

molecule  {
0 1
  O       -0.0000010     0.6011430     0.0000000
  C       -1.2443907    -0.0741160     0.0000000
  C        1.1669920    -0.2004920     0.0000000
  H       -1.2147260    -0.8409820     0.8921650
  H       -1.2147200    -0.8409890    -0.8921600
  H       -2.0188950     0.4803440    -0.0000050
  H        2.0188940     0.4803480    -0.0000030
  H        1.2147250    -0.8409800     0.8921650
  H        1.2147210    -0.8409860    -0.8921610
units angstrom
no_reorient  #important for SAPT in psi4, default
symmetry c1  #important for SAPT in psi4, default
}

set PROPERTIES_ORIGIN ["COM"]
properties('MP2/aug-cc-pvtz', properties = ['dipole'])
--------------------------------------------------------------------------

    Molecular point group: c1
  Charge       = 0
  Multiplicity = 1
  Basis Set: AUG-CC-PVTZ
    Blend: AUG-CC-PVTZ
  Basis Set: (AUG-CC-PVTZ AUX)
    Blend: AUG-CC-PVTZ-JKFIT

    Orbital Energies [Eh]
    ---------------------

    Doubly Occupied:

       1A    -20.555084     2A    -11.275907     3A    -11.273310
       4A     -1.366719     5A     -0.975636     6A     -0.874277
       7A     -0.673518     8A     -0.646544     9A     -0.633154
      10A     -0.556107    11A     -0.528485    12A     -0.474085
      13A     -0.411280

  @DF-RHF Final Energy:  -154.09980649043496

   => Energetics <=

    Nuclear Repulsion Energy =             83.4602911827315808
    One-Electron Energy =                -374.6319806514507036
    Two-Electron Energy =                 137.0718829782841794
    Total Energy =                       -154.0998064904349576
  Basis Set: (AUG-CC-PVTZ AUX)
    Blend: AUG-CC-PVTZ-RI
    Molecular point group: c1

    Geometry (in Angstrom), charge = 0, multiplicity = 1:

       Center              X                  Y                   Z               Mass
    ------------   -----------------  -----------------  -----------------  -----------------
         O            0.020171975324     0.516483429728    -0.000000021889    15.994914619570
         C           -1.224217724676    -0.158775570272    -0.000000021889    12.000000000000
         C            1.187164975324    -0.285151570272    -0.000000021889    12.000000000000
         H           -1.194553024676    -0.925641570272     0.892164978111     1.007825032230
         H           -1.194547024676    -0.925648570272    -0.892160021889     1.007825032230
         H           -1.998722024676     0.395684429728    -0.000005021889     1.007825032230
         H            2.039066975324     0.395688429728    -0.000003021889     1.007825032230
         H            1.234897975324    -0.925639570272     0.892164978111     1.007825032230
         H            1.234893975324    -0.925645570272    -0.892161021889     1.007825032230

  Basis Set: AUG-CC-PVTZ
    Blend: AUG-CC-PVTZ
  Basis Set: (AUG-CC-PVTZ AUX)
    Blend: AUG-CC-PVTZ-JKFIT
	 Reference Energy          =    -154.0998064904349576 [Eh]
	 Singles Energy            =      -0.0000000000000000 [Eh]
	 Same-Spin Energy          =      -0.1454021571853166 [Eh]
	 Opposite-Spin Energy      =      -0.5167494058465321 [Eh]
	 Correlation Energy        =      -0.6621515630318486 [Eh]
	 Total Energy              =    -154.7619580534667989 [Eh]

	 ================> DF-SCS-MP2 Energies <==================
	-----------------------------------------------------------
	 SCS Same-Spin Scale       =       0.3333333333333333 [-]
	 SCS Opposite-Spin Scale   =       1.2000000000000000 [-]
	 SCS Same-Spin Energy      =      -0.0484673857284389 [Eh]
	 SCS Opposite-Spin Energy  =      -0.6200992870158385 [Eh]
	 SCS Correlation Energy    =      -0.6685666727442774 [Eh]
	 SCS Total Energy          =    -154.7683731631792341 [Eh]
	-----------------------------------------------------------

  Dipole Moment: [D]
     X:    -0.0035      Y:    -1.1894      Z:     0.0000     Total:     1.1894

*** Psi4 exiting successfully. Buy a developer a beer!
