                               Psi4 1.3.2 release

  ==> Input File <==

--------------------------------------------------------------------------
#psi4
#
memory 32 gb

molecule  {
0 1
  O       -0.0000010     0.6011430     0.0000000
  C       -1.3318426    -0.3137324     0.0000000
  C        1.1669920    -0.2004920     0.0000000
  H       -1.2147260    -0.8409820     0.8921650
  H       -1.2147200    -0.8409890    -0.8921600
  H       -2.0188950     0.4803440    -0.0000050
  H        2.0188940     0.4803480    -0.0000030
  H        1.2147250    -0.8409800     0.8921650
  H        1.2147210    -0.8409860    -0.8921610
units angstrom
no_reorient  #important for SAPT in psi4, default
symmetry c1  #important for SAPT in psi4, default
}

set PROPERTIES_ORIGIN ["COM"]
properties('MP2/aug-cc-pvtz', properties = ['dipole'])
--------------------------------------------------------------------------

    Molecular point group: c1
  Charge       = 0
  Multiplicity = 1
  Basis Set: AUG-CC-PVTZ
    Blend: AUG-CC-PVTZ
  Basis Set: (AUG-CC-PVTZ AUX)
    Blend: AUG-CC-PVTZ-JKFIT

    Orbital Energies [Eh]
    ---------------------

    Doubly Occupied:

       1A    -20.541571     2A    -11.274710     3A    -11.259578
       4A     -1.314166     5A     -0.965228     6A     -0.876935
       7A     -0.651067     8A     -0.640418     9A     -0.600742
      10A     -0.572967    11A     -0.536056    12A     -0.450814
      13A     -0.419116

  @DF-RHF Final Energy:  -154.09783490482522

   => Energetics <=

    Nuclear Repulsion Energy =             81.2924576406007446
    One-Electron Energy =                -370.5738504266362838
    Two-Electron Energy =                 135.1835578812103336
    Total Energy =                       -154.0978349048252198
  Basis Set: (AUG-CC-PVTZ AUX)
    Blend: AUG-CC-PVTZ-RI
    Molecular point group: c1

    Geometry (in Angstrom), charge = 0, multiplicity = 1:

       Center              X                  Y                   Z               Mass
    ------------   -----------------  -----------------  -----------------  -----------------
         O            0.042964770626     0.578935218154    -0.000000021889    15.994914619570
         C           -1.288876829374    -0.335940181846    -0.000000021889    12.000000000000
         C            1.209957770626    -0.222699781846    -0.000000021889    12.000000000000
         H           -1.171760229374    -0.863189781846     0.892164978111     1.007825032230
         H           -1.171754229374    -0.863196781846    -0.892160021889     1.007825032230
         H           -1.975929229374     0.458136218154    -0.000005021889     1.007825032230
         H            2.061859770626     0.458140218154    -0.000003021889     1.007825032230
         H            1.257690770626    -0.863187781846     0.892164978111     1.007825032230
         H            1.257686770626    -0.863193781846    -0.892161021889     1.007825032230

  Basis Set: AUG-CC-PVTZ
    Blend: AUG-CC-PVTZ
  Basis Set: (AUG-CC-PVTZ AUX)
    Blend: AUG-CC-PVTZ-JKFIT
	 Reference Energy          =    -154.0978349048252198 [Eh]
	 Singles Energy            =      -0.0000000000000000 [Eh]
	 Same-Spin Energy          =      -0.1463146447653450 [Eh]
	 Opposite-Spin Energy      =      -0.5210449450036228 [Eh]
	 Correlation Energy        =      -0.6673595897689677 [Eh]
	 Total Energy              =    -154.7651944945941977 [Eh]

	 ================> DF-SCS-MP2 Energies <==================
	-----------------------------------------------------------
	 SCS Same-Spin Scale       =       0.3333333333333333 [-]
	 SCS Opposite-Spin Scale   =       1.2000000000000000 [-]
	 SCS Same-Spin Energy      =      -0.0487715482551150 [Eh]
	 SCS Opposite-Spin Energy  =      -0.6252539340043473 [Eh]
	 SCS Correlation Energy    =      -0.6740254822594622 [Eh]
	 SCS Total Energy          =    -154.7718603870846721 [Eh]
	-----------------------------------------------------------

  Dipole Moment: [D]
     X:    -0.5202      Y:    -1.6280      Z:     0.0000     Total:     1.7091

*** Psi4 exiting successfully. Buy a developer a beer!
