                               Psi4 1.3.2 release

  ==> Input File <==

--------------------------------------------------------------------------
#psi4
#
memory 32 gb

molecule  {
0 1
  O       -0.0000010     0.6011430     0.0000000
  C       -1.1383025    -0.2407300     0.0000000
  C        1.1669920    -0.2004920     0.0000000
  H       -1.2147260    -0.8409820     0.8921650
  H       -1.2147200    -0.8409890    -0.8921600
  H       -2.0188950     0.4803440    -0.0000050
  H        2.0188940     0.4803480    -0.0000030
  H        1.2147250    -0.8409800     0.8921650
  H        1.2147210    -0.8409860    -0.8921610
units angstrom
no_reorient  #important for SAPT in psi4, default
symmetry c1  #important for SAPT in psi4, default
}

set PROPERTIES_ORIGIN ["COM"]
properties('MP2/aug-cc-pvtz', properties = ['dipole'])
--------------------------------------------------------------------------

    Molecular point group: c1
  Charge       = 0
  Multiplicity = 1
  Basis Set: AUG-CC-PVTZ
    Blend: AUG-CC-PVTZ
  Basis Set: (AUG-CC-PVTZ AUX)
    Blend: AUG-CC-PVTZ-JKFIT

    Orbital Energies [Eh]
    ---------------------

    Doubly Occupied:

       1A    -20.559335     2A    -11.270097     3A    -11.269784
       4A     -1.372219     5A     -0.964005     6A     -0.876843
       7A     -0.662725     8A     -0.643246     9A     -0.638741
      10A     -0.556029    11A     -0.511654    12A     -0.484070
      13A     -0.429564

  @DF-RHF Final Energy:  -154.12467277403439

   => Energetics <=

    Nuclear Repulsion Energy =             83.9306908426127904
    One-Electron Energy =                -375.6341050771974892
    Two-Electron Energy =                 137.5787414605502761
    Total Energy =                       -154.1246727740343943
  Basis Set: (AUG-CC-PVTZ AUX)
    Blend: AUG-CC-PVTZ-RI
    Molecular point group: c1

    Geometry (in Angstrom), charge = 0, multiplicity = 1:

       Center              X                  Y                   Z               Mass
    ------------   -----------------  -----------------  -----------------  -----------------
         O           -0.007478042875     0.559908430174    -0.000000021889    15.994914619570
         C           -1.145779542875    -0.281964569826    -0.000000021889    12.000000000000
         C            1.159514957125    -0.241726569826    -0.000000021889    12.000000000000
         H           -1.222203042875    -0.882216569826     0.892164978111     1.007825032230
         H           -1.222197042875    -0.882223569826    -0.892160021889     1.007825032230
         H           -2.026372042875     0.439109430174    -0.000005021889     1.007825032230
         H            2.011416957125     0.439113430174    -0.000003021889     1.007825032230
         H            1.207247957125    -0.882214569826     0.892164978111     1.007825032230
         H            1.207243957125    -0.882220569826    -0.892161021889     1.007825032230

  Basis Set: AUG-CC-PVTZ
    Blend: AUG-CC-PVTZ
  Basis Set: (AUG-CC-PVTZ AUX)
    Blend: AUG-CC-PVTZ-JKFIT
	 Reference Energy          =    -154.1246727740343943 [Eh]
	 Singles Energy            =      -0.0000000000000000 [Eh]
	 Same-Spin Energy          =      -0.1455865446636320 [Eh]
	 Opposite-Spin Energy      =      -0.5168480871073859 [Eh]
	 Correlation Energy        =      -0.6624346317710179 [Eh]
	 Total Energy              =    -154.7871074058054148 [Eh]

	 ================> DF-SCS-MP2 Energies <==================
	-----------------------------------------------------------
	 SCS Same-Spin Scale       =       0.3333333333333333 [-]
	 SCS Opposite-Spin Scale   =       1.2000000000000000 [-]
	 SCS Same-Spin Energy      =      -0.0485288482212107 [Eh]
	 SCS Opposite-Spin Energy  =      -0.6202177045288632 [Eh]
	 SCS Correlation Energy    =      -0.6687465527500738 [Eh]
	 SCS Total Energy          =    -154.7934193267844591 [Eh]
	-----------------------------------------------------------

  Dipole Moment: [D]
     X:     0.0334      Y:    -1.4111      Z:    -0.0000     Total:     1.4115

*** Psi4 exiting successfully. Buy a developer a beer!
