                               Psi4 1.3.2 release

  ==> Input File <==

--------------------------------------------------------------------------
#psi4
#
memory 32 gb

molecule  {
0 1
  O       -0.0000010     0.6011430     0.0000000
  C       -1.1808027    -0.1800021     0.0000000
  C        1.1669920    -0.2004920     0.0000000
  H       -1.2147260    -0.8409820     0.8921650
  H       -1.2147200    -0.8409890    -0.8921600
  H       -2.0188950     0.4803440    -0.0000050
  H        2.0188940     0.4803480    -0.0000030
  H        1.2147250    -0.8409800     0.8921650
  H        1.2147210    -0.8409860    -0.8921610
units angstrom
no_reorient  #important for SAPT in psi4, default
symmetry c1  #important for SAPT in psi4, default
}

set PROPERTIES_ORIGIN ["COM"]
properties('MP2/aug-cc-pvtz', properties = ['dipole'])
--------------------------------------------------------------------------

    Molecular point group: c1
  Charge       = 0
  Multiplicity = 1
  Basis Set: AUG-CC-PVTZ
    Blend: AUG-CC-PVTZ
  Basis Set: (AUG-CC-PVTZ AUX)
    Blend: AUG-CC-PVTZ-JKFIT

    Orbital Energies [Eh]
    ---------------------

    Doubly Occupied:

       1A    -20.557002     2A    -11.270548     3A    -11.270476
       4A     -1.369443     5A     -0.967173     6A     -0.873644
       7A     -0.655106     8A     -0.651744     9A     -0.636561
      10A     -0.545623    11A     -0.530461    12A     -0.482394
      13A     -0.423465

  @DF-RHF Final Energy:  -154.12747421533928

   => Energetics <=

    Nuclear Repulsion Energy =             83.7358237672223709
    One-Electron Energy =                -375.2593202028854762
    Two-Electron Energy =                 137.3960222203238288
    Total Energy =                       -154.1274742153392765
  Basis Set: (AUG-CC-PVTZ AUX)
    Blend: AUG-CC-PVTZ-RI
    Molecular point group: c1

    Geometry (in Angstrom), charge = 0, multiplicity = 1:

       Center              X                  Y                   Z               Mass
    ------------   -----------------  -----------------  -----------------  -----------------
         O            0.003598884657     0.544080774127    -0.000000021889    15.994914619570
         C           -1.177202815343    -0.237064325873    -0.000000021889    12.000000000000
         C            1.170591884657    -0.257554225873    -0.000000021889    12.000000000000
         H           -1.211126115343    -0.898044225873     0.892164978111     1.007825032230
         H           -1.211120115343    -0.898051225873    -0.892160021889     1.007825032230
         H           -2.015295115343     0.423281774127    -0.000005021889     1.007825032230
         H            2.022493884657     0.423285774127    -0.000003021889     1.007825032230
         H            1.218324884657    -0.898042225873     0.892164978111     1.007825032230
         H            1.218320884657    -0.898048225873    -0.892161021889     1.007825032230

  Basis Set: AUG-CC-PVTZ
    Blend: AUG-CC-PVTZ
  Basis Set: (AUG-CC-PVTZ AUX)
    Blend: AUG-CC-PVTZ-JKFIT
	 Reference Energy          =    -154.1274742153392765 [Eh]
	 Singles Energy            =      -0.0000000000000000 [Eh]
	 Same-Spin Energy          =      -0.1453385102246255 [Eh]
	 Opposite-Spin Energy      =      -0.5162622162100414 [Eh]
	 Correlation Energy        =      -0.6616007264346669 [Eh]
	 Total Energy              =    -154.7890749417739471 [Eh]

	 ================> DF-SCS-MP2 Energies <==================
	-----------------------------------------------------------
	 SCS Same-Spin Scale       =       0.3333333333333333 [-]
	 SCS Opposite-Spin Scale   =       1.2000000000000000 [-]
	 SCS Same-Spin Energy      =      -0.0484461700748752 [Eh]
	 SCS Opposite-Spin Energy  =      -0.6195146594520496 [Eh]
	 SCS Correlation Energy    =      -0.6679608295269248 [Eh]
	 SCS Total Energy          =    -154.7954350448661955 [Eh]
	-----------------------------------------------------------

  Dipole Moment: [D]
     X:    -0.0109      Y:    -1.3347      Z:    -0.0000     Total:     1.3348

*** Psi4 exiting successfully. Buy a developer a beer!
