                               Psi4 1.3.2 release

  ==> Input File <==

--------------------------------------------------------------------------
#psi4
#
memory 32 gb

molecule  {
0 1
  O       -0.0000010     0.6011430     0.0000000
  C       -1.2200664    -0.1171332     0.0000000
  C        1.1669920    -0.2004920     0.0000000
  H       -1.2147260    -0.8409820     0.8921650
  H       -1.2147200    -0.8409890    -0.8921600
  H       -2.0188950     0.4803440    -0.0000050
  H        2.0188940     0.4803480    -0.0000030
  H        1.2147250    -0.8409800     0.8921650
  H        1.2147210    -0.8409860    -0.8921610
units angstrom
no_reorient  #important for SAPT in psi4, default
symmetry c1  #important for SAPT in psi4, default
}

set PROPERTIES_ORIGIN ["COM"]
properties('MP2/aug-cc-pvtz', properties = ['dipole'])
--------------------------------------------------------------------------

    Molecular point group: c1
  Charge       = 0
  Multiplicity = 1
  Basis Set: AUG-CC-PVTZ
    Blend: AUG-CC-PVTZ
  Basis Set: (AUG-CC-PVTZ AUX)
    Blend: AUG-CC-PVTZ-JKFIT

    Orbital Energies [Eh]
    ---------------------

    Doubly Occupied:

       1A    -20.555547     2A    -11.273083     3A    -11.271930
       4A     -1.367533     5A     -0.971710     6A     -0.872885
       7A     -0.664015     8A     -0.649347     9A     -0.634326
      10A     -0.547487    11A     -0.535095    12A     -0.477704
      13A     -0.416506

  @DF-RHF Final Energy:  -154.11636229814417

   => Energetics <=

    Nuclear Repulsion Energy =             83.5615317264563373
    One-Electron Energy =                -374.8814500556077292
    Two-Electron Energy =                 137.2035560310072242
    Total Energy =                       -154.1163622981441677
  Basis Set: (AUG-CC-PVTZ AUX)
    Blend: AUG-CC-PVTZ-RI
    Molecular point group: c1

    Geometry (in Angstrom), charge = 0, multiplicity = 1:

       Center              X                  Y                   Z               Mass
    ------------   -----------------  -----------------  -----------------  -----------------
         O            0.013832275549     0.527695104192    -0.000000021889    15.994914619570
         C           -1.206233124451    -0.190581095808    -0.000000021889    12.000000000000
         C            1.180825275549    -0.273939895808    -0.000000021889    12.000000000000
         H           -1.200892724451    -0.914429895808     0.892164978111     1.007825032230
         H           -1.200886724451    -0.914436895808    -0.892160021889     1.007825032230
         H           -2.005061724451     0.406896104192    -0.000005021889     1.007825032230
         H            2.032727275549     0.406900104192    -0.000003021889     1.007825032230
         H            1.228558275549    -0.914427895808     0.892164978111     1.007825032230
         H            1.228554275549    -0.914433895808    -0.892161021889     1.007825032230

  Basis Set: AUG-CC-PVTZ
    Blend: AUG-CC-PVTZ
  Basis Set: (AUG-CC-PVTZ AUX)
    Blend: AUG-CC-PVTZ-JKFIT
	 Reference Energy          =    -154.1163622981441677 [Eh]
	 Singles Energy            =      -0.0000000000000000 [Eh]
	 Same-Spin Energy          =      -0.1453032745565607 [Eh]
	 Opposite-Spin Energy      =      -0.5163196576103881 [Eh]
	 Correlation Energy        =      -0.6616229321669488 [Eh]
	 Total Energy              =    -154.7779852303111170 [Eh]

	 ================> DF-SCS-MP2 Energies <==================
	-----------------------------------------------------------
	 SCS Same-Spin Scale       =       0.3333333333333333 [-]
	 SCS Opposite-Spin Scale   =       1.2000000000000000 [-]
	 SCS Same-Spin Energy      =      -0.0484344248521869 [Eh]
	 SCS Opposite-Spin Energy  =      -0.6195835891324657 [Eh]
	 SCS Correlation Energy    =      -0.6680180139846525 [Eh]
	 SCS Total Energy          =    -154.7843803121288317 [Eh]
	-----------------------------------------------------------

  Dipole Moment: [D]
     X:    -0.0190      Y:    -1.2501      Z:     0.0000     Total:     1.2503

*** Psi4 exiting successfully. Buy a developer a beer!
