                               Psi4 1.4a3.dev225

  ==> Input File <==

--------------------------------------------------------------------------
#psi4
#
memory 32 gb

molecule  {
0 1
  O        0.0000000     0.6008970     0.0000000
  C        0.0000000    -0.1720817     1.1257473
  C        0.0000000    -0.2003840    -1.1669660
  H        0.8921560    -0.8409110     1.2152030
  H       -0.8921560    -0.8409130     1.2152030
  H        0.0000000     0.4805400     2.0188370
  H        0.0000000     0.4805400    -2.0188370
  H        0.8921560    -0.8409110    -1.2152030
  H       -0.8921560    -0.8409130    -1.2152030
units angstrom
no_reorient  #important for SAPT in psi4, default
symmetry c1  #important for SAPT in psi4, default
}

set PROPERTIES_ORIGIN ["COM"]
properties('MP2/aug-cc-pvtz', properties = ['dipole'])
--------------------------------------------------------------------------

    Molecular point group: c1
  Charge       = 0
  Multiplicity = 1
  Basis Set: AUG-CC-PVTZ
    Blend: AUG-CC-PVTZ
  Basis Set: (AUG-CC-PVTZ AUX)
    Blend: AUG-CC-PVTZ-JKFIT

    Orbital Energies [Eh]
    ---------------------

    Doubly Occupied:

       1A    -20.561975     2A    -11.273397     3A    -11.271615
       4A     -1.390093     5A     -0.969735     6A     -0.871526
       7A     -0.662960     8A     -0.656081     9A     -0.648294
      10A     -0.543628    11A     -0.523824    12A     -0.482420
      13A     -0.423846

  @DF-RHF Final Energy:  -154.12630034685887

   => Energetics <=

    Nuclear Repulsion Energy =             84.5079839952848033
    One-Electron Energy =                -376.7097798437088159
    Two-Electron Energy =                 138.0754955015651433
    Total Energy =                       -154.1263003468588693
  Basis Set: (AUG-CC-PVTZ AUX)
    Blend: AUG-CC-PVTZ-RI
    Molecular point group: c1

    Geometry (in Angstrom), charge = 0, multiplicity = 1:

       Center              X                  Y                   Z               Mass
    ------------   -----------------  -----------------  -----------------  -----------------
         O           -0.000000000000     0.541812954443     0.010742927160    15.994914619570
         C           -0.000000000000    -0.231165745557     1.136490227160    12.000000000000
         C           -0.000000000000    -0.259468045557    -1.156223072840    12.000000000000
         H            0.892156000000    -0.899995045557     1.225945927160     1.007825032230
         H           -0.892156000000    -0.899997045557     1.225945927160     1.007825032230
         H           -0.000000000000     0.421455954443     2.029579927160     1.007825032230
         H           -0.000000000000     0.421455954443    -2.008094072840     1.007825032230
         H            0.892156000000    -0.899995045557    -1.204460072840     1.007825032230
         H           -0.892156000000    -0.899997045557    -1.204460072840     1.007825032230

  Basis Set: AUG-CC-PVTZ
    Blend: AUG-CC-PVTZ
  Basis Set: (AUG-CC-PVTZ AUX)
    Blend: AUG-CC-PVTZ-JKFIT
	 Reference Energy          =    -154.1263003468588693 [Eh]
	 Singles Energy            =      -0.0000000000000000 [Eh]
	 Same-Spin Energy          =      -0.1454765397006336 [Eh]
	 Opposite-Spin Energy      =      -0.5157875102310840 [Eh]
	 Correlation Energy        =      -0.6612640499317177 [Eh]
	 Total Energy              =    -154.7875643967906001 [Eh]

	 ================> DF-SCS-MP2 Energies <==================
	-----------------------------------------------------------
	 SCS Same-Spin Scale       =       0.3333333333333333 [-]
	 SCS Opposite-Spin Scale   =       1.2000000000000000 [-]
	 SCS Same-Spin Energy      =      -0.0484921799002112 [Eh]
	 SCS Opposite-Spin Energy  =      -0.6189450122773008 [Eh]
	 SCS Correlation Energy    =      -0.6674371921775120 [Eh]
	 SCS Total Energy          =    -154.7937375390363854 [Eh]
	-----------------------------------------------------------

  Dipole Moment: [D]
     X:     0.0000      Y:    -1.2647      Z:    -0.1831     Total:     1.2779

*** Psi4 exiting successfully. Buy a developer a beer!
