                               Psi4 1.3.2 release

  ==> Input File <==

--------------------------------------------------------------------------
#psi4
#
memory 32 gb

molecule  {
0 1
  O       -0.0000010     0.6011430     0.0000000
  C       -1.1669900    -0.2004910     0.0000000
  C        1.1669920    -0.2004920     0.0000000
  H       -1.2147260    -0.8409820     0.8921650
  H       -1.2147200    -0.8409890    -0.8921600
  H       -2.0188950     0.4803440    -0.0000050
  H        2.0188940     0.4803480    -0.0000030
  H        1.2147250    -0.8409800     0.8921650
  H        1.2147210    -0.8409860    -0.8921610
units angstrom
no_reorient  #important for SAPT in psi4, default
symmetry c1  #important for SAPT in psi4, default
}

set PROPERTIES_ORIGIN ["COM"]
properties('MP2/aug-cc-pvtz', properties = ['dipole'])
--------------------------------------------------------------------------

    Molecular point group: c1
  Charge       = 0
  Multiplicity = 1
  Basis Set: AUG-CC-PVTZ
    Blend: AUG-CC-PVTZ
  Basis Set: (AUG-CC-PVTZ AUX)
    Blend: AUG-CC-PVTZ-JKFIT

    Orbital Energies [Eh]
    ---------------------

    Doubly Occupied:

       1A    -20.557684     2A    -11.270170     3A    -11.270151
       4A     -1.370271     5A     -0.965978     6A     -0.874493
       7A     -0.657447     8A     -0.648394     9A     -0.637382
      10A     -0.549152    11A     -0.524047    12A     -0.483547
      13A     -0.425581

  @DF-RHF Final Energy:  -154.12794281588501

   => Energetics <=

    Nuclear Repulsion Energy =             83.7988804823618239
    One-Electron Energy =                -375.3850496005644573
    Two-Electron Energy =                 137.4582263023176267
    Total Energy =                       -154.1279428158850067
  Basis Set: (AUG-CC-PVTZ AUX)
    Blend: AUG-CC-PVTZ-RI
    Molecular point group: c1

    Geometry (in Angstrom), charge = 0, multiplicity = 1:

       Center              X                  Y                   Z               Mass
    ------------   -----------------  -----------------  -----------------  -----------------
         O           -0.000001151976     0.549420844539    -0.000000021889    15.994914619570
         C           -1.166990151976    -0.252213155461    -0.000000021889    12.000000000000
         C            1.166991848024    -0.252214155461    -0.000000021889    12.000000000000
         H           -1.214726151976    -0.892704155461     0.892164978111     1.007825032230
         H           -1.214720151976    -0.892711155461    -0.892160021889     1.007825032230
         H           -2.018895151976     0.428621844539    -0.000005021889     1.007825032230
         H            2.018893848024     0.428625844539    -0.000003021889     1.007825032230
         H            1.214724848024    -0.892702155461     0.892164978111     1.007825032230
         H            1.214720848024    -0.892708155461    -0.892161021889     1.007825032230

  Basis Set: AUG-CC-PVTZ
    Blend: AUG-CC-PVTZ
  Basis Set: (AUG-CC-PVTZ AUX)
    Blend: AUG-CC-PVTZ-JKFIT
	 Reference Energy          =    -154.1279428158850067 [Eh]
	 Singles Energy            =      -0.0000000000000000 [Eh]
	 Same-Spin Energy          =      -0.1453979449292773 [Eh]
	 Opposite-Spin Energy      =      -0.5163898240329520 [Eh]
	 Correlation Energy        =      -0.6617877689622292 [Eh]
	 Total Energy              =    -154.7897305848472342 [Eh]

	 ================> DF-SCS-MP2 Energies <==================
	-----------------------------------------------------------
	 SCS Same-Spin Scale       =       0.3333333333333333 [-]
	 SCS Opposite-Spin Scale   =       1.2000000000000000 [-]
	 SCS Same-Spin Energy      =      -0.0484659816430924 [Eh]
	 SCS Opposite-Spin Energy  =      -0.6196677888395423 [Eh]
	 SCS Correlation Energy    =      -0.6681337704826348 [Eh]
	 SCS Total Energy          =    -154.7960765863676329 [Eh]
	-----------------------------------------------------------

  Dipole Moment: [D]
     X:     0.0000      Y:    -1.3612      Z:    -0.0000     Total:     1.3612

*** Psi4 exiting successfully. Buy a developer a beer!
