                               Psi4 1.3.2 release

  ==> Input File <==

--------------------------------------------------------------------------
#psi4
#
memory 32 gb

molecule  {
0 1
  O       -0.0000010     0.6011430     0.0000000
  C       -1.0845637    -0.1438703     0.0000000
  C        1.1669920    -0.2004920     0.0000000
  H       -1.2147260    -0.8409820     0.8921650
  H       -1.2147200    -0.8409890    -0.8921600
  H       -2.0188950     0.4803440    -0.0000050
  H        2.0188940     0.4803480    -0.0000030
  H        1.2147250    -0.8409800     0.8921650
  H        1.2147210    -0.8409860    -0.8921610
units angstrom
no_reorient  #important for SAPT in psi4, default
symmetry c1  #important for SAPT in psi4, default
}

set PROPERTIES_ORIGIN ["COM"]
properties('MP2/aug-cc-pvtz', properties = ['dipole'])
--------------------------------------------------------------------------

    Molecular point group: c1
  Charge       = 0
  Multiplicity = 1
  Basis Set: AUG-CC-PVTZ
    Blend: AUG-CC-PVTZ
  Basis Set: (AUG-CC-PVTZ AUX)
    Blend: AUG-CC-PVTZ-JKFIT

    Orbital Energies [Eh]
    ---------------------

    Doubly Occupied:

       1A    -20.566559     2A    -11.277018     3A    -11.274086
       4A     -1.412682     5A     -0.975167     6A     -0.867704
       7A     -0.670165     8A     -0.667299     9A     -0.657871
      10A     -0.540019    11A     -0.527580    12A     -0.475406
      13A     -0.419786

  @DF-RHF Final Energy:  -154.11910481958486

   => Energetics <=

    Nuclear Repulsion Energy =             85.2529194050112125
    One-Electron Energy =                -378.0813667727521761
    Two-Electron Energy =                 138.7093425481561155
    Total Energy =                       -154.1191048195848623
  Basis Set: (AUG-CC-PVTZ AUX)
    Blend: AUG-CC-PVTZ-RI
    Molecular point group: c1

    Geometry (in Angstrom), charge = 0, multiplicity = 1:

       Center              X                  Y                   Z               Mass
    ------------   -----------------  -----------------  -----------------  -----------------
         O           -0.021484113277     0.534663657732    -0.000000021889    15.994914619570
         C           -1.106046813277    -0.210349642268    -0.000000021889    12.000000000000
         C            1.145508886723    -0.266971342268    -0.000000021889    12.000000000000
         H           -1.236209113277    -0.907461342268     0.892164978111     1.007825032230
         H           -1.236203113277    -0.907468342268    -0.892160021889     1.007825032230
         H           -2.040378113277     0.413864657732    -0.000005021889     1.007825032230
         H            1.997410886723     0.413868657732    -0.000003021889     1.007825032230
         H            1.193241886723    -0.907459342268     0.892164978111     1.007825032230
         H            1.193237886723    -0.907465342268    -0.892161021889     1.007825032230

  Basis Set: AUG-CC-PVTZ
    Blend: AUG-CC-PVTZ
  Basis Set: (AUG-CC-PVTZ AUX)
    Blend: AUG-CC-PVTZ-JKFIT
	 Reference Energy          =    -154.1191048195848623 [Eh]
	 Singles Energy            =      -0.0000000000000000 [Eh]
	 Same-Spin Energy          =      -0.1456990826593579 [Eh]
	 Opposite-Spin Energy      =      -0.5154613673380951 [Eh]
	 Correlation Energy        =      -0.6611604499974530 [Eh]
	 Total Energy              =    -154.7802652695823156 [Eh]

	 ================> DF-SCS-MP2 Energies <==================
	-----------------------------------------------------------
	 SCS Same-Spin Scale       =       0.3333333333333333 [-]
	 SCS Opposite-Spin Scale   =       1.2000000000000000 [-]
	 SCS Same-Spin Energy      =      -0.0485663608864526 [Eh]
	 SCS Opposite-Spin Energy  =      -0.6185536408057141 [Eh]
	 SCS Correlation Energy    =      -0.6671200016921667 [Eh]
	 SCS Total Energy          =    -154.7862248212770169 [Eh]
	-----------------------------------------------------------

  Dipole Moment: [D]
     X:     0.3913      Y:    -1.1565      Z:    -0.0000     Total:     1.2209

*** Psi4 exiting successfully. Buy a developer a beer!
