                               Psi4 1.3.2 release

  ==> Input File <==

--------------------------------------------------------------------------
#psi4
#
memory 32 gb

molecule  {
0 1
  O       -0.0000010     0.6011430     0.0000000
  C       -1.0768035    -0.3180831     0.0000000
  C        1.1669920    -0.2004920     0.0000000
  H       -1.2147260    -0.8409820     0.8921650
  H       -1.2147200    -0.8409890    -0.8921600
  H       -2.0188950     0.4803440    -0.0000050
  H        2.0188940     0.4803480    -0.0000030
  H        1.2147250    -0.8409800     0.8921650
  H        1.2147210    -0.8409860    -0.8921610
units angstrom
no_reorient  #important for SAPT in psi4, default
symmetry c1  #important for SAPT in psi4, default
}

set PROPERTIES_ORIGIN ["COM"]
properties('MP2/aug-cc-pvtz', properties = ['dipole'])
--------------------------------------------------------------------------

    Molecular point group: c1
  Charge       = 0
  Multiplicity = 1
  Basis Set: AUG-CC-PVTZ
    Blend: AUG-CC-PVTZ
  Basis Set: (AUG-CC-PVTZ AUX)
    Blend: AUG-CC-PVTZ-JKFIT

    Orbital Energies [Eh]
    ---------------------

    Doubly Occupied:

       1A    -20.563684     2A    -11.272839     3A    -11.270057
       4A     -1.377289     5A     -0.961446     6A     -0.883210
       7A     -0.675107     8A     -0.644886     9A     -0.634037
      10A     -0.568303    11A     -0.503401    12A     -0.465257
      13A     -0.436785

  @DF-RHF Final Energy:  -154.10434371261050

   => Energetics <=

    Nuclear Repulsion Energy =             84.2084072465328006
    One-Electron Energy =                -376.1128981592450486
    Two-Electron Energy =                 137.8001472001017760
    Total Energy =                       -154.1043437126105005
  Basis Set: (AUG-CC-PVTZ AUX)
    Blend: AUG-CC-PVTZ-RI
    Molecular point group: c1

    Geometry (in Angstrom), charge = 0, multiplicity = 1:

       Center              X                  Y                   Z               Mass
    ------------   -----------------  -----------------  -----------------  -----------------
         O           -0.023506672536     0.580069151373    -0.000000021889    15.994914619570
         C           -1.100309172536    -0.339156948627    -0.000000021889    12.000000000000
         C            1.143486327464    -0.221565848627    -0.000000021889    12.000000000000
         H           -1.238231672536    -0.862055848627     0.892164978111     1.007825032230
         H           -1.238225672536    -0.862062848627    -0.892160021889     1.007825032230
         H           -2.042400672536     0.459270151373    -0.000005021889     1.007825032230
         H            1.995388327464     0.459274151373    -0.000003021889     1.007825032230
         H            1.191219327464    -0.862053848627     0.892164978111     1.007825032230
         H            1.191215327464    -0.862059848627    -0.892161021889     1.007825032230

  Basis Set: AUG-CC-PVTZ
    Blend: AUG-CC-PVTZ
  Basis Set: (AUG-CC-PVTZ AUX)
    Blend: AUG-CC-PVTZ-JKFIT
	 Reference Energy          =    -154.1043437126105005 [Eh]
	 Singles Energy            =      -0.0000000000000000 [Eh]
	 Same-Spin Energy          =      -0.1462370604266277 [Eh]
	 Opposite-Spin Energy      =      -0.5185089801737609 [Eh]
	 Correlation Energy        =      -0.6647460406003886 [Eh]
	 Total Energy              =    -154.7690897532108920 [Eh]

	 ================> DF-SCS-MP2 Energies <==================
	-----------------------------------------------------------
	 SCS Same-Spin Scale       =       0.3333333333333333 [-]
	 SCS Opposite-Spin Scale   =       1.2000000000000000 [-]
	 SCS Same-Spin Energy      =      -0.0487456868088759 [Eh]
	 SCS Opposite-Spin Energy  =      -0.6222107762085131 [Eh]
	 SCS Correlation Energy    =      -0.6709564630173890 [Eh]
	 SCS Total Energy          =    -154.7753001756278763 [Eh]
	-----------------------------------------------------------

  Dipole Moment: [D]
     X:     0.1411      Y:    -1.4974      Z:    -0.0000     Total:     1.5041

*** Psi4 exiting successfully. Buy a developer a beer!
