                               Psi4 1.4a3.dev225

  ==> Input File <==

--------------------------------------------------------------------------
#psi4
#
memory 32 gb

molecule  {
0 1
  O        0.0000000     0.6008970     0.0000000
  C        0.0000000    -0.2117049     1.1834535
  C        0.0000000    -0.2003840    -1.1669660
  H        0.8921560    -0.8409110     1.2152030
  H       -0.8921560    -0.8409130     1.2152030
  H        0.0000000     0.4805400     2.0188370
  H        0.0000000     0.4805400    -2.0188370
  H        0.8921560    -0.8409110    -1.2152030
  H       -0.8921560    -0.8409130    -1.2152030
units angstrom
no_reorient  #important for SAPT in psi4, default
symmetry c1  #important for SAPT in psi4, default
}

set PROPERTIES_ORIGIN ["COM"]
properties('MP2/aug-cc-pvtz', properties = ['dipole'])
--------------------------------------------------------------------------

    Molecular point group: c1
  Charge       = 0
  Multiplicity = 1
  Basis Set: AUG-CC-PVTZ
    Blend: AUG-CC-PVTZ
  Basis Set: (AUG-CC-PVTZ AUX)
    Blend: AUG-CC-PVTZ-JKFIT

    Orbital Energies [Eh]
    ---------------------

    Doubly Occupied:

       1A    -20.556065     2A    -11.269875     3A    -11.268956
       4A     -1.363301     5A     -0.965035     6A     -0.875355
       7A     -0.655743     8A     -0.646288     9A     -0.633044
      10A     -0.551677    11A     -0.525160    12A     -0.482271
      13A     -0.425722

  @DF-RHF Final Energy:  -154.12729857935219

   => Energetics <=

    Nuclear Repulsion Energy =             83.5320210156609448
    One-Electron Energy =                -374.8816511127516264
    Two-Electron Energy =                 137.2223315177384677
    Total Energy =                       -154.1272985793521855
  Basis Set: (AUG-CC-PVTZ AUX)
    Blend: AUG-CC-PVTZ-RI
    Molecular point group: c1

    Geometry (in Angstrom), charge = 0, multiplicity = 1:

       Center              X                  Y                   Z               Mass
    ------------   -----------------  -----------------  -----------------  -----------------
         O           -0.000000000000     0.552140042669    -0.004297176077    15.994914619570
         C           -0.000000000000    -0.260461857331     1.179156323923    12.000000000000
         C           -0.000000000000    -0.249140957331    -1.171263176077    12.000000000000
         H            0.892156000000    -0.889667957331     1.210905823923     1.007825032230
         H           -0.892156000000    -0.889669957331     1.210905823923     1.007825032230
         H           -0.000000000000     0.431783042669     2.014539823923     1.007825032230
         H           -0.000000000000     0.431783042669    -2.023134176077     1.007825032230
         H            0.892156000000    -0.889667957331    -1.219500176077     1.007825032230
         H           -0.892156000000    -0.889669957331    -1.219500176077     1.007825032230

  Basis Set: AUG-CC-PVTZ
    Blend: AUG-CC-PVTZ
  Basis Set: (AUG-CC-PVTZ AUX)
    Blend: AUG-CC-PVTZ-JKFIT
	 Reference Energy          =    -154.1272985793521855 [Eh]
	 Singles Energy            =      -0.0000000000000000 [Eh]
	 Same-Spin Energy          =      -0.1454013759539499 [Eh]
	 Opposite-Spin Energy      =      -0.5166846617963718 [Eh]
	 Correlation Energy        =      -0.6620860377503217 [Eh]
	 Total Energy              =    -154.7893846171025132 [Eh]

	 ================> DF-SCS-MP2 Energies <==================
	-----------------------------------------------------------
	 SCS Same-Spin Scale       =       0.3333333333333333 [-]
	 SCS Opposite-Spin Scale   =       1.2000000000000000 [-]
	 SCS Same-Spin Energy      =      -0.0484671253179833 [Eh]
	 SCS Opposite-Spin Energy  =      -0.6200215941556462 [Eh]
	 SCS Correlation Energy    =      -0.6684887194736294 [Eh]
	 SCS Total Energy          =    -154.7957872988258146 [Eh]
	-----------------------------------------------------------

  Dipole Moment: [D]
     X:     0.0000      Y:    -1.3948      Z:     0.0669     Total:     1.3964

*** Psi4 exiting successfully. Buy a developer a beer!
