                               Psi4 1.4a3.dev225

  ==> Input File <==

--------------------------------------------------------------------------
#psi4
#
memory 32 gb

molecule  {
0 1
  O        0.0000000     0.6008970     0.0000000
  C        0.0000000    -0.2286863     1.2081847
  C        0.0000000    -0.2003840    -1.1669660
  H        0.8921560    -0.8409110     1.2152030
  H       -0.8921560    -0.8409130     1.2152030
  H        0.0000000     0.4805400     2.0188370
  H        0.0000000     0.4805400    -2.0188370
  H        0.8921560    -0.8409110    -1.2152030
  H       -0.8921560    -0.8409130    -1.2152030
units angstrom
no_reorient  #important for SAPT in psi4, default
symmetry c1  #important for SAPT in psi4, default
}

set PROPERTIES_ORIGIN ["COM"]
properties('MP2/aug-cc-pvtz', properties = ['dipole'])
--------------------------------------------------------------------------

    Molecular point group: c1
  Charge       = 0
  Multiplicity = 1
  Basis Set: AUG-CC-PVTZ
    Blend: AUG-CC-PVTZ
  Basis Set: (AUG-CC-PVTZ AUX)
    Blend: AUG-CC-PVTZ-JKFIT

    Orbital Energies [Eh]
    ---------------------

    Doubly Occupied:

       1A    -20.553630     2A    -11.269759     3A    -11.267225
       4A     -1.353365     5A     -0.963999     6A     -0.876392
       7A     -0.653619     8A     -0.643796     9A     -0.626518
      10A     -0.555652    11A     -0.527442    12A     -0.479017
      13A     -0.425479

  @DF-RHF Final Energy:  -154.12508586210683

   => Energetics <=

    Nuclear Repulsion Energy =             83.1356889744919698
    One-Electron Energy =                -374.1297641407057881
    Two-Electron Energy =                 136.8689893041069752
    Total Energy =                       -154.1250858621068289
  Basis Set: (AUG-CC-PVTZ AUX)
    Blend: AUG-CC-PVTZ-RI
    Molecular point group: c1

    Geometry (in Angstrom), charge = 0, multiplicity = 1:

       Center              X                  Y                   Z               Mass
    ------------   -----------------  -----------------  -----------------  -----------------
         O           -0.000000000000     0.556565945070    -0.010742927160    15.994914619570
         C           -0.000000000000    -0.273017354930     1.197441772840    12.000000000000
         C           -0.000000000000    -0.244715054930    -1.177708927160    12.000000000000
         H            0.892156000000    -0.885242054930     1.204460072840     1.007825032230
         H           -0.892156000000    -0.885244054930     1.204460072840     1.007825032230
         H           -0.000000000000     0.436208945070     2.008094072840     1.007825032230
         H           -0.000000000000     0.436208945070    -2.029579927160     1.007825032230
         H            0.892156000000    -0.885242054930    -1.225945927160     1.007825032230
         H           -0.892156000000    -0.885244054930    -1.225945927160     1.007825032230

  Basis Set: AUG-CC-PVTZ
    Blend: AUG-CC-PVTZ
  Basis Set: (AUG-CC-PVTZ AUX)
    Blend: AUG-CC-PVTZ-JKFIT
	 Reference Energy          =    -154.1250858621068289 [Eh]
	 Singles Energy            =      -0.0000000000000000 [Eh]
	 Same-Spin Energy          =      -0.1454493218415415 [Eh]
	 Opposite-Spin Energy      =      -0.5172159992414805 [Eh]
	 Correlation Energy        =      -0.6626653210830220 [Eh]
	 Total Energy              =    -154.7877511831898403 [Eh]

	 ================> DF-SCS-MP2 Energies <==================
	-----------------------------------------------------------
	 SCS Same-Spin Scale       =       0.3333333333333333 [-]
	 SCS Opposite-Spin Scale   =       1.2000000000000000 [-]
	 SCS Same-Spin Energy      =      -0.0484831072805138 [Eh]
	 SCS Opposite-Spin Energy  =      -0.6206591990897766 [Eh]
	 SCS Correlation Energy    =      -0.6691423063702905 [Eh]
	 SCS Total Energy          =    -154.7942281684771331 [Eh]
	-----------------------------------------------------------

  Dipole Moment: [D]
     X:     0.0000      Y:    -1.4433      Z:     0.1610     Total:     1.4523

*** Psi4 exiting successfully. Buy a developer a beer!
