                               Psi4 1.4a3.dev225

  ==> Input File <==

--------------------------------------------------------------------------
#psi4
#
memory 32 gb

molecule  {
0 1
  O        0.0000000     0.6008970     0.0000000
  C        0.0000000    -0.1890631     1.1504785
  C        0.0000000    -0.2003840    -1.1669660
  H        0.8921560    -0.8409110     1.2152030
  H       -0.8921560    -0.8409130     1.2152030
  H        0.0000000     0.4805400     2.0188370
  H        0.0000000     0.4805400    -2.0188370
  H        0.8921560    -0.8409110    -1.2152030
  H       -0.8921560    -0.8409130    -1.2152030
units angstrom
no_reorient  #important for SAPT in psi4, default
symmetry c1  #important for SAPT in psi4, default
}

set PROPERTIES_ORIGIN ["COM"]
properties('MP2/aug-cc-pvtz', properties = ['dipole'])
--------------------------------------------------------------------------

    Molecular point group: c1
  Charge       = 0
  Multiplicity = 1
  Basis Set: AUG-CC-PVTZ
    Blend: AUG-CC-PVTZ
  Basis Set: (AUG-CC-PVTZ AUX)
    Blend: AUG-CC-PVTZ-JKFIT

    Orbital Energies [Eh]
    ---------------------

    Doubly Occupied:

       1A    -20.559387     2A    -11.271416     3A    -11.270618
       4A     -1.377944     5A     -0.967308     6A     -0.873406
       7A     -0.659469     8A     -0.651041     9A     -0.641945
      10A     -0.546763    11A     -0.523452    12A     -0.483852
      13A     -0.425132

  @DF-RHF Final Energy:  -154.12789299040122

   => Energetics <=

    Nuclear Repulsion Energy =             84.0801749562917706
    One-Electron Energy =                -375.9126698875354009
    Two-Electron Energy =                 137.7046019408423945
    Total Energy =                       -154.1278929904012216
  Basis Set: (AUG-CC-PVTZ AUX)
    Blend: AUG-CC-PVTZ-RI
    Molecular point group: c1

    Geometry (in Angstrom), charge = 0, multiplicity = 1:

       Center              X                  Y                   Z               Mass
    ------------   -----------------  -----------------  -----------------  -----------------
         O           -0.000000000000     0.546238856844     0.004297176077    15.994914619570
         C           -0.000000000000    -0.243721243156     1.154775676077    12.000000000000
         C           -0.000000000000    -0.255042143156    -1.162668823923    12.000000000000
         H            0.892156000000    -0.895569143156     1.219500176077     1.007825032230
         H           -0.892156000000    -0.895571143156     1.219500176077     1.007825032230
         H           -0.000000000000     0.425881856844     2.023134176077     1.007825032230
         H           -0.000000000000     0.425881856844    -2.014539823923     1.007825032230
         H            0.892156000000    -0.895569143156    -1.210905823923     1.007825032230
         H           -0.892156000000    -0.895571143156    -1.210905823923     1.007825032230

  Basis Set: AUG-CC-PVTZ
    Blend: AUG-CC-PVTZ
  Basis Set: (AUG-CC-PVTZ AUX)
    Blend: AUG-CC-PVTZ-JKFIT
	 Reference Energy          =    -154.1278929904012216 [Eh]
	 Singles Energy            =      -0.0000000000000000 [Eh]
	 Same-Spin Energy          =      -0.1454113228595147 [Eh]
	 Opposite-Spin Energy      =      -0.5161117667399295 [Eh]
	 Correlation Energy        =      -0.6615230895994443 [Eh]
	 Total Energy              =    -154.7894160800006773 [Eh]

	 ================> DF-SCS-MP2 Energies <==================
	-----------------------------------------------------------
	 SCS Same-Spin Scale       =       0.3333333333333333 [-]
	 SCS Opposite-Spin Scale   =       1.2000000000000000 [-]
	 SCS Same-Spin Energy      =      -0.0484704409531716 [Eh]
	 SCS Opposite-Spin Energy  =      -0.6193341200879154 [Eh]
	 SCS Correlation Energy    =      -0.6678045610410870 [Eh]
	 SCS Total Energy          =    -154.7956975514423164 [Eh]
	-----------------------------------------------------------

  Dipole Moment: [D]
     X:     0.0000      Y:    -1.3235      Z:    -0.0704     Total:     1.3254

*** Psi4 exiting successfully. Buy a developer a beer!
