                               Psi4 1.3.2 release

  ==> Input File <==

--------------------------------------------------------------------------
#psi4
#
memory 32 gb

molecule  {
0 1
  O       -0.0000010     0.6011430     0.0000000
  C       -1.0021374    -0.0872496     0.0000000
  C        1.1669920    -0.2004920     0.0000000
  H       -1.2147260    -0.8409820     0.8921650
  H       -1.2147200    -0.8409890    -0.8921600
  H       -2.0188950     0.4803440    -0.0000050
  H        2.0188940     0.4803480    -0.0000030
  H        1.2147250    -0.8409800     0.8921650
  H        1.2147210    -0.8409860    -0.8921610
units angstrom
no_reorient  #important for SAPT in psi4, default
symmetry c1  #important for SAPT in psi4, default
}

set PROPERTIES_ORIGIN ["COM"]
properties('MP2/aug-cc-pvtz', properties = ['dipole'])
--------------------------------------------------------------------------

    Molecular point group: c1
  Charge       = 0
  Multiplicity = 1
  Basis Set: AUG-CC-PVTZ
    Blend: AUG-CC-PVTZ
  Basis Set: (AUG-CC-PVTZ AUX)
    Blend: AUG-CC-PVTZ-JKFIT

    Orbital Energies [Eh]
    ---------------------

    Doubly Occupied:

       1A    -20.577793     2A    -11.285915     3A    -11.282018
       4A     -1.469084     5A     -0.991922     6A     -0.858302
       7A     -0.693550     8A     -0.691002     9A     -0.680141
      10A     -0.541223    11A     -0.540761    12A     -0.450894
      13A     -0.403521

  @DF-RHF Final Energy:  -154.08280395902767

   => Energetics <=

    Nuclear Repulsion Energy =             86.9177919563220343
    One-Electron Energy =                -381.0689372091976566
    Two-Electron Energy =                 140.0683412938479364
    Total Energy =                       -154.0828039590276717
  Basis Set: (AUG-CC-PVTZ AUX)
    Blend: AUG-CC-PVTZ-RI
    Molecular point group: c1

    Geometry (in Angstrom), charge = 0, multiplicity = 1:

       Center              X                  Y                   Z               Mass
    ------------   -----------------  -----------------  -----------------  -----------------
         O           -0.042967074578     0.519906470924    -0.000000021889    15.994914619570
         C           -1.045103474578    -0.168486129076    -0.000000021889    12.000000000000
         C            1.124025925422    -0.281728529076    -0.000000021889    12.000000000000
         H           -1.257692074578    -0.922218529076     0.892164978111     1.007825032230
         H           -1.257686074578    -0.922225529076    -0.892160021889     1.007825032230
         H           -2.061861074578     0.399107470924    -0.000005021889     1.007825032230
         H            1.975927925422     0.399111470924    -0.000003021889     1.007825032230
         H            1.171758925422    -0.922216529076     0.892164978111     1.007825032230
         H            1.171754925422    -0.922222529076    -0.892161021889     1.007825032230

  Basis Set: AUG-CC-PVTZ
    Blend: AUG-CC-PVTZ
  Basis Set: (AUG-CC-PVTZ AUX)
    Blend: AUG-CC-PVTZ-JKFIT
	 Reference Energy          =    -154.0828039590276717 [Eh]
	 Singles Energy            =      -0.0000000000000000 [Eh]
	 Same-Spin Energy          =      -0.1465499131351848 [Eh]
	 Opposite-Spin Energy      =      -0.5155578355672696 [Eh]
	 Correlation Energy        =      -0.6621077487024545 [Eh]
	 Total Energy              =    -154.7449117077301253 [Eh]

	 ================> DF-SCS-MP2 Energies <==================
	-----------------------------------------------------------
	 SCS Same-Spin Scale       =       0.3333333333333333 [-]
	 SCS Opposite-Spin Scale   =       1.2000000000000000 [-]
	 SCS Same-Spin Energy      =      -0.0488499710450616 [Eh]
	 SCS Opposite-Spin Energy  =      -0.6186694026807236 [Eh]
	 SCS Correlation Energy    =      -0.6675193737257852 [Eh]
	 SCS Total Energy          =    -154.7503233327534531 [Eh]
	-----------------------------------------------------------

  Dipole Moment: [D]
     X:     0.9006      Y:    -0.8882      Z:    -0.0000     Total:     1.2649

*** Psi4 exiting successfully. Buy a developer a beer!
