                               Psi4 1.3.2 release

  ==> Input File <==

--------------------------------------------------------------------------
#psi4
#
memory 32 gb

molecule  {
0 1
  O       -0.0000010     0.6011430     0.0000000
  C       -1.1528218    -0.2207357     0.0000000
  C        1.1669920    -0.2004920     0.0000000
  H       -1.2147260    -0.8409820     0.8921650
  H       -1.2147200    -0.8409890    -0.8921600
  H       -2.0188950     0.4803440    -0.0000050
  H        2.0188940     0.4803480    -0.0000030
  H        1.2147250    -0.8409800     0.8921650
  H        1.2147210    -0.8409860    -0.8921610
units angstrom
no_reorient  #important for SAPT in psi4, default
symmetry c1  #important for SAPT in psi4, default
}

set PROPERTIES_ORIGIN ["COM"]
properties('MP2/aug-cc-pvtz', properties = ['dipole'])
--------------------------------------------------------------------------

    Molecular point group: c1
  Charge       = 0
  Multiplicity = 1
  Basis Set: AUG-CC-PVTZ
    Blend: AUG-CC-PVTZ
  Basis Set: (AUG-CC-PVTZ AUX)
    Blend: AUG-CC-PVTZ-JKFIT

    Orbital Energies [Eh]
    ---------------------

    Doubly Occupied:

       1A    -20.558463     2A    -11.270011     3A    -11.269929
       4A     -1.371196     5A     -0.964925     6A     -0.875572
       7A     -0.659991     8A     -0.645499     9A     -0.638176
      10A     -0.552631    11A     -0.517621    12A     -0.484239
      13A     -0.427610

  @DF-RHF Final Energy:  -154.12697290001174

   => Energetics <=

    Nuclear Repulsion Energy =             83.8639382674072493
    One-Electron Energy =                -375.5100970623628314
    Two-Electron Energy =                 137.5191858949438313
    Total Energy =                       -154.1269729000117366
  Basis Set: (AUG-CC-PVTZ AUX)
    Blend: AUG-CC-PVTZ-RI
    Molecular point group: c1

    Geometry (in Angstrom), charge = 0, multiplicity = 1:

       Center              X                  Y                   Z               Mass
    ------------   -----------------  -----------------  -----------------  -----------------
         O           -0.003693843414     0.554697268528    -0.000000021889    15.994914619570
         C           -1.156514643414    -0.267181431472    -0.000000021889    12.000000000000
         C            1.163299156586    -0.246937731472    -0.000000021889    12.000000000000
         H           -1.218418843414    -0.887427731472     0.892164978111     1.007825032230
         H           -1.218412843414    -0.887434731472    -0.892160021889     1.007825032230
         H           -2.022587843414     0.433898268528    -0.000005021889     1.007825032230
         H            2.015201156586     0.433902268528    -0.000003021889     1.007825032230
         H            1.211032156586    -0.887425731472     0.892164978111     1.007825032230
         H            1.211028156586    -0.887431731472    -0.892161021889     1.007825032230

  Basis Set: AUG-CC-PVTZ
    Blend: AUG-CC-PVTZ
  Basis Set: (AUG-CC-PVTZ AUX)
    Blend: AUG-CC-PVTZ-JKFIT
	 Reference Energy          =    -154.1269729000117366 [Eh]
	 Singles Energy            =      -0.0000000000000000 [Eh]
	 Same-Spin Energy          =      -0.1454807136220130 [Eh]
	 Opposite-Spin Energy      =      -0.5165860498009370 [Eh]
	 Correlation Energy        =      -0.6620667634229500 [Eh]
	 Total Energy              =    -154.7890396634346928 [Eh]

	 ================> DF-SCS-MP2 Energies <==================
	-----------------------------------------------------------
	 SCS Same-Spin Scale       =       0.3333333333333333 [-]
	 SCS Opposite-Spin Scale   =       1.2000000000000000 [-]
	 SCS Same-Spin Energy      =      -0.0484935712073377 [Eh]
	 SCS Opposite-Spin Energy  =      -0.6199032597611244 [Eh]
	 SCS Correlation Energy    =      -0.6683968309684620 [Eh]
	 SCS Total Energy          =    -154.7953697309802124 [Eh]
	-----------------------------------------------------------

  Dipole Moment: [D]
     X:     0.0148      Y:    -1.3866      Z:    -0.0000     Total:     1.3867

*** Psi4 exiting successfully. Buy a developer a beer!
