                               Psi4 1.4a2.dev612

  ==> Input File <==

--------------------------------------------------------------------------
#psi4
#
memory 32 gb

molecule  {
0 1
  N        0.8160970    -0.2990240    -0.0443680
  N        1.3585440    -1.5263750    -0.2734470
  N       -1.0817850     0.9875590    -0.4601130
  N       -1.2686320    -1.2431920     0.4227390
  C        1.7597130     0.6951090     0.1272320
  C        2.9786120     0.0532150     0.0016160
  C       -0.5903530    -0.1795160    -0.0248380
  C        1.4539390     2.1247050     0.4316710
  C        2.6793880    -1.2992810    -0.2463060
  C       -2.4210880     1.0928180    -0.4382200
  C       -2.6039190    -1.1175230     0.3972460
  C       -3.2414650     0.0469210    -0.0276130
  H        3.9528590     0.5149220     0.0929350
  H        1.0131890     2.6387050    -0.4244530
  H        0.7544440     2.2203260     1.2670250
  H        2.3864280     2.6245280     0.7070350
  H        3.3561510    -2.1272050    -0.4162310
  H       -2.8304840     2.0415190    -0.7796900
  H       -3.1684390    -1.9801170     0.7461500
  H       -4.3238429     0.1182637    -0.0779606
units angstrom
no_reorient  #important for SAPT in psi4, default
symmetry c1  #important for SAPT in psi4, default
}

set PROPERTIES_ORIGIN ["COM"]
properties('MP2/aug-cc-pvtz', properties = ['dipole'])
--------------------------------------------------------------------------

    Molecular point group: c1
  Charge       = 0
  Multiplicity = 1
  Basis Set: AUG-CC-PVTZ
    Blend: AUG-CC-PVTZ
  Basis Set: (AUG-CC-PVTZ AUX)
    Blend: AUG-CC-PVTZ-JKFIT

    Orbital Energies [Eh]
    ---------------------

    Doubly Occupied:

       1A    -15.642126     2A    -15.582458     3A    -15.581458
       4A    -15.578639     5A    -11.367408     6A    -11.311567
       7A    -11.309462     8A    -11.286758     9A    -11.254553
      10A    -11.252760    11A    -11.234695    12A    -11.217313
      13A     -1.386334    14A     -1.312558    15A     -1.206041
      16A     -1.129401    17A     -1.084208    18A     -1.044982
      19A     -0.958792    20A     -0.909070    21A     -0.896520
      22A     -0.800136    23A     -0.795232    24A     -0.713140
      25A     -0.707334    26A     -0.682371    27A     -0.638396
      28A     -0.633171    29A     -0.607197    30A     -0.589557
      31A     -0.586726    32A     -0.575103    33A     -0.563978
      34A     -0.552568    35A     -0.535901    36A     -0.491699
      37A     -0.455098    38A     -0.430493    39A     -0.420231
      40A     -0.407646    41A     -0.338071    42A     -0.332373

  @DF-RHF Final Energy:  -525.54348495294880

   => Energetics <=

    Nuclear Repulsion Energy =            658.2702525553735313
    One-Electron Energy =               -2018.8204217585991955
    Two-Electron Energy =                 835.0066842502769759
    Total Energy =                       -525.5434849529488019
  Basis Set: (AUG-CC-PVTZ AUX)
    Blend: AUG-CC-PVTZ-RI
    Molecular point group: c1

    Geometry (in Angstrom), charge = 0, multiplicity = 1:

       Center              X                  Y                   Z               Mass
    ------------   -----------------  -----------------  -----------------  -----------------
         N            0.823182760094    -0.261259311542    -0.036866836150    14.003074004430
         N            1.365629760094    -1.488610311542    -0.265945836150    14.003074004430
         N           -1.074699239906     1.025323688458    -0.452611836150    14.003074004430
         N           -1.261546239906    -1.205427311542     0.430240163850    14.003074004430
         C            1.766798760094     0.732873688458     0.134733163850    12.000000000000
         C            2.985697760094     0.090979688458     0.009117163850    12.000000000000
         C           -0.583267239906    -0.141751311542    -0.017336836150    12.000000000000
         C            1.461024760094     2.162469688458     0.439172163850    12.000000000000
         C            2.686473760094    -1.261516311542    -0.238804836150    12.000000000000
         C           -2.414002239906     1.130582688458    -0.430718836150    12.000000000000
         C           -2.596833239906    -1.079758311542     0.404747163850    12.000000000000
         C           -3.234379239906     0.084685688458    -0.020111836150    12.000000000000
         H            3.959944760094     0.552686688458     0.100436163850     1.007825032230
         H            1.020274760094     2.676469688458    -0.416951836150     1.007825032230
         H            0.761529760094     2.258090688458     1.274526163850     1.007825032230
         H            2.393513760094     2.662292688458     0.714536163850     1.007825032230
         H            3.363236760094    -2.089440311542    -0.408729836150     1.007825032230
         H           -2.823398239906     2.079283688458    -0.772188836150     1.007825032230
         H           -3.161353239906    -1.942352311542     0.753651163850     1.007825032230
         H           -4.316757139906     0.156028388458    -0.070459436150     1.007825032230

  Basis Set: AUG-CC-PVTZ
    Blend: AUG-CC-PVTZ
  Basis Set: (AUG-CC-PVTZ AUX)
    Blend: AUG-CC-PVTZ-JKFIT
	 Reference Energy          =    -525.5434849529488019 [Eh]
	 Singles Energy            =      -0.0000000000000000 [Eh]
	 Same-Spin Energy          =      -0.5775636739426907 [Eh]
	 Opposite-Spin Energy      =      -1.7386380106631463 [Eh]
	 Correlation Energy        =      -2.3162016846058369 [Eh]
	 Total Energy              =    -527.8596866375546597 [Eh]

	 ================> DF-SCS-MP2 Energies <==================
	-----------------------------------------------------------
	 SCS Same-Spin Scale       =       0.3333333333333333 [-]
	 SCS Opposite-Spin Scale   =       1.2000000000000000 [-]
	 SCS Same-Spin Energy      =      -0.1925212246475635 [Eh]
	 SCS Opposite-Spin Energy  =      -2.0863656127957753 [Eh]
	 SCS Correlation Energy    =      -2.2788868374433386 [Eh]
	 SCS Total Energy          =    -527.8223717903921397 [Eh]
	-----------------------------------------------------------

  Dipole Moment: [D]
     X:    -2.5779      Y:     2.5446      Z:     0.4097     Total:     3.6454

*** Psi4 exiting successfully. Buy a developer a beer!
