                               Psi4 1.4a2.dev612

  ==> Input File <==

--------------------------------------------------------------------------
#psi4
#
memory 32 gb

molecule  {
0 1
  N        0.8160970    -0.2990240    -0.0443680
  N        1.3585440    -1.5263750    -0.2734470
  N       -1.0817850     0.9875590    -0.4601130
  N       -1.2686320    -1.2431920     0.4227390
  C        1.7597130     0.6951090     0.1272320
  C        2.9786120     0.0532150     0.0016160
  C       -0.5903530    -0.1795160    -0.0248380
  C        1.4539390     2.1247050     0.4316710
  C        2.6793880    -1.2992810    -0.2463060
  C       -2.4210880     1.0928180    -0.4382200
  C       -2.6039190    -1.1175230     0.3972460
  C       -3.2414650     0.0469210    -0.0276130
  H        3.9528590     0.5149220     0.0929350
  H        1.0131890     2.6387050    -0.4244530
  H        0.7544440     2.2203260     1.2670250
  H        2.3864280     2.6245280     0.7070350
  H        3.3561510    -2.1272050    -0.4162310
  H       -2.8304840     2.0415190    -0.7796900
  H       -3.1684390    -1.9801170     0.7461500
  H       -4.3296626     0.0303174    -0.3119084
units angstrom
no_reorient  #important for SAPT in psi4, default
symmetry c1  #important for SAPT in psi4, default
}

set PROPERTIES_ORIGIN ["COM"]
properties('MP2/aug-cc-pvtz', properties = ['dipole'])
--------------------------------------------------------------------------

    Molecular point group: c1
  Charge       = 0
  Multiplicity = 1
  Basis Set: AUG-CC-PVTZ
    Blend: AUG-CC-PVTZ
  Basis Set: (AUG-CC-PVTZ AUX)
    Blend: AUG-CC-PVTZ-JKFIT

    Orbital Energies [Eh]
    ---------------------

    Doubly Occupied:

       1A    -15.642606     2A    -15.582912     3A    -15.581787
       4A    -15.578818     5A    -11.368199     6A    -11.312286
       7A    -11.309847     8A    -11.287200     9A    -11.255684
      10A    -11.255015    11A    -11.234923    12A    -11.217664
      13A     -1.386793    14A     -1.313012    15A     -1.206484
      16A     -1.129600    17A     -1.084379    18A     -1.044183
      19A     -0.959074    20A     -0.909385    21A     -0.895622
      22A     -0.800489    23A     -0.795569    24A     -0.712996
      25A     -0.706411    26A     -0.677948    27A     -0.639296
      28A     -0.628130    29A     -0.607673    30A     -0.589734
      31A     -0.587328    32A     -0.574935    33A     -0.564127
      34A     -0.552107    35A     -0.535986    36A     -0.490979
      37A     -0.455495    38A     -0.430809    39A     -0.420547
      40A     -0.406618    41A     -0.338322    42A     -0.332692

  @DF-RHF Final Energy:  -525.53769642244197

   => Energetics <=

    Nuclear Repulsion Energy =            658.1205175943287031
    One-Electron Energy =               -2018.5090985103202001
    Two-Electron Energy =                 834.8508844935495290
    Total Energy =                       -525.5376964224419680
  Basis Set: (AUG-CC-PVTZ AUX)
    Blend: AUG-CC-PVTZ-RI
    Molecular point group: c1

    Geometry (in Angstrom), charge = 0, multiplicity = 1:

       Center              X                  Y                   Z               Mass
    ------------   -----------------  -----------------  -----------------  -----------------
         N            0.823219400688    -0.260705605217    -0.035393910322    14.003074004430
         N            1.365666400688    -1.488056605217    -0.264472910322    14.003074004430
         N           -1.074662599312     1.025877394783    -0.451138910322    14.003074004430
         N           -1.261509599312    -1.204873605217     0.431713089678    14.003074004430
         C            1.766835400688     0.733427394783     0.136206089678    12.000000000000
         C            2.985734400688     0.091533394783     0.010590089678    12.000000000000
         C           -0.583230599312    -0.141197605217    -0.015863910322    12.000000000000
         C            1.461061400688     2.163023394783     0.440645089678    12.000000000000
         C            2.686510400688    -1.260962605217    -0.237331910322    12.000000000000
         C           -2.413965599312     1.131136394783    -0.429245910322    12.000000000000
         C           -2.596796599312    -1.079204605217     0.406220089678    12.000000000000
         C           -3.234342599312     0.085239394783    -0.018638910322    12.000000000000
         H            3.959981400688     0.553240394783     0.101909089678     1.007825032230
         H            1.020311400688     2.677023394783    -0.415478910322     1.007825032230
         H            0.761566400688     2.258644394783     1.275999089678     1.007825032230
         H            2.393550400688     2.662846394783     0.716009089678     1.007825032230
         H            3.363273400688    -2.088886605217    -0.407256910322     1.007825032230
         H           -2.823361599312     2.079837394783    -0.770715910322     1.007825032230
         H           -3.161316599312    -1.941798605217     0.755124089678     1.007825032230
         H           -4.322540199312     0.068635794783    -0.302934310322     1.007825032230

  Basis Set: AUG-CC-PVTZ
    Blend: AUG-CC-PVTZ
  Basis Set: (AUG-CC-PVTZ AUX)
    Blend: AUG-CC-PVTZ-JKFIT
	 Reference Energy          =    -525.5376964224419680 [Eh]
	 Singles Energy            =      -0.0000000000000000 [Eh]
	 Same-Spin Energy          =      -0.5777154950842999 [Eh]
	 Opposite-Spin Energy      =      -1.7390799312194993 [Eh]
	 Correlation Energy        =      -2.3167954263037993 [Eh]
	 Total Energy              =    -527.8544918487457380 [Eh]

	 ================> DF-SCS-MP2 Energies <==================
	-----------------------------------------------------------
	 SCS Same-Spin Scale       =       0.3333333333333333 [-]
	 SCS Opposite-Spin Scale   =       1.2000000000000000 [-]
	 SCS Same-Spin Energy      =      -0.1925718316947666 [Eh]
	 SCS Opposite-Spin Energy  =      -2.0868959174633992 [Eh]
	 SCS Correlation Energy    =      -2.2794677491581656 [Eh]
	 SCS Total Energy          =    -527.8171641716000977 [Eh]
	-----------------------------------------------------------

  Dipole Moment: [D]
     X:    -2.5018      Y:     2.4885      Z:     0.2609     Total:     3.5383

*** Psi4 exiting successfully. Buy a developer a beer!
