                               Psi4 1.4a2.dev612

  ==> Input File <==

--------------------------------------------------------------------------
#psi4
#
memory 32 gb

molecule  {
0 1
  N        0.8160970    -0.2990240    -0.0443680
  N        1.3585440    -1.5263750    -0.2734470
  N       -1.0817850     0.9875590    -0.4601130
  N       -1.2686320    -1.2431920     0.4227390
  C        1.7597130     0.6951090     0.1272320
  C        2.9786120     0.0532150     0.0016160
  C       -0.5903530    -0.1795160    -0.0248380
  C        1.4539390     2.1247050     0.4316710
  C        2.6793880    -1.2992810    -0.2463060
  C       -2.4210880     1.0928180    -0.4382200
  C       -2.6039190    -1.1175230     0.3972460
  C       -3.2414650     0.0469210    -0.0276130
  H        3.9528590     0.5149220     0.0929350
  H        1.0131890     2.6387050    -0.4244530
  H        0.7544440     2.2203260     1.2670250
  H        2.3864280     2.6245280     0.7070350
  H        3.3561510    -2.1272050    -0.4162310
  H       -2.8304840     2.0415190    -0.7796900
  H       -3.1684390    -1.9801170     0.7461500
  H       -4.3261708     0.0830852    -0.1715397
units angstrom
no_reorient  #important for SAPT in psi4, default
symmetry c1  #important for SAPT in psi4, default
}

set PROPERTIES_ORIGIN ["COM"]
properties('MP2/aug-cc-pvtz', properties = ['dipole'])
--------------------------------------------------------------------------

    Molecular point group: c1
  Charge       = 0
  Multiplicity = 1
  Basis Set: AUG-CC-PVTZ
    Blend: AUG-CC-PVTZ
  Basis Set: (AUG-CC-PVTZ AUX)
    Blend: AUG-CC-PVTZ-JKFIT

    Orbital Energies [Eh]
    ---------------------

    Doubly Occupied:

       1A    -15.642236     2A    -15.582587     3A    -15.581526
       4A    -15.578659     5A    -11.367586     6A    -11.311753
       7A    -11.309518     8A    -11.286868     9A    -11.254670
      10A    -11.253430    11A    -11.234737    12A    -11.217389
      13A     -1.386439    14A     -1.312662    15A     -1.206140
      16A     -1.129444    17A     -1.084242    18A     -1.044785
      19A     -0.958851    20A     -0.909139    21A     -0.896295
      22A     -0.800220    23A     -0.795304    24A     -0.713075
      25A     -0.707058    26A     -0.681277    27A     -0.638782
      28A     -0.631946    29A     -0.607335    30A     -0.589576
      31A     -0.586930    32A     -0.575032    33A     -0.564014
      34A     -0.552363    35A     -0.535919    36A     -0.491608
      37A     -0.455196    38A     -0.430542    39A     -0.420308
      40A     -0.407367    41A     -0.338147    42A     -0.332441

  @DF-RHF Final Energy:  -525.54227758291927

   => Energetics <=

    Nuclear Repulsion Energy =            658.2346276671355554
    One-Electron Energy =               -2018.7470134320963098
    Two-Electron Energy =                 834.9701081820414856
    Total Energy =                       -525.5422775829192688
  Basis Set: (AUG-CC-PVTZ AUX)
    Blend: AUG-CC-PVTZ-RI
    Molecular point group: c1

    Geometry (in Angstrom), charge = 0, multiplicity = 1:

       Center              X                  Y                   Z               Mass
    ------------   -----------------  -----------------  -----------------  -----------------
         N            0.823197416457    -0.261037829138    -0.036277665945    14.003074004430
         N            1.365644416457    -1.488388829138    -0.265356665945    14.003074004430
         N           -1.074684583543     1.025545170862    -0.452022665945    14.003074004430
         N           -1.261531583543    -1.205205829138     0.430829334055    14.003074004430
         C            1.766813416457     0.733095170862     0.135322334055    12.000000000000
         C            2.985712416457     0.091201170862     0.009706334055    12.000000000000
         C           -0.583252583543    -0.141529829138    -0.016747665945    12.000000000000
         C            1.461039416457     2.162691170862     0.439761334055    12.000000000000
         C            2.686488416457    -1.261294829138    -0.238215665945    12.000000000000
         C           -2.413987583543     1.130804170862    -0.430129665945    12.000000000000
         C           -2.596818583543    -1.079536829138     0.405336334055    12.000000000000
         C           -3.234364583543     0.084907170862    -0.019522665945    12.000000000000
         H            3.959959416457     0.552908170862     0.101025334055     1.007825032230
         H            1.020289416457     2.676691170862    -0.416362665945     1.007825032230
         H            0.761544416457     2.258312170862     1.275115334055     1.007825032230
         H            2.393528416457     2.662514170862     0.715125334055     1.007825032230
         H            3.363251416457    -2.089218829138    -0.408140665945     1.007825032230
         H           -2.823383583543     2.079505170862    -0.771599665945     1.007825032230
         H           -3.161338583543    -1.942130829138     0.754240334055     1.007825032230
         H           -4.319070383543     0.121071370862    -0.163449365945     1.007825032230

  Basis Set: AUG-CC-PVTZ
    Blend: AUG-CC-PVTZ
  Basis Set: (AUG-CC-PVTZ AUX)
    Blend: AUG-CC-PVTZ-JKFIT
	 Reference Energy          =    -525.5422775829192688 [Eh]
	 Singles Energy            =      -0.0000000000000000 [Eh]
	 Same-Spin Energy          =      -0.5775985663416215 [Eh]
	 Opposite-Spin Energy      =      -1.7387225226874354 [Eh]
	 Correlation Energy        =      -2.3163210890290569 [Eh]
	 Total Energy              =    -527.8585986719483572 [Eh]

	 ================> DF-SCS-MP2 Energies <==================
	-----------------------------------------------------------
	 SCS Same-Spin Scale       =       0.3333333333333333 [-]
	 SCS Opposite-Spin Scale   =       1.2000000000000000 [-]
	 SCS Same-Spin Energy      =      -0.1925328554472072 [Eh]
	 SCS Opposite-Spin Energy  =      -2.0864670272249226 [Eh]
	 SCS Correlation Energy    =      -2.2789998826721298 [Eh]
	 SCS Total Energy          =    -527.8212774655913790 [Eh]
	-----------------------------------------------------------

  Dipole Moment: [D]
     X:    -2.5608      Y:     2.5230      Z:     0.3495     Total:     3.6119

*** Psi4 exiting successfully. Buy a developer a beer!
