                               Psi4 1.4a2.dev612

  ==> Input File <==

--------------------------------------------------------------------------
#psi4
#
memory 32 gb

molecule  {
0 1
  N        0.8160970    -0.2990240    -0.0443680
  N        1.3585440    -1.5263750    -0.2734470
  N       -1.0817850     0.9875590    -0.4601130
  N       -1.2686320    -1.2431920     0.4227390
  C        1.7597130     0.6951090     0.1272320
  C        2.9786120     0.0532150     0.0016160
  C       -0.5903530    -0.1795160    -0.0248380
  C        1.4539390     2.1247050     0.4316710
  C        2.6793880    -1.2992810    -0.2463060
  C       -2.4210880     1.0928180    -0.4382200
  C       -2.6039190    -1.1175230     0.3972460
  C       -3.2414650     0.0469210    -0.0276130
  H        3.9528590     0.5149220     0.0929350
  H        1.0131890     2.6387050    -0.4244530
  H        0.7544440     2.2203260     1.2670250
  H        2.3864280     2.6245280     0.7070350
  H        3.3561510    -2.1272050    -0.4162310
  H       -2.8304840     2.0415190    -0.7796900
  H       -3.1623149    -1.8729601     1.0262926
  H       -4.3226790     0.1358530    -0.0311710
units angstrom
no_reorient  #important for SAPT in psi4, default
symmetry c1  #important for SAPT in psi4, default
}

set PROPERTIES_ORIGIN ["COM"]
properties('MP2/aug-cc-pvtz', properties = ['dipole'])
--------------------------------------------------------------------------

    Molecular point group: c1
  Charge       = 0
  Multiplicity = 1
  Basis Set: AUG-CC-PVTZ
    Blend: AUG-CC-PVTZ
  Basis Set: (AUG-CC-PVTZ AUX)
    Blend: AUG-CC-PVTZ-JKFIT

    Orbital Energies [Eh]
    ---------------------

    Doubly Occupied:

       1A    -15.642371     2A    -15.582733     3A    -15.581702
       4A    -15.579559     5A    -11.367843     6A    -11.313590
       7A    -11.311726     8A    -11.286924     9A    -11.254763
      10A    -11.253281    11A    -11.234847    12A    -11.217506
      13A     -1.386604    14A     -1.312919    15A     -1.206250
      16A     -1.129550    17A     -1.084303    18A     -1.045112
      19A     -0.958962    20A     -0.906826    21A     -0.896393
      22A     -0.799981    23A     -0.793016    24A     -0.713218
      25A     -0.706090    26A     -0.682442    27A     -0.639739
      28A     -0.632085    29A     -0.603155    30A     -0.588752
      31A     -0.587448    32A     -0.571535    33A     -0.564108
      34A     -0.552314    35A     -0.536095    36A     -0.491984
      37A     -0.455681    38A     -0.430651    39A     -0.420642
      40A     -0.406656    41A     -0.337797    42A     -0.332597

  @DF-RHF Final Energy:  -525.53672251471539

   => Energetics <=

    Nuclear Repulsion Energy =            658.1135915951113020
    One-Electron Energy =               -2018.5011288238281395
    Two-Electron Energy =                 834.8508147140014444
    Total Energy =                       -525.5367225147153931
  Basis Set: (AUG-CC-PVTZ AUX)
    Blend: AUG-CC-PVTZ-RI
    Molecular point group: c1

    Geometry (in Angstrom), charge = 0, multiplicity = 1:

       Center              X                  Y                   Z               Mass
    ------------   -----------------  -----------------  -----------------  -----------------
         N            0.823136875142    -0.262044708540    -0.038925187976    14.003074004430
         N            1.365583875142    -1.489395708540    -0.268004187976    14.003074004430
         N           -1.074745124858     1.024538291460    -0.454670187976    14.003074004430
         N           -1.261592124858    -1.206212708540     0.428181812024    14.003074004430
         C            1.766752875142     0.732088291460     0.132674812024    12.000000000000
         C            2.985651875142     0.090194291460     0.007058812024    12.000000000000
         C           -0.583313124858    -0.142536708540    -0.019395187976    12.000000000000
         C            1.460978875142     2.161684291460     0.437113812024    12.000000000000
         C            2.686427875142    -1.262301708540    -0.240863187976    12.000000000000
         C           -2.414048124858     1.129797291460    -0.432777187976    12.000000000000
         C           -2.596879124858    -1.080543708540     0.402688812024    12.000000000000
         C           -3.234425124858     0.083900291460    -0.022170187976    12.000000000000
         H            3.959898875142     0.551901291460     0.098377812024     1.007825032230
         H            1.020228875142     2.675684291460    -0.419010187976     1.007825032230
         H            0.761483875142     2.257305291460     1.272467812024     1.007825032230
         H            2.393467875142     2.661507291460     0.712477812024     1.007825032230
         H            3.363190875142    -2.090225708540    -0.410788187976     1.007825032230
         H           -2.823444124858     2.078498291460    -0.774247187976     1.007825032230
         H           -3.155275024858    -1.835980808540     1.031735412024     1.007825032230
         H           -4.315639124858     0.172832291460    -0.025728187976     1.007825032230

  Basis Set: AUG-CC-PVTZ
    Blend: AUG-CC-PVTZ
  Basis Set: (AUG-CC-PVTZ AUX)
    Blend: AUG-CC-PVTZ-JKFIT
	 Reference Energy          =    -525.5367225147153931 [Eh]
	 Singles Energy            =      -0.0000000000000000 [Eh]
	 Same-Spin Energy          =      -0.5779743098259442 [Eh]
	 Opposite-Spin Energy      =      -1.7395564748468639 [Eh]
	 Correlation Energy        =      -2.3175307846728082 [Eh]
	 Total Energy              =    -527.8542532993882332 [Eh]

	 ================> DF-SCS-MP2 Energies <==================
	-----------------------------------------------------------
	 SCS Same-Spin Scale       =       0.3333333333333333 [-]
	 SCS Opposite-Spin Scale   =       1.2000000000000000 [-]
	 SCS Same-Spin Energy      =      -0.1926581032753147 [Eh]
	 SCS Opposite-Spin Energy  =      -2.0874677698162367 [Eh]
	 SCS Correlation Energy    =      -2.2801258730915515 [Eh]
	 SCS Total Energy          =    -527.8168483878069992 [Eh]
	-----------------------------------------------------------

  Dipole Moment: [D]
     X:    -2.5238      Y:     2.6495      Z:     0.5524     Total:     3.7006

*** Psi4 exiting successfully. Buy a developer a beer!
