                               Psi4 1.4a2.dev612

  ==> Input File <==

--------------------------------------------------------------------------
#psi4
#
memory 32 gb

molecule  {
0 1
  N        0.8160970    -0.2990240    -0.0443680
  N        1.3585440    -1.5263750    -0.2734470
  N       -1.0817850     0.9875590    -0.4601130
  N       -1.2686320    -1.2431920     0.4227390
  C        1.7597130     0.6951090     0.1272320
  C        2.9786120     0.0532150     0.0016160
  C       -0.5903530    -0.1795160    -0.0248380
  C        1.4539390     2.1247050     0.4316710
  C        2.6793880    -1.2992810    -0.2463060
  C       -2.4210880     1.0928180    -0.4382200
  C       -2.6039190    -1.1175230     0.3972460
  C       -3.2414650     0.0469210    -0.0276130
  H        3.9528590     0.5149220     0.0929350
  H        1.0131890     2.6387050    -0.4244530
  H        0.7544440     2.2203260     1.2670250
  H        2.3864280     2.6245280     0.7070350
  H        3.3532824    -2.0900458    -0.6127277
  H       -2.8304840     2.0415190    -0.7796900
  H       -3.1684390    -1.9801170     0.7461500
  H       -4.3226790     0.1358530    -0.0311710
units angstrom
no_reorient  #important for SAPT in psi4, default
symmetry c1  #important for SAPT in psi4, default
}

set PROPERTIES_ORIGIN ["COM"]
properties('MP2/aug-cc-pvtz', properties = ['dipole'])
--------------------------------------------------------------------------

    Molecular point group: c1
  Charge       = 0
  Multiplicity = 1
  Basis Set: AUG-CC-PVTZ
    Blend: AUG-CC-PVTZ
  Basis Set: (AUG-CC-PVTZ AUX)
    Blend: AUG-CC-PVTZ-JKFIT

    Orbital Energies [Eh]
    ---------------------

    Doubly Occupied:

       1A    -15.642744     2A    -15.582510     3A    -15.582218
       4A    -15.578684     5A    -11.367587     6A    -11.311659
       7A    -11.309564     8A    -11.286960     9A    -11.256251
      10A    -11.252677    11A    -11.234818    12A    -11.217576
      13A     -1.386757    14A     -1.312726    15A     -1.206121
      16A     -1.129544    17A     -1.084464    18A     -1.045014
      19A     -0.958999    20A     -0.909141    21A     -0.896204
      22A     -0.798292    23A     -0.795398    24A     -0.712937
      25A     -0.707486    26A     -0.682144    27A     -0.639949
      28A     -0.632440    29A     -0.606605    30A     -0.589598
      31A     -0.584547    32A     -0.575093    33A     -0.564251
      34A     -0.552826    35A     -0.534127    36A     -0.491770
      37A     -0.455430    38A     -0.430645    39A     -0.420408
      40A     -0.407940    41A     -0.337660    42A     -0.332669

  @DF-RHF Final Energy:  -525.54091229072867

   => Energetics <=

    Nuclear Repulsion Energy =            658.2029436710996606
    One-Electron Energy =               -2018.6788408901529692
    Two-Electron Energy =                 834.9349849283247522
    Total Energy =                       -525.5409122907286701
  Basis Set: (AUG-CC-PVTZ AUX)
    Blend: AUG-CC-PVTZ-RI
    Molecular point group: c1

    Geometry (in Angstrom), charge = 0, multiplicity = 1:

       Center              X                  Y                   Z               Mass
    ------------   -----------------  -----------------  -----------------  -----------------
         N            0.823193492816    -0.261604005870    -0.035924286341    14.003074004430
         N            1.365640492816    -1.488955005870    -0.265003286341    14.003074004430
         N           -1.074688507184     1.024978994130    -0.451669286341    14.003074004430
         N           -1.261535507184    -1.205772005870     0.431182713659    14.003074004430
         C            1.766809492816     0.732528994130     0.135675713659    12.000000000000
         C            2.985708492816     0.090634994130     0.010059713659    12.000000000000
         C           -0.583256507184    -0.142096005870    -0.016394286341    12.000000000000
         C            1.461035492816     2.162124994130     0.440114713659    12.000000000000
         C            2.686484492816    -1.261861005870    -0.237862286341    12.000000000000
         C           -2.413991507184     1.130237994130    -0.429776286341    12.000000000000
         C           -2.596822507184    -1.080103005870     0.405689713659    12.000000000000
         C           -3.234368507184     0.084340994130    -0.019169286341    12.000000000000
         H            3.959955492816     0.552341994130     0.101378713659     1.007825032230
         H            1.020285492816     2.676124994130    -0.416009286341     1.007825032230
         H            0.761540492816     2.257745994130     1.275468713659     1.007825032230
         H            2.393524492816     2.661947994130     0.715478713659     1.007825032230
         H            3.360378892816    -2.052625805870    -0.604283986341     1.007825032230
         H           -2.823387507184     2.078938994130    -0.771246286341     1.007825032230
         H           -3.161342507184    -1.942697005870     0.754593713659     1.007825032230
         H           -4.315582507184     0.173272994130    -0.022727286341     1.007825032230

  Basis Set: AUG-CC-PVTZ
    Blend: AUG-CC-PVTZ
  Basis Set: (AUG-CC-PVTZ AUX)
    Blend: AUG-CC-PVTZ-JKFIT
	 Reference Energy          =    -525.5409122907286701 [Eh]
	 Singles Energy            =      -0.0000000000000000 [Eh]
	 Same-Spin Energy          =      -0.5777552197090788 [Eh]
	 Opposite-Spin Energy      =      -1.7390482277236208 [Eh]
	 Correlation Energy        =      -2.3168034474326995 [Eh]
	 Total Energy              =    -527.8577157381613461 [Eh]

	 ================> DF-SCS-MP2 Energies <==================
	-----------------------------------------------------------
	 SCS Same-Spin Scale       =       0.3333333333333333 [-]
	 SCS Opposite-Spin Scale   =       1.2000000000000000 [-]
	 SCS Same-Spin Energy      =      -0.1925850732363596 [Eh]
	 SCS Opposite-Spin Energy  =      -2.0868578732683449 [Eh]
	 SCS Correlation Energy    =      -2.2794429465047044 [Eh]
	 SCS Total Energy          =    -527.8203552372333434 [Eh]
	-----------------------------------------------------------

  Dipole Moment: [D]
     X:    -2.5926      Y:     2.6068      Z:     0.3068     Total:     3.6893

*** Psi4 exiting successfully. Buy a developer a beer!
