                               Psi4 1.4a2.dev612

  ==> Input File <==

--------------------------------------------------------------------------
#psi4
#
memory 32 gb

molecule  {
0 1
  N        0.8160970    -0.2990240    -0.0443680
  N        1.3585440    -1.5263750    -0.2734470
  N       -1.0817850     0.9875590    -0.4601130
  N       -1.2599649    -1.1702906     0.6087773
  C        1.7597130     0.6951090     0.1272320
  C        2.9786120     0.0532150     0.0016160
  C       -0.5903530    -0.1795160    -0.0248380
  C        1.4539390     2.1247050     0.4316710
  C        2.6793880    -1.2992810    -0.2463060
  C       -2.4210880     1.0928180    -0.4382200
  C       -2.6039190    -1.1175230     0.3972460
  C       -3.2414650     0.0469210    -0.0276130
  H        3.9528590     0.5149220     0.0929350
  H        1.0131890     2.6387050    -0.4244530
  H        0.7544440     2.2203260     1.2670250
  H        2.3864280     2.6245280     0.7070350
  H        3.3561510    -2.1272050    -0.4162310
  H       -2.8304840     2.0415190    -0.7796900
  H       -3.1684390    -1.9801170     0.7461500
  H       -4.3226790     0.1358530    -0.0311710
units angstrom
no_reorient  #important for SAPT in psi4, default
symmetry c1  #important for SAPT in psi4, default
}

set PROPERTIES_ORIGIN ["COM"]
properties('MP2/aug-cc-pvtz', properties = ['dipole'])
--------------------------------------------------------------------------

    Molecular point group: c1
  Charge       = 0
  Multiplicity = 1
  Basis Set: AUG-CC-PVTZ
    Blend: AUG-CC-PVTZ
  Basis Set: (AUG-CC-PVTZ AUX)
    Blend: AUG-CC-PVTZ-JKFIT

    Orbital Energies [Eh]
    ---------------------

    Doubly Occupied:

       1A    -15.641790     2A    -15.583351     3A    -15.583176
       4A    -15.582157     5A    -11.369086     6A    -11.312415
       7A    -11.312216     8A    -11.286596     9A    -11.254460
      10A    -11.253847    11A    -11.234601    12A    -11.217360
      13A     -1.385540    14A     -1.309927    15A     -1.201695
      16A     -1.129289    17A     -1.083781    18A     -1.045274
      19A     -0.958740    20A     -0.908222    21A     -0.893866
      22A     -0.798842    23A     -0.795546    24A     -0.712265
      25A     -0.705849    26A     -0.683184    27A     -0.634262
      28A     -0.633985    29A     -0.607525    30A     -0.589003
      31A     -0.585891    32A     -0.573445    33A     -0.563876
      34A     -0.552625    35A     -0.535671    36A     -0.493716
      37A     -0.454621    38A     -0.436558    39A     -0.413785
      40A     -0.404277    41A     -0.340187    42A     -0.332470

  @DF-RHF Final Energy:  -525.53389490301697

   => Energetics <=

    Nuclear Repulsion Energy =            657.6245082524983445
    One-Electron Energy =               -2017.5268709419206061
    Two-Electron Energy =                 834.3684677864052901
    Total Energy =                       -525.5338949030169715
  Basis Set: (AUG-CC-PVTZ AUX)
    Blend: AUG-CC-PVTZ-RI
    Molecular point group: c1

    Geometry (in Angstrom), charge = 0, multiplicity = 1:

       Center              X                  Y                   Z               Mass
    ------------   -----------------  -----------------  -----------------  -----------------
         N            0.822417249367    -0.267747340960    -0.053435729052    14.003074004430
         N            1.364864249367    -1.495098340960    -0.282514729052    14.003074004430
         N           -1.075464750633     1.018835659040    -0.469180729052    14.003074004430
         N           -1.253644650633    -1.139013940960     0.599709570948    14.003074004430
         C            1.766033249367     0.726385659040     0.118164270948    12.000000000000
         C            2.984932249367     0.084491659040    -0.007451729052    12.000000000000
         C           -0.584032750633    -0.148239340960    -0.033905729052    12.000000000000
         C            1.460259249367     2.155981659040     0.422603270948    12.000000000000
         C            2.685708249367    -1.268004340960    -0.255373729052    12.000000000000
         C           -2.414767750633     1.124094659040    -0.447287729052    12.000000000000
         C           -2.597598750633    -1.086246340960     0.388178270948    12.000000000000
         C           -3.235144750633     0.078197659040    -0.036680729052    12.000000000000
         H            3.959179249367     0.546198659040     0.083867270948     1.007825032230
         H            1.019509249367     2.669981659040    -0.433520729052     1.007825032230
         H            0.760764249367     2.251602659040     1.257957270948     1.007825032230
         H            2.392748249367     2.655804659040     0.697967270948     1.007825032230
         H            3.362471249367    -2.095928340960    -0.425298729052     1.007825032230
         H           -2.824163750633     2.072795659040    -0.788757729052     1.007825032230
         H           -3.162118750633    -1.948840340960     0.737082270948     1.007825032230
         H           -4.316358750633     0.167129659040    -0.040238729052     1.007825032230

  Basis Set: AUG-CC-PVTZ
    Blend: AUG-CC-PVTZ
  Basis Set: (AUG-CC-PVTZ AUX)
    Blend: AUG-CC-PVTZ-JKFIT
	 Reference Energy          =    -525.5338949030169715 [Eh]
	 Singles Energy            =      -0.0000000000000000 [Eh]
	 Same-Spin Energy          =      -0.5781922566882679 [Eh]
	 Opposite-Spin Energy      =      -1.7405668306753475 [Eh]
	 Correlation Energy        =      -2.3187590873636155 [Eh]
	 Total Energy              =    -527.8526539903805315 [Eh]

	 ================> DF-SCS-MP2 Energies <==================
	-----------------------------------------------------------
	 SCS Same-Spin Scale       =       0.3333333333333333 [-]
	 SCS Opposite-Spin Scale   =       1.2000000000000000 [-]
	 SCS Same-Spin Energy      =      -0.1927307522294226 [Eh]
	 SCS Opposite-Spin Energy  =      -2.0886801968104169 [Eh]
	 SCS Correlation Energy    =      -2.2814109490398398 [Eh]
	 SCS Total Energy          =    -527.8153058520567811 [Eh]
	-----------------------------------------------------------

  Dipole Moment: [D]
     X:    -2.6065      Y:     2.5187      Z:     0.2743     Total:     3.6349

*** Psi4 exiting successfully. Buy a developer a beer!
