                               Psi4 1.4a2.dev612

  ==> Input File <==

--------------------------------------------------------------------------
#psi4
#
memory 32 gb

molecule  {
0 1
  N        0.8160970    -0.2990240    -0.0443680
  N        1.3585440    -1.5263750    -0.2734470
  N       -1.0817850     0.9875590    -0.4601130
  N       -1.2577981    -1.1520652     0.6552869
  C        1.7597130     0.6951090     0.1272320
  C        2.9786120     0.0532150     0.0016160
  C       -0.5903530    -0.1795160    -0.0248380
  C        1.4539390     2.1247050     0.4316710
  C        2.6793880    -1.2992810    -0.2463060
  C       -2.4210880     1.0928180    -0.4382200
  C       -2.6039190    -1.1175230     0.3972460
  C       -3.2414650     0.0469210    -0.0276130
  H        3.9528590     0.5149220     0.0929350
  H        1.0131890     2.6387050    -0.4244530
  H        0.7544440     2.2203260     1.2670250
  H        2.3864280     2.6245280     0.7070350
  H        3.3561510    -2.1272050    -0.4162310
  H       -2.8304840     2.0415190    -0.7796900
  H       -3.1684390    -1.9801170     0.7461500
  H       -4.3226790     0.1358530    -0.0311710
units angstrom
no_reorient  #important for SAPT in psi4, default
symmetry c1  #important for SAPT in psi4, default
}

set PROPERTIES_ORIGIN ["COM"]
properties('MP2/aug-cc-pvtz', properties = ['dipole'])
--------------------------------------------------------------------------

    Molecular point group: c1
  Charge       = 0
  Multiplicity = 1
  Basis Set: AUG-CC-PVTZ
    Blend: AUG-CC-PVTZ
  Basis Set: (AUG-CC-PVTZ AUX)
    Blend: AUG-CC-PVTZ-JKFIT

    Orbital Energies [Eh]
    ---------------------

    Doubly Occupied:

       1A    -15.641866     2A    -15.585220     3A    -15.583591
       4A    -15.582407     5A    -11.370078     6A    -11.313671
       7A    -11.312406     8A    -11.286659     9A    -11.254553
      10A    -11.254098    11A    -11.234621    12A    -11.217477
      13A     -1.385269    14A     -1.308541    15A     -1.199311
      16A     -1.129219    17A     -1.083685    18A     -1.045266
      19A     -0.958792    20A     -0.907872    21A     -0.892402
      22A     -0.798545    23A     -0.795373    24A     -0.711842
      25A     -0.704420    26A     -0.683382    27A     -0.634528
      28A     -0.632807    29A     -0.607453    30A     -0.588654
      31A     -0.585503    32A     -0.572701    33A     -0.563898
      34A     -0.552514    35A     -0.535678    36A     -0.494588
      37A     -0.454658    38A     -0.438218    39A     -0.411345
      40A     -0.402865    41A     -0.340688    42A     -0.332561

  @DF-RHF Final Energy:  -525.52849976775406

   => Energetics <=

    Nuclear Repulsion Energy =            657.2969155321601420
    One-Electron Energy =               -2016.8723825539864265
    Two-Electron Energy =                 834.0469672540721149
    Total Energy =                       -525.5284997677540559
  Basis Set: (AUG-CC-PVTZ AUX)
    Blend: AUG-CC-PVTZ-RI
    Molecular point group: c1

    Geometry (in Angstrom), charge = 0, multiplicity = 1:

       Center              X                  Y                   Z               Mass
    ------------   -----------------  -----------------  -----------------  -----------------
         N            0.822227701465    -0.269341667309    -0.057504308110    14.003074004430
         N            1.364674701465    -1.496692667309    -0.286583308110    14.003074004430
         N           -1.075654298535     1.017241332691    -0.473249308110    14.003074004430
         N           -1.251667398535    -1.122382867309     0.642150591890    14.003074004430
         C            1.765843701465     0.724791332691     0.114095691890    12.000000000000
         C            2.984742701465     0.082897332691    -0.011520308110    12.000000000000
         C           -0.584222298535    -0.149833667309    -0.037974308110    12.000000000000
         C            1.460069701465     2.154387332691     0.418534691890    12.000000000000
         C            2.685518701465    -1.269598667309    -0.259442308110    12.000000000000
         C           -2.414957298535     1.122500332691    -0.451356308110    12.000000000000
         C           -2.597788298535    -1.087840667309     0.384109691890    12.000000000000
         C           -3.235334298535     0.076603332691    -0.040749308110    12.000000000000
         H            3.958989701465     0.544604332691     0.079798691890     1.007825032230
         H            1.019319701465     2.668387332691    -0.437589308110     1.007825032230
         H            0.760574701465     2.250008332691     1.253888691890     1.007825032230
         H            2.392558701465     2.654210332691     0.693898691890     1.007825032230
         H            3.362281701465    -2.097522667309    -0.429367308110     1.007825032230
         H           -2.824353298535     2.071201332691    -0.792826308110     1.007825032230
         H           -3.162308298535    -1.950434667309     0.733013691890     1.007825032230
         H           -4.316548298535     0.165535332691    -0.044307308110     1.007825032230

  Basis Set: AUG-CC-PVTZ
    Blend: AUG-CC-PVTZ
  Basis Set: (AUG-CC-PVTZ AUX)
    Blend: AUG-CC-PVTZ-JKFIT
	 Reference Energy          =    -525.5284997677540559 [Eh]
	 Singles Energy            =      -0.0000000000000000 [Eh]
	 Same-Spin Energy          =      -0.5785129338574380 [Eh]
	 Opposite-Spin Energy      =      -1.7415816659815946 [Eh]
	 Correlation Energy        =      -2.3200945998390328 [Eh]
	 Total Energy              =    -527.8485943675931367 [Eh]

	 ================> DF-SCS-MP2 Energies <==================
	-----------------------------------------------------------
	 SCS Same-Spin Scale       =       0.3333333333333333 [-]
	 SCS Opposite-Spin Scale   =       1.2000000000000000 [-]
	 SCS Same-Spin Energy      =      -0.1928376446191460 [Eh]
	 SCS Opposite-Spin Energy  =      -2.0898979991779134 [Eh]
	 SCS Correlation Energy    =      -2.2827356437970594 [Eh]
	 SCS Total Energy          =    -527.8112354115511380 [Eh]
	-----------------------------------------------------------

  Dipole Moment: [D]
     X:    -2.5996      Y:     2.5078      Z:     0.2350     Total:     3.6197

*** Psi4 exiting successfully. Buy a developer a beer!
