                               Psi4 1.4a2.dev612

  ==> Input File <==

--------------------------------------------------------------------------
#psi4
#
memory 32 gb

molecule  {
0 1
  N        0.8160970    -0.2990240    -0.0443680
  N        1.3585440    -1.5263750    -0.2734470
  N       -1.0817850     0.9875590    -0.4601130
  N       -1.2686320    -1.2431920     0.4227390
  C        1.7597130     0.6951090     0.1272320
  C        2.9786120     0.0532150     0.0016160
  C       -0.5903530    -0.1795160    -0.0248380
  C        1.4539390     2.1247050     0.4316710
  C        2.6793880    -1.2992810    -0.2463060
  C       -2.4210880     1.0928180    -0.4382200
  C       -2.6039190    -1.1175230     0.3972460
  C       -3.2414650     0.0469210    -0.0276130
  H        3.9528590     0.5149220     0.0929350
  H        1.0131890     2.6387050    -0.4244530
  H        0.7544440     2.2203260     1.2670250
  H        2.3864280     2.6245280     0.7070350
  H        3.3561510    -2.1272050    -0.4162310
  H       -2.8304840     2.0415190    -0.7796900
  H       -3.1684390    -1.9801170     0.7461500
  H       -4.3284987     0.0479067    -0.2651188
units angstrom
no_reorient  #important for SAPT in psi4, default
symmetry c1  #important for SAPT in psi4, default
}

set PROPERTIES_ORIGIN ["COM"]
properties('MP2/aug-cc-pvtz', properties = ['dipole'])
--------------------------------------------------------------------------

    Molecular point group: c1
  Charge       = 0
  Multiplicity = 1
  Basis Set: AUG-CC-PVTZ
    Blend: AUG-CC-PVTZ
  Basis Set: (AUG-CC-PVTZ AUX)
    Blend: AUG-CC-PVTZ-JKFIT

    Orbital Energies [Eh]
    ---------------------

    Doubly Occupied:

       1A    -15.642456     2A    -15.582786     3A    -15.581679
       4A    -15.578747     5A    -11.367950     6A    -11.312075
       7A    -11.309704     8A    -11.287068     9A    -11.254878
      10A    -11.254775    11A    -11.234845    12A    -11.217552
      13A     -1.386650    14A     -1.312870    15A     -1.206344
      16A     -1.129535    17A     -1.084321    18A     -1.044417
      19A     -0.958982    20A     -0.909283    21A     -0.895881
      22A     -0.800381    23A     -0.795460    24A     -0.713006
      25A     -0.706633    26A     -0.679233    27A     -0.639134
      28A     -0.629694    29A     -0.607542    30A     -0.589668
      31A     -0.587183    32A     -0.574966    33A     -0.564083
      34A     -0.552186    35A     -0.535960    36A     -0.491262
      37A     -0.455375    38A     -0.430694    39A     -0.420451
      40A     -0.406907    41A     -0.338255    42A     -0.332589

  @DF-RHF Final Energy:  -525.53964692680449

   => Energetics <=

    Nuclear Repulsion Energy =            658.1660876484602340
    One-Electron Energy =               -2018.6045484837713957
    Two-Electron Energy =                 834.8988139085066678
    Total Energy =                       -525.5396469268044939
  Basis Set: (AUG-CC-PVTZ AUX)
    Blend: AUG-CC-PVTZ-RI
    Molecular point group: c1

    Geometry (in Angstrom), charge = 0, multiplicity = 1:

       Center              X                  Y                   Z               Mass
    ------------   -----------------  -----------------  -----------------  -----------------
         N            0.823212072821    -0.260816346734    -0.035688495740    14.003074004430
         N            1.365659072821    -1.488167346734    -0.264767495740    14.003074004430
         N           -1.074669927179     1.025766653266    -0.451433495740    14.003074004430
         N           -1.261516927179    -1.204984346734     0.431418504260    14.003074004430
         C            1.766828072821     0.733316653266     0.135911504260    12.000000000000
         C            2.985727072821     0.091422653266     0.010295504260    12.000000000000
         C           -0.583237927179    -0.141308346734    -0.016158495740    12.000000000000
         C            1.461054072821     2.162912653266     0.440350504260    12.000000000000
         C            2.686503072821    -1.261073346734    -0.237626495740    12.000000000000
         C           -2.413972927179     1.131025653266    -0.429540495740    12.000000000000
         C           -2.596803927179    -1.079315346734     0.405925504260    12.000000000000
         C           -3.234349927179     0.085128653266    -0.018933495740    12.000000000000
         H            3.959974072821     0.553129653266     0.101614504260     1.007825032230
         H            1.020304072821     2.676912653266    -0.415773495740     1.007825032230
         H            0.761559072821     2.258533653266     1.275704504260     1.007825032230
         H            2.393543072821     2.662735653266     0.715714504260     1.007825032230
         H            3.363266072821    -2.088997346734    -0.407551495740     1.007825032230
         H           -2.823368927179     2.079726653266    -0.771010495740     1.007825032230
         H           -3.161323927179    -1.941909346734     0.754829504260     1.007825032230
         H           -4.321383627179     0.086114353266    -0.256439295740     1.007825032230

  Basis Set: AUG-CC-PVTZ
    Blend: AUG-CC-PVTZ
  Basis Set: (AUG-CC-PVTZ AUX)
    Blend: AUG-CC-PVTZ-JKFIT
	 Reference Energy          =    -525.5396469268044939 [Eh]
	 Singles Energy            =      -0.0000000000000000 [Eh]
	 Same-Spin Energy          =      -0.5776682527724074 [Eh]
	 Opposite-Spin Energy      =      -1.7389254092005544 [Eh]
	 Correlation Energy        =      -2.3165936619729619 [Eh]
	 Total Energy              =    -527.8562405887774958 [Eh]

	 ================> DF-SCS-MP2 Energies <==================
	-----------------------------------------------------------
	 SCS Same-Spin Scale       =       0.3333333333333333 [-]
	 SCS Opposite-Spin Scale   =       1.2000000000000000 [-]
	 SCS Same-Spin Energy      =      -0.1925560842574691 [Eh]
	 SCS Opposite-Spin Energy  =      -2.0867104910406651 [Eh]
	 SCS Correlation Energy    =      -2.2792665752981343 [Eh]
	 SCS Total Energy          =    -527.8189135021026459 [Eh]
	-----------------------------------------------------------

  Dipole Moment: [D]
     X:    -2.5257      Y:     2.5003      Z:     0.2902     Total:     3.5658

*** Psi4 exiting successfully. Buy a developer a beer!
