                               Psi4 1.4a2.dev612

  ==> Input File <==

--------------------------------------------------------------------------
#psi4
#
memory 32 gb

molecule  {
0 1
  N        0.8160970    -0.2990240    -0.0443680
  N        1.3585440    -1.5263750    -0.2734470
  N       -1.0817850     0.9875590    -0.4601130
  N       -1.2686320    -1.2431920     0.4227390
  C        1.7597130     0.6951090     0.1272320
  C        2.9786120     0.0532150     0.0016160
  C       -0.5903530    -0.1795160    -0.0248380
  C        1.4539390     2.1247050     0.4316710
  C        2.6793880    -1.2992810    -0.2463060
  C       -2.4210880     1.0928180    -0.4382200
  C       -2.6039190    -1.1175230     0.3972460
  C       -3.2414650     0.0469210    -0.0276130
  H        3.9528590     0.5149220     0.0929350
  H        1.0131890     2.6387050    -0.4244530
  H        0.7544440     2.2203260     1.2670250
  H        2.3864280     2.6245280     0.7070350
  H        3.3539996    -2.0993356    -0.5636036
  H       -2.8304840     2.0415190    -0.7796900
  H       -3.1684390    -1.9801170     0.7461500
  H       -4.3226790     0.1358530    -0.0311710
units angstrom
no_reorient  #important for SAPT in psi4, default
symmetry c1  #important for SAPT in psi4, default
}

set PROPERTIES_ORIGIN ["COM"]
properties('MP2/aug-cc-pvtz', properties = ['dipole'])
--------------------------------------------------------------------------

    Molecular point group: c1
  Charge       = 0
  Multiplicity = 1
  Basis Set: AUG-CC-PVTZ
    Blend: AUG-CC-PVTZ
  Basis Set: (AUG-CC-PVTZ AUX)
    Blend: AUG-CC-PVTZ-JKFIT

    Orbital Energies [Eh]
    ---------------------

    Doubly Occupied:

       1A    -15.642515     2A    -15.582455     3A    -15.581932
       4A    -15.578643     5A    -11.367507     6A    -11.311600
       7A    -11.309518     8A    -11.286886     9A    -11.255538
      10A    -11.252652    11A    -11.234772    12A    -11.217482
      13A     -1.386592    14A     -1.312644    15A     -1.206068
      16A     -1.129492    17A     -1.084367    18A     -1.045010
      19A     -0.958922    20A     -0.909097    21A     -0.896345
      22A     -0.799056    23A     -0.795347    24A     -0.712985
      25A     -0.707435    26A     -0.682301    27A     -0.639552
      28A     -0.632723    29A     -0.606780    30A     -0.589598
      31A     -0.585170    32A     -0.575241    33A     -0.564160
      34A     -0.552763    35A     -0.534884    36A     -0.491712
      37A     -0.455301    38A     -0.430583    39A     -0.420324
      40A     -0.407935    41A     -0.337765    42A     -0.332572

  @DF-RHF Final Energy:  -525.54212761930751

   => Energetics <=

    Nuclear Repulsion Energy =            658.2338142309063187
    One-Electron Energy =               -2018.7434387281157342
    Two-Electron Energy =                 834.9674968779019082
    Total Energy =                       -525.5421276193075073
  Basis Set: (AUG-CC-PVTZ AUX)
    Blend: AUG-CC-PVTZ-RI
    Molecular point group: c1

    Geometry (in Angstrom), charge = 0, multiplicity = 1:

       Center              X                  Y                   Z               Mass
    ------------   -----------------  -----------------  -----------------  -----------------
         N            0.823188977354    -0.261545517667    -0.036233569675    14.003074004430
         N            1.365635977354    -1.488896517667    -0.265312569675    14.003074004430
         N           -1.074693022646     1.025037482333    -0.451978569675    14.003074004430
         N           -1.261540022646    -1.205713517667     0.430873430325    14.003074004430
         C            1.766804977354     0.732587482333     0.135366430325    12.000000000000
         C            2.985703977354     0.090693482333     0.009750430325    12.000000000000
         C           -0.583261022646    -0.142037517667    -0.016703569675    12.000000000000
         C            1.461030977354     2.162183482333     0.439805430325    12.000000000000
         C            2.686479977354    -1.261802517667    -0.238171569675    12.000000000000
         C           -2.413996022646     1.130296482333    -0.430085569675    12.000000000000
         C           -2.596827022646    -1.080044517667     0.405380430325    12.000000000000
         C           -3.234373022646     0.084399482333    -0.019478569675    12.000000000000
         H            3.959950977354     0.552400482333     0.101069430325     1.007825032230
         H            1.020280977354     2.676183482333    -0.416318569675     1.007825032230
         H            0.761535977354     2.257804482333     1.275159430325     1.007825032230
         H            2.393519977354     2.662006482333     0.715169430325     1.007825032230
         H            3.361091577354    -2.061857117667    -0.555469169675     1.007825032230
         H           -2.823392022646     2.078997482333    -0.771555569675     1.007825032230
         H           -3.161347022646    -1.942638517667     0.754284430325     1.007825032230
         H           -4.315587022646     0.173331482333    -0.023036569675     1.007825032230

  Basis Set: AUG-CC-PVTZ
    Blend: AUG-CC-PVTZ
  Basis Set: (AUG-CC-PVTZ AUX)
    Blend: AUG-CC-PVTZ-JKFIT
	 Reference Energy          =    -525.5421276193075073 [Eh]
	 Singles Energy            =      -0.0000000000000000 [Eh]
	 Same-Spin Energy          =      -0.5776742794081858 [Eh]
	 Opposite-Spin Energy      =      -1.7388671452403368 [Eh]
	 Correlation Energy        =      -2.3165414246485225 [Eh]
	 Total Energy              =    -527.8586690439560698 [Eh]

	 ================> DF-SCS-MP2 Energies <==================
	-----------------------------------------------------------
	 SCS Same-Spin Scale       =       0.3333333333333333 [-]
	 SCS Opposite-Spin Scale   =       1.2000000000000000 [-]
	 SCS Same-Spin Energy      =      -0.1925580931360619 [Eh]
	 SCS Opposite-Spin Energy  =      -2.0866405742884040 [Eh]
	 SCS Correlation Energy    =      -2.2791986674244660 [Eh]
	 SCS Total Energy          =    -527.8213262867319600 [Eh]
	-----------------------------------------------------------

  Dipole Moment: [D]
     X:    -2.5836      Y:     2.5892      Z:     0.3387     Total:     3.6734

*** Psi4 exiting successfully. Buy a developer a beer!
