                               Psi4 1.4a2.dev612

  ==> Input File <==

--------------------------------------------------------------------------
#psi4
#
memory 32 gb

molecule  {
0 1
  N        0.8160970    -0.2990240    -0.0443680
  N        1.3585440    -1.5263750    -0.2734470
  N       -1.0817850     0.9875590    -0.4601130
  N       -1.2686320    -1.2431920     0.4227390
  C        1.7597130     0.6951090     0.1272320
  C        2.9786120     0.0532150     0.0016160
  C       -0.5903530    -0.1795160    -0.0248380
  C        1.4539390     2.1247050     0.4316710
  C        2.6793880    -1.2992810    -0.2463060
  C       -2.4210880     1.0928180    -0.4382200
  C       -2.6039190    -1.1175230     0.3972460
  C       -3.2414650     0.0469210    -0.0276130
  H        3.9528590     0.5149220     0.0929350
  H        1.0131890     2.6387050    -0.4244530
  H        0.7544440     2.2203260     1.2670250
  H        2.3864280     2.6245280     0.7070350
  H        3.3547167    -2.1086254    -0.5144794
  H       -2.8304840     2.0415190    -0.7796900
  H       -3.1684390    -1.9801170     0.7461500
  H       -4.3226790     0.1358530    -0.0311710
units angstrom
no_reorient  #important for SAPT in psi4, default
symmetry c1  #important for SAPT in psi4, default
}

set PROPERTIES_ORIGIN ["COM"]
properties('MP2/aug-cc-pvtz', properties = ['dipole'])
--------------------------------------------------------------------------

    Molecular point group: c1
  Charge       = 0
  Multiplicity = 1
  Basis Set: AUG-CC-PVTZ
    Blend: AUG-CC-PVTZ
  Basis Set: (AUG-CC-PVTZ AUX)
    Blend: AUG-CC-PVTZ-JKFIT

    Orbital Energies [Eh]
    ---------------------

    Doubly Occupied:

       1A    -15.642333     2A    -15.582422     3A    -15.581709
       4A    -15.578625     5A    -11.367447     6A    -11.311558
       7A    -11.309488     8A    -11.286824     9A    -11.255011
      10A    -11.252645    11A    -11.234737    12A    -11.217406
      13A     -1.386464    14A     -1.312587    15A     -1.206035
      16A     -1.129450    17A     -1.084292    18A     -1.045008
      19A     -0.958861    20A     -0.909070    21A     -0.896453
      22A     -0.799634    23A     -0.795294    24A     -0.713038
      25A     -0.707401    26A     -0.682418    27A     -0.639122
      28A     -0.632990    29A     -0.606936    30A     -0.589603
      31A     -0.585735    32A     -0.575285    33A     -0.564084
      34A     -0.552718    35A     -0.535425    36A     -0.491674
      37A     -0.455198    38A     -0.430539    39A     -0.420263
      40A     -0.407896    41A     -0.337864    42A     -0.332490

  @DF-RHF Final Energy:  -525.54296451037283

   => Energetics <=

    Nuclear Repulsion Energy =            658.2563133119770100
    One-Electron Energy =               -2018.7904944033346055
    Two-Electron Energy =                 834.9912165809847693
    Total Energy =                       -525.5429645103728262
  Basis Set: (AUG-CC-PVTZ AUX)
    Blend: AUG-CC-PVTZ-RI
    Molecular point group: c1

    Geometry (in Angstrom), charge = 0, multiplicity = 1:

       Center              X                  Y                   Z               Mass
    ------------   -----------------  -----------------  -----------------  -----------------
         N            0.823184462521    -0.261487029465    -0.036542853639    14.003074004430
         N            1.365631462521    -1.488838029465    -0.265621853639    14.003074004430
         N           -1.074697537479     1.025095970535    -0.452287853639    14.003074004430
         N           -1.261544537479    -1.205655029465     0.430564146361    14.003074004430
         C            1.766800462521     0.732645970535     0.135057146361    12.000000000000
         C            2.985699462521     0.090751970535     0.009441146361    12.000000000000
         C           -0.583265537479    -0.141979029465    -0.017012853639    12.000000000000
         C            1.461026462521     2.162241970535     0.439496146361    12.000000000000
         C            2.686475462521    -1.261744029465    -0.238480853639    12.000000000000
         C           -2.414000537479     1.130354970535    -0.430394853639    12.000000000000
         C           -2.596831537479    -1.079986029465     0.405071146361    12.000000000000
         C           -3.234377537479     0.084457970535    -0.019787853639    12.000000000000
         H            3.959946462521     0.552458970535     0.100760146361     1.007825032230
         H            1.020276462521     2.676241970535    -0.416627853639     1.007825032230
         H            0.761531462521     2.257862970535     1.274850146361     1.007825032230
         H            2.393515462521     2.662064970535     0.714860146361     1.007825032230
         H            3.361804162521    -2.071088429465    -0.506654253639     1.007825032230
         H           -2.823396537479     2.079055970535    -0.771864853639     1.007825032230
         H           -3.161351537479    -1.942580029465     0.753975146361     1.007825032230
         H           -4.315591537479     0.173389970535    -0.023345853639     1.007825032230

  Basis Set: AUG-CC-PVTZ
    Blend: AUG-CC-PVTZ
  Basis Set: (AUG-CC-PVTZ AUX)
    Blend: AUG-CC-PVTZ-JKFIT
	 Reference Energy          =    -525.5429645103728262 [Eh]
	 Singles Energy            =      -0.0000000000000000 [Eh]
	 Same-Spin Energy          =      -0.5776143135908920 [Eh]
	 Opposite-Spin Energy      =      -1.7387391600555473 [Eh]
	 Correlation Energy        =      -2.3163534736464393 [Eh]
	 Total Energy              =    -527.8593179840192988 [Eh]

	 ================> DF-SCS-MP2 Energies <==================
	-----------------------------------------------------------
	 SCS Same-Spin Scale       =       0.3333333333333333 [-]
	 SCS Opposite-Spin Scale   =       1.2000000000000000 [-]
	 SCS Same-Spin Energy      =      -0.1925381045302973 [Eh]
	 SCS Opposite-Spin Energy  =      -2.0864869920666567 [Eh]
	 SCS Correlation Energy    =      -2.2790250965969538 [Eh]
	 SCS Total Energy          =    -527.8219896069697370 [Eh]
	-----------------------------------------------------------

  Dipole Moment: [D]
     X:    -2.5784      Y:     2.5746      Z:     0.3716     Total:     3.6626

*** Psi4 exiting successfully. Buy a developer a beer!
