                               Psi4 1.4a2.dev612

  ==> Input File <==

--------------------------------------------------------------------------
#psi4
#
memory 32 gb

molecule  {
0 1
  N        0.8160970    -0.2990240    -0.0443680
  N        1.3585440    -1.5263750    -0.2734470
  N       -1.0817850     0.9875590    -0.4601130
  N       -1.2686320    -1.2431920     0.4227390
  C        1.7597130     0.6951090     0.1272320
  C        2.9786120     0.0532150     0.0016160
  C       -0.5903530    -0.1795160    -0.0248380
  C        1.4539390     2.1247050     0.4316710
  C        2.6793880    -1.2992810    -0.2463060
  C       -2.4210880     1.0928180    -0.4382200
  C       -2.6039190    -1.1175230     0.3972460
  C       -3.2414650     0.0469210    -0.0276130
  H        3.9528590     0.5149220     0.0929350
  H        1.0131890     2.6387050    -0.4244530
  H        0.7544440     2.2203260     1.2670250
  H        2.3864280     2.6245280     0.7070350
  H        3.3561510    -2.1272050    -0.4162310
  H       -2.8304840     2.0415190    -0.7796900
  H       -3.1684390    -1.9801170     0.7461500
  H       -4.3273347     0.0654959    -0.2183292
units angstrom
no_reorient  #important for SAPT in psi4, default
symmetry c1  #important for SAPT in psi4, default
}

set PROPERTIES_ORIGIN ["COM"]
properties('MP2/aug-cc-pvtz', properties = ['dipole'])
--------------------------------------------------------------------------

    Molecular point group: c1
  Charge       = 0
  Multiplicity = 1
  Basis Set: AUG-CC-PVTZ
    Blend: AUG-CC-PVTZ
  Basis Set: (AUG-CC-PVTZ AUX)
    Blend: AUG-CC-PVTZ-JKFIT

    Orbital Energies [Eh]
    ---------------------

    Doubly Occupied:

       1A    -15.642332     2A    -15.582678     3A    -15.581592
       4A    -15.578695     5A    -11.367745     6A    -11.311897
       7A    -11.309594     8A    -11.286957     9A    -11.254763
      10A    -11.254020    11A    -11.234783    12A    -11.217460
      13A     -1.386531    14A     -1.312753    15A     -1.206229
      16A     -1.129483    17A     -1.084275    18A     -1.044620
      19A     -0.958907    20A     -0.909202    21A     -0.896108
      22A     -0.800291    23A     -0.795372    24A     -0.713035
      25A     -0.706855    26A     -0.680359    27A     -0.638964
      28A     -0.630958    29A     -0.607430    30A     -0.589614
      31A     -0.587050    32A     -0.574998    33A     -0.564045
      34A     -0.552271    35A     -0.535937    36A     -0.491470
      37A     -0.455275    38A     -0.430605    39A     -0.420371
      40A     -0.407158    41A     -0.338197    42A     -0.332505

  @DF-RHF Final Energy:  -525.54115929524778

   => Energetics <=

    Nuclear Repulsion Energy =            658.2042856313465791
    One-Electron Energy =               -2018.6841152553211032
    Two-Electron Energy =                 834.9386703287268574
    Total Energy =                       -525.5411592952477804
  Basis Set: (AUG-CC-PVTZ AUX)
    Blend: AUG-CC-PVTZ-RI
    Molecular point group: c1

    Geometry (in Angstrom), charge = 0, multiplicity = 1:

       Center              X                  Y                   Z               Mass
    ------------   -----------------  -----------------  -----------------  -----------------
         N            0.823204744324    -0.260927087621    -0.035983081157    14.003074004430
         N            1.365651744324    -1.488278087621    -0.265062081157    14.003074004430
         N           -1.074677255676     1.025655912379    -0.451728081157    14.003074004430
         N           -1.261524255676    -1.205095087621     0.431123918843    14.003074004430
         C            1.766820744324     0.733205912379     0.135616918843    12.000000000000
         C            2.985719744324     0.091311912379     0.010000918843    12.000000000000
         C           -0.583245255676    -0.141419087621    -0.016453081157    12.000000000000
         C            1.461046744324     2.162801912379     0.440055918843    12.000000000000
         C            2.686495744324    -1.261184087621    -0.237921081157    12.000000000000
         C           -2.413980255676     1.130914912379    -0.429835081157    12.000000000000
         C           -2.596811255676    -1.079426087621     0.405630918843    12.000000000000
         C           -3.234357255676     0.085017912379    -0.019228081157    12.000000000000
         H            3.959966744324     0.553018912379     0.101319918843     1.007825032230
         H            1.020296744324     2.676801912379    -0.416068081157     1.007825032230
         H            0.761551744324     2.258422912379     1.275409918843     1.007825032230
         H            2.393535744324     2.662624912379     0.715419918843     1.007825032230
         H            3.363258744324    -2.089108087621    -0.407846081157     1.007825032230
         H           -2.823376255676     2.079615912379    -0.771305081157     1.007825032230
         H           -3.161331255676    -1.942020087621     0.754534918843     1.007825032230
         H           -4.320226955676     0.103592812379    -0.209944281157     1.007825032230

  Basis Set: AUG-CC-PVTZ
    Blend: AUG-CC-PVTZ
  Basis Set: (AUG-CC-PVTZ AUX)
    Blend: AUG-CC-PVTZ-JKFIT
	 Reference Energy          =    -525.5411592952477804 [Eh]
	 Singles Energy            =      -0.0000000000000000 [Eh]
	 Same-Spin Energy          =      -0.5776291579427989 [Eh]
	 Opposite-Spin Energy      =      -1.7388071868224459 [Eh]
	 Correlation Energy        =      -2.3164363447652447 [Eh]
	 Total Energy              =    -527.8575956400130735 [Eh]

	 ================> DF-SCS-MP2 Energies <==================
	-----------------------------------------------------------
	 SCS Same-Spin Scale       =       0.3333333333333333 [-]
	 SCS Opposite-Spin Scale   =       1.2000000000000000 [-]
	 SCS Same-Spin Energy      =      -0.1925430526475996 [Eh]
	 SCS Opposite-Spin Energy  =      -2.0865686241869352 [Eh]
	 SCS Correlation Energy    =      -2.2791116768345350 [Eh]
	 SCS Total Energy          =    -527.8202709720823123 [Eh]
	-----------------------------------------------------------

  Dipole Moment: [D]
     X:    -2.5455      Y:     2.5118      Z:     0.3197     Total:     3.5904

*** Psi4 exiting successfully. Buy a developer a beer!
