                               Psi4 1.4a2.dev612

  ==> Input File <==

--------------------------------------------------------------------------
#psi4
#
memory 32 gb

molecule  {
0 1
  N        0.8160970    -0.2990240    -0.0443680
  N        1.3585440    -1.5263750    -0.2734470
  N       -1.0817850     0.9875590    -0.4601130
  N       -1.2686320    -1.2431920     0.4227390
  C        1.7597130     0.6951090     0.1272320
  C        2.9786120     0.0532150     0.0016160
  C       -0.5903530    -0.1795160    -0.0248380
  C        1.4539390     2.1247050     0.4316710
  C        2.6793880    -1.2992810    -0.2463060
  C       -2.4210880     1.0928180    -0.4382200
  C       -2.6039190    -1.1175230     0.3972460
  C       -3.2414650     0.0469210    -0.0276130
  H        3.9528590     0.5149220     0.0929350
  H        1.0131890     2.6387050    -0.4244530
  H        0.7544440     2.2203260     1.2670250
  H        2.3864280     2.6245280     0.7070350
  H        3.3561510    -2.1272050    -0.4162310
  H       -2.8416189     1.9377603    -1.0609553
  H       -3.1684390    -1.9801170     0.7461500
  H       -4.3226790     0.1358530    -0.0311710
units angstrom
no_reorient  #important for SAPT in psi4, default
symmetry c1  #important for SAPT in psi4, default
}

set PROPERTIES_ORIGIN ["COM"]
properties('MP2/aug-cc-pvtz', properties = ['dipole'])
--------------------------------------------------------------------------

    Molecular point group: c1
  Charge       = 0
  Multiplicity = 1
  Basis Set: AUG-CC-PVTZ
    Blend: AUG-CC-PVTZ
  Basis Set: (AUG-CC-PVTZ AUX)
    Blend: AUG-CC-PVTZ-JKFIT

    Orbital Energies [Eh]
    ---------------------

    Doubly Occupied:

       1A    -15.642343     2A    -15.583223     3A    -15.581597
       4A    -15.579113     5A    -11.367813     6A    -11.315419
       7A    -11.309736     8A    -11.286914     9A    -11.254724
      10A    -11.253268    11A    -11.234808    12A    -11.217463
      13A     -1.386574    14A     -1.312921    15A     -1.206267
      16A     -1.129435    17A     -1.084366    18A     -1.045041
      19A     -0.958928    20A     -0.906657    21A     -0.896459
      22A     -0.798371    23A     -0.794789    24A     -0.712131
      25A     -0.706823    26A     -0.682201    27A     -0.639234
      28A     -0.632076    29A     -0.602705    30A     -0.589898
      31A     -0.588499    32A     -0.569784    33A     -0.564065
      34A     -0.552668    35A     -0.536071    36A     -0.492087
      37A     -0.454801    38A     -0.433184    39A     -0.419112
      40A     -0.406469    41A     -0.337859    42A     -0.332534

  @DF-RHF Final Energy:  -525.53675205978323

   => Energetics <=

    Nuclear Repulsion Energy =            658.0887741401097628
    One-Electron Energy =               -2018.4541942331968585
    Two-Electron Energy =                 834.8286680333038703
    Total Energy =                       -525.5367520597832254
  Basis Set: (AUG-CC-PVTZ AUX)
    Blend: AUG-CC-PVTZ-RI
    Molecular point group: c1

    Geometry (in Angstrom), charge = 0, multiplicity = 1:

       Center              X                  Y                   Z               Mass
    ------------   -----------------  -----------------  -----------------  -----------------
         N            0.823245537104    -0.260716792507    -0.035390586685    14.003074004430
         N            1.365692537104    -1.488067792507    -0.264469586685    14.003074004430
         N           -1.074636462896     1.025866207493    -0.451135586685    14.003074004430
         N           -1.261483462896    -1.204884792507     0.431716413315    14.003074004430
         C            1.766861537104     0.733416207493     0.136209413315    12.000000000000
         C            2.985760537104     0.091522207493     0.010593413315    12.000000000000
         C           -0.583204462896    -0.141208792507    -0.015860586685    12.000000000000
         C            1.461087537104     2.163012207493     0.440648413315    12.000000000000
         C            2.686536537104    -1.260973792507    -0.237328586685    12.000000000000
         C           -2.413939462896     1.131125207493    -0.429242586685    12.000000000000
         C           -2.596770462896    -1.079215792507     0.406223413315    12.000000000000
         C           -3.234316462896     0.085228207493    -0.018635586685    12.000000000000
         H            3.960007537104     0.553229207493     0.101912413315     1.007825032230
         H            1.020337537104     2.677012207493    -0.415475586685     1.007825032230
         H            0.761592537104     2.258633207493     1.276002413315     1.007825032230
         H            2.393576537104     2.662835207493     0.716012413315     1.007825032230
         H            3.363299537104    -2.088897792507    -0.407253586685     1.007825032230
         H           -2.834470362896     1.976067507493    -1.051977886685     1.007825032230
         H           -3.161290462896    -1.941809792507     0.755127413315     1.007825032230
         H           -4.315530462896     0.174160207493    -0.022193586685     1.007825032230

  Basis Set: AUG-CC-PVTZ
    Blend: AUG-CC-PVTZ
  Basis Set: (AUG-CC-PVTZ AUX)
    Blend: AUG-CC-PVTZ-JKFIT
	 Reference Energy          =    -525.5367520597832254 [Eh]
	 Singles Energy            =      -0.0000000000000000 [Eh]
	 Same-Spin Energy          =      -0.5779677744804532 [Eh]
	 Opposite-Spin Energy      =      -1.7395388051729925 [Eh]
	 Correlation Energy        =      -2.3175065796534460 [Eh]
	 Total Energy              =    -527.8542586394366936 [Eh]

	 ================> DF-SCS-MP2 Energies <==================
	-----------------------------------------------------------
	 SCS Same-Spin Scale       =       0.3333333333333333 [-]
	 SCS Opposite-Spin Scale   =       1.2000000000000000 [-]
	 SCS Same-Spin Energy      =      -0.1926559248268177 [Eh]
	 SCS Opposite-Spin Energy  =      -2.0874465662075909 [Eh]
	 SCS Correlation Energy    =      -2.2801024910344085 [Eh]
	 SCS Total Energy          =    -527.8168545508176521 [Eh]
	-----------------------------------------------------------

  Dipole Moment: [D]
     X:    -2.5401      Y:     2.4542      Z:     0.3255     Total:     3.5470

*** Psi4 exiting successfully. Buy a developer a beer!
