                               Psi4 1.4a2.dev612

  ==> Input File <==

--------------------------------------------------------------------------
#psi4
#
memory 32 gb

molecule  {
0 1
  N        0.8160970    -0.2990240    -0.0443680
  N        1.3585440    -1.5263750    -0.2734470
  N       -1.0817850     0.9875590    -0.4601130
  N       -1.2686320    -1.2431920     0.4227390
  C        1.7597130     0.6951090     0.1272320
  C        2.9786120     0.0532150     0.0016160
  C       -0.5903530    -0.1795160    -0.0248380
  C        1.4539390     2.1247050     0.4316710
  C        2.6793880    -1.2992810    -0.2463060
  C       -2.4210880     1.0928180    -0.4382200
  C       -2.6039190    -1.1175230     0.3972460
  C       -3.2414650     0.0469210    -0.0276130
  H        3.9528590     0.5149220     0.0929350
  H        1.0131890     2.6387050    -0.4244530
  H        0.7544440     2.2203260     1.2670250
  H        2.3864280     2.6245280     0.7070350
  H        3.3561510    -2.1272050    -0.4162310
  H       -2.8304840     2.0415190    -0.7796900
  H       -3.1653770    -1.9265385     0.8862213
  H       -4.3226790     0.1358530    -0.0311710
units angstrom
no_reorient  #important for SAPT in psi4, default
symmetry c1  #important for SAPT in psi4, default
}

set PROPERTIES_ORIGIN ["COM"]
properties('MP2/aug-cc-pvtz', properties = ['dipole'])
--------------------------------------------------------------------------

    Molecular point group: c1
  Charge       = 0
  Multiplicity = 1
  Basis Set: AUG-CC-PVTZ
    Blend: AUG-CC-PVTZ
  Basis Set: (AUG-CC-PVTZ AUX)
    Blend: AUG-CC-PVTZ-JKFIT

    Orbital Energies [Eh]
    ---------------------

    Doubly Occupied:

       1A    -15.642198     2A    -15.582472     3A    -15.581541
       4A    -15.578958     5A    -11.367506     6A    -11.311548
       7A    -11.310576     8A    -11.286791     9A    -11.254610
      10A    -11.252834    11A    -11.234735    12A    -11.217371
      13A     -1.386408    14A     -1.312649    15A     -1.206091
      16A     -1.129441    17A     -1.084238    18A     -1.045032
      19A     -0.958837    20A     -0.908414    21A     -0.896522
      22A     -0.800072    23A     -0.794610    24A     -0.713124
      25A     -0.707068    26A     -0.682503    27A     -0.639067
      28A     -0.632841    29A     -0.605406    30A     -0.588972
      31A     -0.587639    32A     -0.574094    33A     -0.564020
      34A     -0.552675    35A     -0.535960    36A     -0.491732
      37A     -0.455338    38A     -0.430096    39A     -0.420859
      40A     -0.407479    41A     -0.337885    42A     -0.332446

  @DF-RHF Final Energy:  -525.54200389632399

   => Energetics <=

    Nuclear Repulsion Energy =            658.2319872588213912
    One-Electron Energy =               -2018.7426634892099173
    Two-Electron Energy =                 834.9686723340645358
    Total Energy =                       -525.5420038963239904
  Basis Set: (AUG-CC-PVTZ AUX)
    Blend: AUG-CC-PVTZ-RI
    Molecular point group: c1

    Geometry (in Angstrom), charge = 0, multiplicity = 1:

       Center              X                  Y                   Z               Mass
    ------------   -----------------  -----------------  -----------------  -----------------
         N            0.823156153999    -0.261707381115    -0.038043304771    14.003074004430
         N            1.365603153999    -1.489058381115    -0.267122304771    14.003074004430
         N           -1.074725846001     1.024875618885    -0.453788304771    14.003074004430
         N           -1.261572846001    -1.205875381115     0.429063695229    14.003074004430
         C            1.766772153999     0.732425618885     0.133556695229    12.000000000000
         C            2.985671153999     0.090531618885     0.007940695229    12.000000000000
         C           -0.583293846001    -0.142199381115    -0.018513304771    12.000000000000
         C            1.460998153999     2.162021618885     0.437995695229    12.000000000000
         C            2.686447153999    -1.261964381115    -0.239981304771    12.000000000000
         C           -2.414028846001     1.130134618885    -0.431895304771    12.000000000000
         C           -2.596859846001    -1.080206381115     0.403570695229    12.000000000000
         C           -3.234405846001     0.084237618885    -0.021288304771    12.000000000000
         H            3.959918153999     0.552238618885     0.099259695229     1.007825032230
         H            1.020248153999     2.676021618885    -0.418128304771     1.007825032230
         H            0.761503153999     2.257642618885     1.273349695229     1.007825032230
         H            2.393487153999     2.661844618885     0.713359695229     1.007825032230
         H            3.363210153999    -2.089888381115    -0.409906304771     1.007825032230
         H           -2.823424846001     2.078835618885    -0.773365304771     1.007825032230
         H           -3.158317846001    -1.889221881115     0.892545995229     1.007825032230
         H           -4.315619846001     0.173169618885    -0.024846304771     1.007825032230

  Basis Set: AUG-CC-PVTZ
    Blend: AUG-CC-PVTZ
  Basis Set: (AUG-CC-PVTZ AUX)
    Blend: AUG-CC-PVTZ-JKFIT
	 Reference Energy          =    -525.5420038963239904 [Eh]
	 Singles Energy            =      -0.0000000000000000 [Eh]
	 Same-Spin Energy          =      -0.5776655415502578 [Eh]
	 Opposite-Spin Energy      =      -1.7388478180223532 [Eh]
	 Correlation Energy        =      -2.3165133595726113 [Eh]
	 Total Energy              =    -527.8585172558965724 [Eh]

	 ================> DF-SCS-MP2 Energies <==================
	-----------------------------------------------------------
	 SCS Same-Spin Scale       =       0.3333333333333333 [-]
	 SCS Opposite-Spin Scale   =       1.2000000000000000 [-]
	 SCS Same-Spin Energy      =      -0.1925551805167526 [Eh]
	 SCS Opposite-Spin Energy  =      -2.0866173816268239 [Eh]
	 SCS Correlation Energy    =      -2.2791725621435766 [Eh]
	 SCS Total Energy          =    -527.8211764584675620 [Eh]
	-----------------------------------------------------------

  Dipole Moment: [D]
     X:    -2.5630      Y:     2.5918      Z:     0.5015     Total:     3.6794

*** Psi4 exiting successfully. Buy a developer a beer!
