                               Psi4 1.4a2.dev612

  ==> Input File <==

--------------------------------------------------------------------------
#psi4
#
memory 32 gb

molecule  {
0 1
  N        0.8160970    -0.2990240    -0.0443680
  N        1.3585440    -1.5263750    -0.2734470
  N       -1.0817850     0.9875590    -0.4601130
  N       -1.2686320    -1.2431920     0.4227390
  C        1.7597130     0.6951090     0.1272320
  C        2.9786120     0.0532150     0.0016160
  C       -0.5903530    -0.1795160    -0.0248380
  C        1.4550381     2.1051552     0.5297352
  C        2.6793880    -1.2992810    -0.2463060
  C       -2.4210880     1.0928180    -0.4382200
  C       -2.6039190    -1.1175230     0.3972460
  C       -3.2414650     0.0469210    -0.0276130
  H        3.9528590     0.5149220     0.0929350
  H        1.0131890     2.6387050    -0.4244530
  H        0.7544440     2.2203260     1.2670250
  H        2.3864280     2.6245280     0.7070350
  H        3.3561510    -2.1272050    -0.4162310
  H       -2.8304840     2.0415190    -0.7796900
  H       -3.1684390    -1.9801170     0.7461500
  H       -4.3226790     0.1358530    -0.0311710
units angstrom
no_reorient  #important for SAPT in psi4, default
symmetry c1  #important for SAPT in psi4, default
}

set PROPERTIES_ORIGIN ["COM"]
properties('MP2/aug-cc-pvtz', properties = ['dipole'])
--------------------------------------------------------------------------

    Molecular point group: c1
  Charge       = 0
  Multiplicity = 1
  Basis Set: AUG-CC-PVTZ
    Blend: AUG-CC-PVTZ
  Basis Set: (AUG-CC-PVTZ AUX)
    Blend: AUG-CC-PVTZ-JKFIT

    Orbital Energies [Eh]
    ---------------------

    Doubly Occupied:

       1A    -15.642012     2A    -15.582270     3A    -15.581351
       4A    -15.578659     5A    -11.367399     6A    -11.311489
       7A    -11.309506     8A    -11.287639     9A    -11.254633
      10A    -11.252685    11A    -11.235793    12A    -11.217301
      13A     -1.386311    14A     -1.312534    15A     -1.205986
      16A     -1.129375    17A     -1.084170    18A     -1.045008
      19A     -0.959893    20A     -0.909039    21A     -0.896639
      22A     -0.800283    23A     -0.795316    24A     -0.713943
      25A     -0.708095    26A     -0.683633    27A     -0.638575
      28A     -0.633525    29A     -0.608496    30A     -0.592491
      31A     -0.586028    32A     -0.577799    33A     -0.565426
      34A     -0.554102    35A     -0.526533    36A     -0.489456
      37A     -0.455228    38A     -0.430619    39A     -0.420051
      40A     -0.407690    41A     -0.338035    42A     -0.330879

  @DF-RHF Final Energy:  -525.53376406488167

   => Energetics <=

    Nuclear Repulsion Energy =            658.1660690517334160
    One-Electron Energy =               -2018.5878741226879356
    Two-Electron Energy =                 834.8880410060729673
    Total Energy =                       -525.5337640648816659
  Basis Set: (AUG-CC-PVTZ AUX)
    Blend: AUG-CC-PVTZ-RI
    Molecular point group: c1

    Geometry (in Angstrom), charge = 0, multiplicity = 1:

       Center              X                  Y                   Z               Mass
    ------------   -----------------  -----------------  -----------------  -----------------
         N            0.823093038295    -0.259904504085    -0.044512795377    14.003074004430
         N            1.365540038295    -1.487255504085    -0.273591795377    14.003074004430
         N           -1.074788961705     1.026678495915    -0.460257795377    14.003074004430
         N           -1.261635961705    -1.204072504085     0.422594204623    14.003074004430
         C            1.766709038295     0.734228495915     0.127087204623    12.000000000000
         C            2.985608038295     0.092334495915     0.001471204623    12.000000000000
         C           -0.583356961705    -0.140396504085    -0.024982795377    12.000000000000
         C            1.462034138295     2.144274695915     0.529590404623    12.000000000000
         C            2.686384038295    -1.260161504085    -0.246450795377    12.000000000000
         C           -2.414091961705     1.131937495915    -0.438364795377    12.000000000000
         C           -2.596922961705    -1.078403504085     0.397101204623    12.000000000000
         C           -3.234468961705     0.086040495915    -0.027757795377    12.000000000000
         H            3.959855038295     0.554041495915     0.092790204623     1.007825032230
         H            1.020185038295     2.677824495915    -0.424597795377     1.007825032230
         H            0.761440038295     2.259445495915     1.266880204623     1.007825032230
         H            2.393424038295     2.663647495915     0.706890204623     1.007825032230
         H            3.363147038295    -2.088085504085    -0.416375795377     1.007825032230
         H           -2.823487961705     2.080638495915    -0.779834795377     1.007825032230
         H           -3.161442961705    -1.940997504085     0.746005204623     1.007825032230
         H           -4.315682961705     0.174972495915    -0.031315795377     1.007825032230

  Basis Set: AUG-CC-PVTZ
    Blend: AUG-CC-PVTZ
  Basis Set: (AUG-CC-PVTZ AUX)
    Blend: AUG-CC-PVTZ-JKFIT
	 Reference Energy          =    -525.5337640648816659 [Eh]
	 Singles Energy            =      -0.0000000000000000 [Eh]
	 Same-Spin Energy          =      -0.5776986833284243 [Eh]
	 Opposite-Spin Energy      =      -1.7389919163079819 [Eh]
	 Correlation Energy        =      -2.3166905996364062 [Eh]
	 Total Energy              =    -527.8504546645181108 [Eh]

	 ================> DF-SCS-MP2 Energies <==================
	-----------------------------------------------------------
	 SCS Same-Spin Scale       =       0.3333333333333333 [-]
	 SCS Opposite-Spin Scale   =       1.2000000000000000 [-]
	 SCS Same-Spin Energy      =      -0.1925662277761414 [Eh]
	 SCS Opposite-Spin Energy  =      -2.0867902995695782 [Eh]
	 SCS Correlation Energy    =      -2.2793565273457195 [Eh]
	 SCS Total Energy          =    -527.8131205922273921 [Eh]
	-----------------------------------------------------------

  Dipole Moment: [D]
     X:    -2.5741      Y:     2.5419      Z:     0.4919     Total:     3.6509

*** Psi4 exiting successfully. Buy a developer a beer!
