                               Psi4 1.4a2.dev612

  ==> Input File <==

--------------------------------------------------------------------------
#psi4
#
memory 32 gb

molecule  {
0 1
  N        0.8160970    -0.2990240    -0.0443680
  N        1.3585440    -1.5263750    -0.2734470
  N       -1.0817850     0.9875590    -0.4601130
  N       -1.2686320    -1.2431920     0.4227390
  C        1.7597130     0.6951090     0.1272320
  C        2.9786120     0.0532150     0.0016160
  C       -0.5903530    -0.1795160    -0.0248380
  C        1.4572363     2.0660555     0.7258637
  C        2.6793880    -1.2992810    -0.2463060
  C       -2.4210880     1.0928180    -0.4382200
  C       -2.6039190    -1.1175230     0.3972460
  C       -3.2414650     0.0469210    -0.0276130
  H        3.9528590     0.5149220     0.0929350
  H        1.0131890     2.6387050    -0.4244530
  H        0.7544440     2.2203260     1.2670250
  H        2.3864280     2.6245280     0.7070350
  H        3.3561510    -2.1272050    -0.4162310
  H       -2.8304840     2.0415190    -0.7796900
  H       -3.1684390    -1.9801170     0.7461500
  H       -4.3226790     0.1358530    -0.0311710
units angstrom
no_reorient  #important for SAPT in psi4, default
symmetry c1  #important for SAPT in psi4, default
}

set PROPERTIES_ORIGIN ["COM"]
properties('MP2/aug-cc-pvtz', properties = ['dipole'])
--------------------------------------------------------------------------

    Molecular point group: c1
  Charge       = 0
  Multiplicity = 1
  Basis Set: AUG-CC-PVTZ
    Blend: AUG-CC-PVTZ
  Basis Set: (AUG-CC-PVTZ AUX)
    Blend: AUG-CC-PVTZ-JKFIT

    Orbital Energies [Eh]
    ---------------------

    Doubly Occupied:

       1A    -15.642091     2A    -15.581988     3A    -15.581928
       4A    -15.578732     5A    -11.367462     6A    -11.311342
       7A    -11.309525     8A    -11.293442     9A    -11.255581
      10A    -11.252668    11A    -11.246867    12A    -11.218375
      13A     -1.386749    14A     -1.312660    15A     -1.205891
      16A     -1.129606    17A     -1.083936    18A     -1.045273
      19A     -0.967275    20A     -0.908992    21A     -0.897312
      22A     -0.801440    23A     -0.795947    24A     -0.723848
      25A     -0.710635    26A     -0.690181    27A     -0.643255
      28A     -0.633665    29A     -0.621935    30A     -0.600847
      31A     -0.588754    32A     -0.575969    33A     -0.563397
      34A     -0.554284    35A     -0.504550    36A     -0.468147
      37A     -0.455644    38A     -0.430471    39A     -0.419015
      40A     -0.407799    41A     -0.338508    42A     -0.324533

  @DF-RHF Final Energy:  -525.46077211293903

   => Energetics <=

    Nuclear Repulsion Energy =            657.6492440533145327
    One-Electron Energy =               -2017.3589992176553096
    Two-Electron Energy =                 834.2489830514017513
    Total Energy =                       -525.4607721129390256
  Basis Set: (AUG-CC-PVTZ AUX)
    Blend: AUG-CC-PVTZ-RI
    Molecular point group: c1

    Geometry (in Angstrom), charge = 0, multiplicity = 1:

       Center              X                  Y                   Z               Mass
    ------------   -----------------  -----------------  -----------------  -----------------
         N            0.822928250433    -0.256973398641    -0.059215550492    14.003074004430
         N            1.365375250433    -1.484324398641    -0.288294550492    14.003074004430
         N           -1.074953749567     1.029609601359    -0.474960550492    14.003074004430
         N           -1.261800749567    -1.201141398641     0.407891449508    14.003074004430
         C            1.766544250433     0.737159601359     0.112384449508    12.000000000000
         C            2.985443250433     0.095265601359    -0.013231550492    12.000000000000
         C           -0.583521749567    -0.137465398641    -0.039685550492    12.000000000000
         C            1.464067550433     2.108106101359     0.711016149508    12.000000000000
         C            2.686219250433    -1.257230398641    -0.261153550492    12.000000000000
         C           -2.414256749567     1.134868601359    -0.453067550492    12.000000000000
         C           -2.597087749567    -1.075472398641     0.382398449508    12.000000000000
         C           -3.234633749567     0.088971601359    -0.042460550492    12.000000000000
         H            3.959690250433     0.556972601359     0.078087449508     1.007825032230
         H            1.020020250433     2.680755601359    -0.439300550492     1.007825032230
         H            0.761275250433     2.262376601359     1.252177449508     1.007825032230
         H            2.393259250433     2.666578601359     0.692187449508     1.007825032230
         H            3.362982250433    -2.085154398641    -0.431078550492     1.007825032230
         H           -2.823652749567     2.083569601359    -0.794537550492     1.007825032230
         H           -3.161607749567    -1.938066398641     0.731302449508     1.007825032230
         H           -4.315847749567     0.177903601359    -0.046018550492     1.007825032230

  Basis Set: AUG-CC-PVTZ
    Blend: AUG-CC-PVTZ
  Basis Set: (AUG-CC-PVTZ AUX)
    Blend: AUG-CC-PVTZ-JKFIT
	 Reference Energy          =    -525.4607721129390256 [Eh]
	 Singles Energy            =      -0.0000000000000000 [Eh]
	 Same-Spin Energy          =      -0.5788897491777023 [Eh]
	 Opposite-Spin Energy      =      -1.7426519634264361 [Eh]
	 Correlation Energy        =      -2.3215417126041382 [Eh]
	 Total Energy              =    -527.7823138255431559 [Eh]

	 ================> DF-SCS-MP2 Energies <==================
	-----------------------------------------------------------
	 SCS Same-Spin Scale       =       0.3333333333333333 [-]
	 SCS Opposite-Spin Scale   =       1.2000000000000000 [-]
	 SCS Same-Spin Energy      =      -0.1929632497259008 [Eh]
	 SCS Opposite-Spin Energy  =      -2.0911823561117231 [Eh]
	 SCS Correlation Energy    =      -2.2841456058376237 [Eh]
	 SCS Total Energy          =    -527.7449177187766054 [Eh]
	-----------------------------------------------------------

  Dipole Moment: [D]
     X:    -2.5386      Y:     2.4616      Z:     0.5569     Total:     3.5797

*** Psi4 exiting successfully. Buy a developer a beer!
