                               Psi4 1.4a2.dev612

  ==> Input File <==

--------------------------------------------------------------------------
#psi4
#
memory 32 gb

molecule  {
0 1
  N        0.8160970    -0.2990240    -0.0443680
  N        1.3585440    -1.5263750    -0.2734470
  N       -1.0817850     0.9875590    -0.4601130
  N       -1.2686320    -1.2431920     0.4227390
  C        1.7597130     0.6951090     0.1272320
  C        2.9786120     0.0532150     0.0016160
  C       -0.5903530    -0.1795160    -0.0248380
  C        1.4539390     2.1247050     0.4316710
  C        2.6793880    -1.2992810    -0.2463060
  C       -2.4210880     1.0928180    -0.4382200
  C       -2.6039190    -1.1175230     0.3972460
  C       -3.2414650     0.0469210    -0.0276130
  H        3.9528974     0.4873251     0.2403745
  H        1.0131890     2.6387050    -0.4244530
  H        0.7544440     2.2203260     1.2670250
  H        2.3864280     2.6245280     0.7070350
  H        3.3561510    -2.1272050    -0.4162310
  H       -2.8304840     2.0415190    -0.7796900
  H       -3.1684390    -1.9801170     0.7461500
  H       -4.3226790     0.1358530    -0.0311710
units angstrom
no_reorient  #important for SAPT in psi4, default
symmetry c1  #important for SAPT in psi4, default
}

set PROPERTIES_ORIGIN ["COM"]
properties('MP2/aug-cc-pvtz', properties = ['dipole'])
--------------------------------------------------------------------------

    Molecular point group: c1
  Charge       = 0
  Multiplicity = 1
  Basis Set: AUG-CC-PVTZ
    Blend: AUG-CC-PVTZ
  Basis Set: (AUG-CC-PVTZ AUX)
    Blend: AUG-CC-PVTZ-JKFIT

    Orbital Energies [Eh]
    ---------------------

    Doubly Occupied:

       1A    -15.642437     2A    -15.582411     3A    -15.581724
       4A    -15.578719     5A    -11.367515     6A    -11.311570
       7A    -11.309570     8A    -11.287146     9A    -11.254761
      10A    -11.252677    11A    -11.234843    12A    -11.218275
      13A     -1.386565    14A     -1.312648    15A     -1.206084
      16A     -1.129564    17A     -1.084336    18A     -1.045014
      19A     -0.958844    20A     -0.909107    21A     -0.896533
      22A     -0.800231    23A     -0.794475    24A     -0.713096
      25A     -0.707396    26A     -0.682329    27A     -0.639105
      28A     -0.633168    29A     -0.606425    30A     -0.589311
      31A     -0.585104    32A     -0.575597    33A     -0.563017
      34A     -0.553081    35A     -0.535995    36A     -0.491695
      37A     -0.455239    38A     -0.430593    39A     -0.420205
      40A     -0.408076    41A     -0.337923    42A     -0.332564

  @DF-RHF Final Energy:  -525.54235383769310

   => Energetics <=

    Nuclear Repulsion Energy =            658.2340185956586538
    One-Electron Energy =               -2018.7428088965448296
    Two-Electron Energy =                 834.9664364631930766
    Total Energy =                       -525.5423538376930992
  Basis Set: (AUG-CC-PVTZ AUX)
    Blend: AUG-CC-PVTZ-RI
    Molecular point group: c1

    Geometry (in Angstrom), charge = 0, multiplicity = 1:

       Center              X                  Y                   Z               Mass
    ------------   -----------------  -----------------  -----------------  -----------------
         N            0.823175190462    -0.261196304100    -0.038089694659    14.003074004430
         N            1.365622190462    -1.488547304100    -0.267168694659    14.003074004430
         N           -1.074706809538     1.025386695900    -0.453834694659    14.003074004430
         N           -1.261553809538    -1.205364304100     0.429017305341    14.003074004430
         C            1.766791190462     0.732936695900     0.133510305341    12.000000000000
         C            2.985690190462     0.091042695900     0.007894305341    12.000000000000
         C           -0.583274809538    -0.141688304100    -0.018559694659    12.000000000000
         C            1.461017190462     2.162532695900     0.437949305341    12.000000000000
         C            2.686466190462    -1.261453304100    -0.240027694659    12.000000000000
         C           -2.414009809538     1.130645695900    -0.431941694659    12.000000000000
         C           -2.596840809538    -1.079695304100     0.403524305341    12.000000000000
         C           -3.234386809538     0.084748695900    -0.021334694659    12.000000000000
         H            3.959975590462     0.525152795900     0.246652805341     1.007825032230
         H            1.020267190462     2.676532695900    -0.418174694659     1.007825032230
         H            0.761522190462     2.258153695900     1.273303305341     1.007825032230
         H            2.393506190462     2.662355695900     0.713313305341     1.007825032230
         H            3.363229190462    -2.089377304100    -0.409952694659     1.007825032230
         H           -2.823405809538     2.079346695900    -0.773411694659     1.007825032230
         H           -3.161360809538    -1.942289304100     0.752428305341     1.007825032230
         H           -4.315600809538     0.173680695900    -0.024892694659     1.007825032230

  Basis Set: AUG-CC-PVTZ
    Blend: AUG-CC-PVTZ
  Basis Set: (AUG-CC-PVTZ AUX)
    Blend: AUG-CC-PVTZ-JKFIT
	 Reference Energy          =    -525.5423538376930992 [Eh]
	 Singles Energy            =      -0.0000000000000000 [Eh]
	 Same-Spin Energy          =      -0.5776061152727455 [Eh]
	 Opposite-Spin Energy      =      -1.7387456492480970 [Eh]
	 Correlation Energy        =      -2.3163517645208427 [Eh]
	 Total Energy              =    -527.8587056022139450 [Eh]

	 ================> DF-SCS-MP2 Energies <==================
	-----------------------------------------------------------
	 SCS Same-Spin Scale       =       0.3333333333333333 [-]
	 SCS Opposite-Spin Scale   =       1.2000000000000000 [-]
	 SCS Same-Spin Energy      =      -0.1925353717575818 [Eh]
	 SCS Opposite-Spin Energy  =      -2.0864947790977162 [Eh]
	 SCS Correlation Energy    =      -2.2790301508552981 [Eh]
	 SCS Total Energy          =    -527.8213839885484049 [Eh]
	-----------------------------------------------------------

  Dipole Moment: [D]
     X:    -2.5911      Y:     2.5248      Z:     0.5521     Total:     3.6596

*** Psi4 exiting successfully. Buy a developer a beer!
