                               Psi4 1.4a2.dev612

  ==> Input File <==

--------------------------------------------------------------------------
#psi4
#
memory 32 gb

molecule  {
0 1
  N        0.8160970    -0.2990240    -0.0443680
  N        1.3585440    -1.5263750    -0.2734470
  N       -1.0817850     0.9875590    -0.4601130
  N       -1.2556313    -1.1338399     0.7017965
  C        1.7597130     0.6951090     0.1272320
  C        2.9786120     0.0532150     0.0016160
  C       -0.5903530    -0.1795160    -0.0248380
  C        1.4539390     2.1247050     0.4316710
  C        2.6793880    -1.2992810    -0.2463060
  C       -2.4210880     1.0928180    -0.4382200
  C       -2.6039190    -1.1175230     0.3972460
  C       -3.2414650     0.0469210    -0.0276130
  H        3.9528590     0.5149220     0.0929350
  H        1.0131890     2.6387050    -0.4244530
  H        0.7544440     2.2203260     1.2670250
  H        2.3864280     2.6245280     0.7070350
  H        3.3561510    -2.1272050    -0.4162310
  H       -2.8304840     2.0415190    -0.7796900
  H       -3.1684390    -1.9801170     0.7461500
  H       -4.3226790     0.1358530    -0.0311710
units angstrom
no_reorient  #important for SAPT in psi4, default
symmetry c1  #important for SAPT in psi4, default
}

set PROPERTIES_ORIGIN ["COM"]
properties('MP2/aug-cc-pvtz', properties = ['dipole'])
--------------------------------------------------------------------------

    Molecular point group: c1
  Charge       = 0
  Multiplicity = 1
  Basis Set: AUG-CC-PVTZ
    Blend: AUG-CC-PVTZ
  Basis Set: (AUG-CC-PVTZ AUX)
    Blend: AUG-CC-PVTZ-JKFIT

    Orbital Energies [Eh]
    ---------------------

    Doubly Occupied:

       1A    -15.642003     2A    -15.587595     3A    -15.583833
       4A    -15.582682     5A    -11.371269     6A    -11.315098
       7A    -11.312608     8A    -11.286759     9A    -11.254688
      10A    -11.254328    11A    -11.234657    12A    -11.217632
      13A     -1.384992    14A     -1.306935    15A     -1.196359
      16A     -1.129139    17A     -1.083600    18A     -1.045219
      19A     -0.958867    20A     -0.907585    21A     -0.890633
      22A     -0.798392    23A     -0.794997    24A     -0.711485
      25A     -0.702488    26A     -0.683576    27A     -0.634811
      28A     -0.631608    29A     -0.607328    30A     -0.588212
      31A     -0.585018    32A     -0.571848    33A     -0.563933
      34A     -0.552355    35A     -0.535709    36A     -0.495561
      37A     -0.454749    38A     -0.439757    39A     -0.408797
      40A     -0.401210    41A     -0.341162    42A     -0.332678

  @DF-RHF Final Energy:  -525.52182256225956

   => Energetics <=

    Nuclear Repulsion Energy =            656.9082987241436058
    One-Electron Energy =               -2016.0959387954542308
    Two-Electron Energy =                 833.6658175090510667
    Total Energy =                       -525.5218225622595583
  Basis Set: (AUG-CC-PVTZ AUX)
    Blend: AUG-CC-PVTZ-RI
    Molecular point group: c1

    Geometry (in Angstrom), charge = 0, multiplicity = 1:

       Center              X                  Y                   Z               Mass
    ------------   -----------------  -----------------  -----------------  -----------------
         N            0.822038153563    -0.270935984910    -0.061572887168    14.003074004430
         N            1.364485153563    -1.498286984910    -0.290651887168    14.003074004430
         N           -1.075843846437     1.015647015090    -0.477317887168    14.003074004430
         N           -1.249690146437    -1.105751884910     0.684591612832    14.003074004430
         C            1.765654153563     0.723197015090     0.110027112832    12.000000000000
         C            2.984553153563     0.081303015090    -0.015588887168    12.000000000000
         C           -0.584411846437    -0.151427984910    -0.042042887168    12.000000000000
         C            1.459880153563     2.152793015090     0.414466112832    12.000000000000
         C            2.685329153563    -1.271192984910    -0.263510887168    12.000000000000
         C           -2.415146846437     1.120906015090    -0.455424887168    12.000000000000
         C           -2.597977846437    -1.089434984910     0.380041112832    12.000000000000
         C           -3.235523846437     0.075009015090    -0.044817887168    12.000000000000
         H            3.958800153563     0.543010015090     0.075730112832     1.007825032230
         H            1.019130153563     2.666793015090    -0.441657887168     1.007825032230
         H            0.760385153563     2.248414015090     1.249820112832     1.007825032230
         H            2.392369153563     2.652616015090     0.689830112832     1.007825032230
         H            3.362092153563    -2.099116984910    -0.433435887168     1.007825032230
         H           -2.824542846437     2.069607015090    -0.796894887168     1.007825032230
         H           -3.162497846437    -1.952028984910     0.728945112832     1.007825032230
         H           -4.316737846437     0.163941015090    -0.048375887168     1.007825032230

  Basis Set: AUG-CC-PVTZ
    Blend: AUG-CC-PVTZ
  Basis Set: (AUG-CC-PVTZ AUX)
    Blend: AUG-CC-PVTZ-JKFIT
	 Reference Energy          =    -525.5218225622595583 [Eh]
	 Singles Energy            =      -0.0000000000000000 [Eh]
	 Same-Spin Energy          =      -0.5789068010852771 [Eh]
	 Opposite-Spin Energy      =      -1.7428179653108677 [Eh]
	 Correlation Energy        =      -2.3217247663961449 [Eh]
	 Total Energy              =    -527.8435473286557453 [Eh]

	 ================> DF-SCS-MP2 Energies <==================
	-----------------------------------------------------------
	 SCS Same-Spin Scale       =       0.3333333333333333 [-]
	 SCS Opposite-Spin Scale   =       1.2000000000000000 [-]
	 SCS Same-Spin Energy      =      -0.1929689336950924 [Eh]
	 SCS Opposite-Spin Energy  =      -2.0913815583730413 [Eh]
	 SCS Correlation Energy    =      -2.2843504920681337 [Eh]
	 SCS Total Energy          =    -527.8061730543277008 [Eh]
	-----------------------------------------------------------

  Dipole Moment: [D]
     X:    -2.5870      Y:     2.4962      Z:     0.1975     Total:     3.6004

*** Psi4 exiting successfully. Buy a developer a beer!
