                               Psi4 1.4a2.dev612

  ==> Input File <==

--------------------------------------------------------------------------
#psi4
#
memory 32 gb

molecule  {
0 1
  N        0.8160970    -0.2990240    -0.0443680
  N        1.3585440    -1.5263750    -0.2734470
  N       -1.0817850     0.9875590    -0.4601130
  N       -1.2686320    -1.2431920     0.4227390
  C        1.7597130     0.6951090     0.1272320
  C        2.9786120     0.0532150     0.0016160
  C       -0.5903530    -0.1795160    -0.0248380
  C        1.4539390     2.1247050     0.4316710
  C        2.6793880    -1.2992810    -0.2463060
  C       -2.4210880     1.0928180    -0.4382200
  C       -2.6039190    -1.1175230     0.3972460
  C       -3.2414650     0.0469210    -0.0276130
  H        3.9528846     0.4965241     0.1912280
  H        1.0131890     2.6387050    -0.4244530
  H        0.7544440     2.2203260     1.2670250
  H        2.3864280     2.6245280     0.7070350
  H        3.3561510    -2.1272050    -0.4162310
  H       -2.8304840     2.0415190    -0.7796900
  H       -3.1684390    -1.9801170     0.7461500
  H       -4.3226790     0.1358530    -0.0311710
units angstrom
no_reorient  #important for SAPT in psi4, default
symmetry c1  #important for SAPT in psi4, default
}

set PROPERTIES_ORIGIN ["COM"]
properties('MP2/aug-cc-pvtz', properties = ['dipole'])
--------------------------------------------------------------------------

    Molecular point group: c1
  Charge       = 0
  Multiplicity = 1
  Basis Set: AUG-CC-PVTZ
    Blend: AUG-CC-PVTZ
  Basis Set: (AUG-CC-PVTZ AUX)
    Blend: AUG-CC-PVTZ-JKFIT

    Orbital Energies [Eh]
    ---------------------

    Doubly Occupied:

       1A    -15.642289     2A    -15.582392     3A    -15.581611
       4A    -15.578675     5A    -11.367454     6A    -11.311537
       7A    -11.309523     8A    -11.286941     9A    -11.254659
      10A    -11.252662    11A    -11.234780    12A    -11.217778
      13A     -1.386450    14A     -1.312590    15A     -1.206046
      16A     -1.129483    17A     -1.084280    18A     -1.045013
      19A     -0.958827    20A     -0.909077    21A     -0.896542
      22A     -0.800181    23A     -0.794885    24A     -0.713102
      25A     -0.707378    26A     -0.682430    27A     -0.638769
      28A     -0.633363    29A     -0.606738    30A     -0.589415
      31A     -0.585740    32A     -0.575456    33A     -0.563481
      34A     -0.552961    35A     -0.535957    36A     -0.491666
      37A     -0.455178    38A     -0.430546    39A     -0.420187
      40A     -0.407965    41A     -0.337944    42A     -0.332495

  @DF-RHF Final Energy:  -525.54307366642877

   => Energetics <=

    Nuclear Repulsion Energy =            658.2564714693112364
    One-Electron Energy =               -2018.7901951632550208
    Two-Electron Energy =                 834.9906500275150165
    Total Energy =                       -525.5430736664287679
  Basis Set: (AUG-CC-PVTZ AUX)
    Blend: AUG-CC-PVTZ-RI
    Molecular point group: c1

    Geometry (in Angstrom), charge = 0, multiplicity = 1:

       Center              X                  Y                   Z               Mass
    ------------   -----------------  -----------------  -----------------  -----------------
         N            0.823175271050    -0.261254220629    -0.037780270295    14.003074004430
         N            1.365622271050    -1.488605220629    -0.266859270295    14.003074004430
         N           -1.074706728950     1.025328779371    -0.453525270295    14.003074004430
         N           -1.261553728950    -1.205422220629     0.429326729705    14.003074004430
         C            1.766791271050     0.732878779371     0.133819729705    12.000000000000
         C            2.985690271050     0.090984779371     0.008203729705    12.000000000000
         C           -0.583274728950    -0.141746220629    -0.018250270295    12.000000000000
         C            1.461017271050     2.162474779371     0.438258729705    12.000000000000
         C            2.686466271050    -1.261511220629    -0.239718270295    12.000000000000
         C           -2.414009728950     1.130587779371    -0.431632270295    12.000000000000
         C           -2.596840728950    -1.079753220629     0.403833729705    12.000000000000
         C           -3.234386728950     0.084690779371    -0.021025270295    12.000000000000
         H            3.959962871050     0.534293879371     0.197815729705     1.007825032230
         H            1.020267271050     2.676474779371    -0.417865270295     1.007825032230
         H            0.761522271050     2.258095779371     1.273612729705     1.007825032230
         H            2.393506271050     2.662297779371     0.713622729705     1.007825032230
         H            3.363229271050    -2.089435220629    -0.409643270295     1.007825032230
         H           -2.823405728950     2.079288779371    -0.773102270295     1.007825032230
         H           -3.161360728950    -1.942347220629     0.752737729705     1.007825032230
         H           -4.315600728950     0.173622779371    -0.024583270295     1.007825032230

  Basis Set: AUG-CC-PVTZ
    Blend: AUG-CC-PVTZ
  Basis Set: (AUG-CC-PVTZ AUX)
    Blend: AUG-CC-PVTZ-JKFIT
	 Reference Energy          =    -525.5430736664287679 [Eh]
	 Singles Energy            =      -0.0000000000000000 [Eh]
	 Same-Spin Energy          =      -0.5775795563239814 [Eh]
	 Opposite-Spin Energy      =      -1.7386791970837427 [Eh]
	 Correlation Energy        =      -2.3162587534077241 [Eh]
	 Total Energy              =    -527.8593324198365053 [Eh]

	 ================> DF-SCS-MP2 Energies <==================
	-----------------------------------------------------------
	 SCS Same-Spin Scale       =       0.3333333333333333 [-]
	 SCS Opposite-Spin Scale   =       1.2000000000000000 [-]
	 SCS Same-Spin Energy      =      -0.1925265187746605 [Eh]
	 SCS Opposite-Spin Energy  =      -2.0864150365004912 [Eh]
	 SCS Correlation Energy    =      -2.2789415552751517 [Eh]
	 SCS Total Energy          =    -527.8220152217039640 [Eh]
	-----------------------------------------------------------

  Dipole Moment: [D]
     X:    -2.5824      Y:     2.5364      Z:     0.5153     Total:     3.6562

*** Psi4 exiting successfully. Buy a developer a beer!
