                               Psi4 1.4a2.dev612

  ==> Input File <==

--------------------------------------------------------------------------
#psi4
#
memory 32 gb

molecule  {
0 1
  N        0.8160970    -0.2990240    -0.0443680
  N        1.3585440    -1.5263750    -0.2734470
  N       -1.0817850     0.9875590    -0.4601130
  N       -1.2686320    -1.2431920     0.4227390
  C        1.7597130     0.6951090     0.1272320
  C        2.9786120     0.0532150     0.0016160
  C       -0.5903530    -0.1795160    -0.0248380
  C        1.4539390     2.1247050     0.4316710
  C        2.6793880    -1.2992810    -0.2463060
  C       -2.4210880     1.0928180    -0.4382200
  C       -2.6039190    -1.1175230     0.3972460
  C       -3.2414650     0.0469210    -0.0276130
  H        3.9529229     0.4689272     0.3386675
  H        1.0131890     2.6387050    -0.4244530
  H        0.7544440     2.2203260     1.2670250
  H        2.3864280     2.6245280     0.7070350
  H        3.3561510    -2.1272050    -0.4162310
  H       -2.8304840     2.0415190    -0.7796900
  H       -3.1684390    -1.9801170     0.7461500
  H       -4.3226790     0.1358530    -0.0311710
units angstrom
no_reorient  #important for SAPT in psi4, default
symmetry c1  #important for SAPT in psi4, default
}

set PROPERTIES_ORIGIN ["COM"]
properties('MP2/aug-cc-pvtz', properties = ['dipole'])
--------------------------------------------------------------------------

    Molecular point group: c1
  Charge       = 0
  Multiplicity = 1
  Basis Set: AUG-CC-PVTZ
    Blend: AUG-CC-PVTZ
  Basis Set: (AUG-CC-PVTZ AUX)
    Blend: AUG-CC-PVTZ-JKFIT

    Orbital Energies [Eh]
    ---------------------

    Doubly Occupied:

       1A    -15.642846     2A    -15.582513     3A    -15.582023
       4A    -15.578868     5A    -11.367697     6A    -11.311686
       7A    -11.309715     8A    -11.287752     9A    -11.255041
      10A    -11.252765    11A    -11.235013    12A    -11.219773
      13A     -1.386896    14A     -1.312831    15A     -1.206220
      16A     -1.129800    17A     -1.084489    18A     -1.045021
      19A     -0.958882    20A     -0.909213    21A     -0.896513
      22A     -0.800389    23A     -0.793243    24A     -0.713122
      25A     -0.707478    26A     -0.682041    27A     -0.639778
      28A     -0.632593    29A     -0.605702    30A     -0.589166
      31A     -0.583467    32A     -0.575810    33A     -0.561493
      34A     -0.553261    35A     -0.536070    36A     -0.491803
      37A     -0.455379    38A     -0.430741    39A     -0.420303
      40A     -0.408268    41A     -0.337945    42A     -0.332713

  @DF-RHF Final Energy:  -525.53985133056710

   => Energetics <=

    Nuclear Repulsion Energy =            658.1643494566303616
    One-Electron Energy =               -2018.5957528073511185
    Two-Electron Energy =                 834.8915520201536538
    Total Energy =                       -525.5398513305671031
  Basis Set: (AUG-CC-PVTZ AUX)
    Blend: AUG-CC-PVTZ-RI
    Molecular point group: c1

    Geometry (in Angstrom), charge = 0, multiplicity = 1:

       Center              X                  Y                   Z               Mass
    ------------   -----------------  -----------------  -----------------  -----------------
         N            0.823175029915    -0.261080471670    -0.038708543386    14.003074004430
         N            1.365622029915    -1.488431471670    -0.267787543386    14.003074004430
         N           -1.074706970085     1.025502528330    -0.454453543386    14.003074004430
         N           -1.261553970085    -1.205248471670     0.428398456614    14.003074004430
         C            1.766791029915     0.733052528330     0.132891456614    12.000000000000
         C            2.985690029915     0.091158528330     0.007275456614    12.000000000000
         C           -0.583274970085    -0.141572471670    -0.019178543386    12.000000000000
         C            1.461017029915     2.162648528330     0.437330456614    12.000000000000
         C            2.686466029915    -1.261337471670    -0.240646543386    12.000000000000
         C           -2.414009970085     1.130761528330    -0.432560543386    12.000000000000
         C           -2.596840970085    -1.079579471670     0.402905456614    12.000000000000
         C           -3.234386970085     0.084864528330    -0.021953543386    12.000000000000
         H            3.960000929915     0.506870728330     0.344326956614     1.007825032230
         H            1.020267029915     2.676648528330    -0.418793543386     1.007825032230
         H            0.761522029915     2.258269528330     1.272684456614     1.007825032230
         H            2.393506029915     2.662471528330     0.712694456614     1.007825032230
         H            3.363229029915    -2.089261471670    -0.410571543386     1.007825032230
         H           -2.823405970085     2.079462528330    -0.774030543386     1.007825032230
         H           -3.161360970085    -1.942173471670     0.751809456614     1.007825032230
         H           -4.315600970085     0.173796528330    -0.025511543386     1.007825032230

  Basis Set: AUG-CC-PVTZ
    Blend: AUG-CC-PVTZ
  Basis Set: (AUG-CC-PVTZ AUX)
    Blend: AUG-CC-PVTZ-JKFIT
	 Reference Energy          =    -525.5398513305671031 [Eh]
	 Singles Energy            =      -0.0000000000000000 [Eh]
	 Same-Spin Energy          =      -0.5776911037718973 [Eh]
	 Opposite-Spin Energy      =      -1.7389768965765702 [Eh]
	 Correlation Energy        =      -2.3166680003484674 [Eh]
	 Total Energy              =    -527.8565193309156029 [Eh]

	 ================> DF-SCS-MP2 Energies <==================
	-----------------------------------------------------------
	 SCS Same-Spin Scale       =       0.3333333333333333 [-]
	 SCS Opposite-Spin Scale   =       1.2000000000000000 [-]
	 SCS Same-Spin Energy      =      -0.1925637012572991 [Eh]
	 SCS Opposite-Spin Energy  =      -2.0867722758918843 [Eh]
	 SCS Correlation Energy    =      -2.2793359771491835 [Eh]
	 SCS Total Energy          =    -527.8191873077163336 [Eh]
	-----------------------------------------------------------

  Dipole Moment: [D]
     X:    -2.6219      Y:     2.4972      Z:     0.6232     Total:     3.6741

*** Psi4 exiting successfully. Buy a developer a beer!
