                               Psi4 1.4a2.dev612

  ==> Input File <==

--------------------------------------------------------------------------
#psi4
#
memory 32 gb

molecule  {
0 1
  N        0.8160970    -0.2990240    -0.0443680
  N        1.3585440    -1.5263750    -0.2734470
  N       -1.0817850     0.9875590    -0.4601130
  N       -1.2686320    -1.2431920     0.4227390
  C        1.7597130     0.6951090     0.1272320
  C        2.9786120     0.0532150     0.0016160
  C       -0.5903530    -0.1795160    -0.0248380
  C        1.4561372     2.0856054     0.6277995
  C        2.6793880    -1.2992810    -0.2463060
  C       -2.4210880     1.0928180    -0.4382200
  C       -2.6039190    -1.1175230     0.3972460
  C       -3.2414650     0.0469210    -0.0276130
  H        3.9528590     0.5149220     0.0929350
  H        1.0131890     2.6387050    -0.4244530
  H        0.7544440     2.2203260     1.2670250
  H        2.3864280     2.6245280     0.7070350
  H        3.3561510    -2.1272050    -0.4162310
  H       -2.8304840     2.0415190    -0.7796900
  H       -3.1684390    -1.9801170     0.7461500
  H       -4.3226790     0.1358530    -0.0311710
units angstrom
no_reorient  #important for SAPT in psi4, default
symmetry c1  #important for SAPT in psi4, default
}

set PROPERTIES_ORIGIN ["COM"]
properties('MP2/aug-cc-pvtz', properties = ['dipole'])
--------------------------------------------------------------------------

    Molecular point group: c1
  Charge       = 0
  Multiplicity = 1
  Basis Set: AUG-CC-PVTZ
    Blend: AUG-CC-PVTZ
  Basis Set: (AUG-CC-PVTZ AUX)
    Blend: AUG-CC-PVTZ-JKFIT

    Orbital Energies [Eh]
    ---------------------

    Doubly Occupied:

       1A    -15.642016     2A    -15.582113     3A    -15.581531
       4A    -15.578685     5A    -11.367421     6A    -11.311419
       7A    -11.309516     8A    -11.289963     9A    -11.255004
      10A    -11.252675    11A    -11.239902    12A    -11.217688
      13A     -1.386468    14A     -1.312573    15A     -1.205933
      16A     -1.129453    17A     -1.084089    18A     -1.045103
      19A     -0.962738    20A     -0.909011    21A     -0.896907
      22A     -0.800729    23A     -0.795578    24A     -0.716876
      25A     -0.709635    26A     -0.686753    27A     -0.640331
      28A     -0.633638    29A     -0.614737    30A     -0.598703
      31A     -0.588177    32A     -0.576126    33A     -0.564133
      34A     -0.556325    35A     -0.511787    36A     -0.482076
      37A     -0.455426    38A     -0.430600    39A     -0.419673
      40A     -0.407732    41A     -0.338198    42A     -0.328294

  @DF-RHF Final Energy:  -525.50544098534726

   => Energetics <=

    Nuclear Repulsion Energy =            657.9592463466539130
    One-Electron Energy =               -2018.0979112495003847
    Two-Electron Energy =                 834.6332239174990946
    Total Energy =                       -525.5054409853472634
  Basis Set: (AUG-CC-PVTZ AUX)
    Blend: AUG-CC-PVTZ-RI
    Molecular point group: c1

    Geometry (in Angstrom), charge = 0, multiplicity = 1:

       Center              X                  Y                   Z               Mass
    ------------   -----------------  -----------------  -----------------  -----------------
         N            0.823010644364    -0.258438955111    -0.051864176682    14.003074004430
         N            1.365457644364    -1.485789955111    -0.280943176682    14.003074004430
         N           -1.074871355636     1.028144044889    -0.467609176682    14.003074004430
         N           -1.261718355636    -1.202606955111     0.415242823318    14.003074004430
         C            1.766626644364     0.735694044889     0.119735823318    12.000000000000
         C            2.985525644364     0.093800044889    -0.005880176682    12.000000000000
         C           -0.583439355636    -0.138930955111    -0.032334176682    12.000000000000
         C            1.463050844364     2.126190444889     0.620303323318    12.000000000000
         C            2.686301644364    -1.258695955111    -0.253802176682    12.000000000000
         C           -2.414174355636     1.133403044889    -0.445716176682    12.000000000000
         C           -2.597005355636    -1.076937955111     0.389749823318    12.000000000000
         C           -3.234551355636     0.087506044889    -0.035109176682    12.000000000000
         H            3.959772644364     0.555507044889     0.085438823318     1.007825032230
         H            1.020102644364     2.679290044889    -0.431949176682     1.007825032230
         H            0.761357644364     2.260911044889     1.259528823318     1.007825032230
         H            2.393341644364     2.665113044889     0.699538823318     1.007825032230
         H            3.363064644364    -2.086619955111    -0.423727176682     1.007825032230
         H           -2.823570355636     2.082104044889    -0.787186176682     1.007825032230
         H           -3.161525355636    -1.939531955111     0.738653823318     1.007825032230
         H           -4.315765355636     0.176438044889    -0.038667176682     1.007825032230

  Basis Set: AUG-CC-PVTZ
    Blend: AUG-CC-PVTZ
  Basis Set: (AUG-CC-PVTZ AUX)
    Blend: AUG-CC-PVTZ-JKFIT
	 Reference Energy          =    -525.5054409853472634 [Eh]
	 Singles Energy            =      -0.0000000000000000 [Eh]
	 Same-Spin Energy          =      -0.5781394066062093 [Eh]
	 Opposite-Spin Energy      =      -1.7402974198436860 [Eh]
	 Correlation Energy        =      -2.3184368264498953 [Eh]
	 Total Energy              =    -527.8238778117971606 [Eh]

	 ================> DF-SCS-MP2 Energies <==================
	-----------------------------------------------------------
	 SCS Same-Spin Scale       =       0.3333333333333333 [-]
	 SCS Opposite-Spin Scale   =       1.2000000000000000 [-]
	 SCS Same-Spin Energy      =      -0.1927131355354031 [Eh]
	 SCS Opposite-Spin Energy  =      -2.0883569038124232 [Eh]
	 SCS Correlation Energy    =      -2.2810700393478265 [Eh]
	 SCS Total Energy          =    -527.7865110246950735 [Eh]
	-----------------------------------------------------------

  Dipole Moment: [D]
     X:    -2.5582      Y:     2.5078      Z:     0.5337     Total:     3.6219

*** Psi4 exiting successfully. Buy a developer a beer!
