                               Psi4 1.4a2.dev612

  ==> Input File <==

--------------------------------------------------------------------------
#psi4
#
memory 32 gb

molecule  {
0 1
  N        0.8160970    -0.2990240    -0.0443680
  N        1.3585440    -1.5263750    -0.2734470
  N       -1.0817850     0.9875590    -0.4601130
  N       -1.2686320    -1.2431920     0.4227390
  C        1.7597130     0.6951090     0.1272320
  C        2.9786120     0.0532150     0.0016160
  C       -0.5903530    -0.1795160    -0.0248380
  C        1.4539390     2.1247050     0.4316710
  C        2.6793880    -1.2992810    -0.2463060
  C       -2.4210880     1.0928180    -0.4382200
  C       -2.6039190    -1.1175230     0.3972460
  C       -3.2414650     0.0469210    -0.0276130
  H        3.9528718     0.5057230     0.1420815
  H        1.0131890     2.6387050    -0.4244530
  H        0.7544440     2.2203260     1.2670250
  H        2.3864280     2.6245280     0.7070350
  H        3.3561510    -2.1272050    -0.4162310
  H       -2.8304840     2.0415190    -0.7796900
  H       -3.1684390    -1.9801170     0.7461500
  H       -4.3226790     0.1358530    -0.0311710
units angstrom
no_reorient  #important for SAPT in psi4, default
symmetry c1  #important for SAPT in psi4, default
}

set PROPERTIES_ORIGIN ["COM"]
properties('MP2/aug-cc-pvtz', properties = ['dipole'])
--------------------------------------------------------------------------

    Molecular point group: c1
  Charge       = 0
  Multiplicity = 1
  Basis Set: AUG-CC-PVTZ
    Blend: AUG-CC-PVTZ
  Basis Set: (AUG-CC-PVTZ AUX)
    Blend: AUG-CC-PVTZ-JKFIT

    Orbital Energies [Eh]
    ---------------------

    Doubly Occupied:

       1A    -15.642182     2A    -15.582395     3A    -15.581521
       4A    -15.578654     5A    -11.367412     6A    -11.311522
       7A    -11.309494     8A    -11.286805     9A    -11.254582
      10A    -11.252666    11A    -11.234732    12A    -11.217454
      13A     -1.386369    14A     -1.312556    15A     -1.206028
      16A     -1.129427    17A     -1.084237    18A     -1.045011
      19A     -0.958809    20A     -0.909063    21A     -0.896547
      22A     -0.800146    23A     -0.795139    24A     -0.713119
      25A     -0.707373    26A     -0.682494    27A     -0.638465
      28A     -0.633454    29A     -0.606987    30A     -0.589514
      31A     -0.586246    32A     -0.575302    33A     -0.563792
      34A     -0.552828    35A     -0.535926    36A     -0.491653
      37A     -0.455125    38A     -0.430517    39A     -0.420191
      40A     -0.407844    41A     -0.337986    42A     -0.332430

  @DF-RHF Final Energy:  -525.54348989827213

   => Energetics <=

    Nuclear Repulsion Energy =            658.2702172640936169
    One-Electron Energy =               -2018.8194228529621341
    Two-Electron Energy =                 835.0057156905963893
    Total Energy =                       -525.5434898982721279
  Basis Set: (AUG-CC-PVTZ AUX)
    Blend: AUG-CC-PVTZ-RI
    Molecular point group: c1

    Geometry (in Angstrom), charge = 0, multiplicity = 1:

       Center              X                  Y                   Z               Mass
    ------------   -----------------  -----------------  -----------------  -----------------
         N            0.823175351638    -0.261312136530    -0.037470845931    14.003074004430
         N            1.365622351638    -1.488663136530    -0.266549845931    14.003074004430
         N           -1.074706648362     1.025270863470    -0.453215845931    14.003074004430
         N           -1.261553648362    -1.205480136530     0.429636154069    14.003074004430
         C            1.766791351638     0.732820863470     0.134129154069    12.000000000000
         C            2.985690351638     0.090926863470     0.008513154069    12.000000000000
         C           -0.583274648362    -0.141804136530    -0.017940845931    12.000000000000
         C            1.461017351638     2.162416863470     0.438568154069    12.000000000000
         C            2.686466351638    -1.261569136530    -0.239408845931    12.000000000000
         C           -2.414009648362     1.130529863470    -0.431322845931    12.000000000000
         C           -2.596840648362    -1.079811136530     0.404143154069    12.000000000000
         C           -3.234386648362     0.084632863470    -0.020715845931    12.000000000000
         H            3.959950151638     0.543434863470     0.148978654069     1.007825032230
         H            1.020267351638     2.676416863470    -0.417555845931     1.007825032230
         H            0.761522351638     2.258037863470     1.273922154069     1.007825032230
         H            2.393506351638     2.662239863470     0.713932154069     1.007825032230
         H            3.363229351638    -2.089493136530    -0.409333845931     1.007825032230
         H           -2.823405648362     2.079230863470    -0.772792845931     1.007825032230
         H           -3.161360648362    -1.942405136530     0.753047154069     1.007825032230
         H           -4.315600648362     0.173564863470    -0.024273845931     1.007825032230

  Basis Set: AUG-CC-PVTZ
    Blend: AUG-CC-PVTZ
  Basis Set: (AUG-CC-PVTZ AUX)
    Blend: AUG-CC-PVTZ-JKFIT
	 Reference Energy          =    -525.5434898982721279 [Eh]
	 Singles Energy            =      -0.0000000000000000 [Eh]
	 Same-Spin Energy          =      -0.5775639852356662 [Eh]
	 Opposite-Spin Energy      =      -1.7386415737355903 [Eh]
	 Correlation Energy        =      -2.3162055589712565 [Eh]
	 Total Energy              =    -527.8596954572433333 [Eh]

	 ================> DF-SCS-MP2 Energies <==================
	-----------------------------------------------------------
	 SCS Same-Spin Scale       =       0.3333333333333333 [-]
	 SCS Opposite-Spin Scale   =       1.2000000000000000 [-]
	 SCS Same-Spin Energy      =      -0.1925213284118887 [Eh]
	 SCS Opposite-Spin Energy  =      -2.0863698884827082 [Eh]
	 SCS Correlation Energy    =      -2.2788912168945972 [Eh]
	 SCS Total Energy          =    -527.8223811151667633 [Eh]
	-----------------------------------------------------------

  Dipole Moment: [D]
     X:    -2.5786      Y:     2.5465      Z:     0.4778     Total:     3.6554

*** Psi4 exiting successfully. Buy a developer a beer!
