                               Psi4 1.4a2.dev612

  ==> Input File <==

--------------------------------------------------------------------------
#psi4
#
memory 32 gb

molecule  {
0 1
  N        0.8160970    -0.2990240    -0.0443680
  N        1.3585440    -1.5263750    -0.2734470
  N       -1.0817850     0.9875590    -0.4601130
  N       -1.2686320    -1.2431920     0.4227390
  C        1.7597130     0.6951090     0.1272320
  C        2.9786120     0.0532150     0.0016160
  C       -0.5903530    -0.1795160    -0.0248380
  C        1.4539390     2.1247050     0.4316710
  C        2.6793880    -1.2992810    -0.2463060
  C       -2.4210880     1.0928180    -0.4382200
  C       -2.6039190    -1.1175230     0.3972460
  C       -3.2414650     0.0469210    -0.0276130
  H        3.9528590     0.5149220     0.0929350
  H        1.0131890     2.6387050    -0.4244530
  H        0.7544440     2.2203260     1.2670250
  H        2.3864280     2.6245280     0.7070350
  H        3.3561510    -2.1272050    -0.4162310
  H       -2.8304840     2.0415190    -0.7796900
  H       -3.1643563    -1.9086790     0.9329117
  H       -4.3226790     0.1358530    -0.0311710
units angstrom
no_reorient  #important for SAPT in psi4, default
symmetry c1  #important for SAPT in psi4, default
}

set PROPERTIES_ORIGIN ["COM"]
properties('MP2/aug-cc-pvtz', properties = ['dipole'])
--------------------------------------------------------------------------

    Molecular point group: c1
  Charge       = 0
  Multiplicity = 1
  Basis Set: AUG-CC-PVTZ
    Blend: AUG-CC-PVTZ
  Basis Set: (AUG-CC-PVTZ AUX)
    Blend: AUG-CC-PVTZ-JKFIT

    Orbital Energies [Eh]
    ---------------------

    Doubly Occupied:

       1A    -15.642245     2A    -15.582535     3A    -15.581586
       4A    -15.579125     5A    -11.367594     6A    -11.311589
       7A    -11.311378     8A    -11.286826     9A    -11.254653
      10A    -11.252949    11A    -11.234763    12A    -11.217408
      13A     -1.386461    14A     -1.312720    15A     -1.206132
      16A     -1.129469    17A     -1.084255    18A     -1.045050
      19A     -0.958870    20A     -0.907961    21A     -0.896494
      22A     -0.800033    23A     -0.794180    24A     -0.713138
      25A     -0.706806    26A     -0.682486    27A     -0.639318
      28A     -0.632594    29A     -0.604672    30A     -0.588773
      31A     -0.587797    32A     -0.573432    33A     -0.564046
      34A     -0.552604    35A     -0.535996    36A     -0.491796
      37A     -0.455443    38A     -0.430181    39A     -0.420874
      40A     -0.407269    41A     -0.337847    42A     -0.332488

  @DF-RHF Final Energy:  -525.54069747733809

   => Energetics <=

    Nuclear Repulsion Energy =            658.2003780916717233
    One-Electron Energy =               -2018.6784782419131261
    Two-Electron Energy =                 834.9374026729034313
    Total Energy =                       -525.5406974773380853
  Basis Set: (AUG-CC-PVTZ AUX)
    Blend: AUG-CC-PVTZ-RI
    Molecular point group: c1

    Geometry (in Angstrom), charge = 0, multiplicity = 1:

       Center              X                  Y                   Z               Mass
    ------------   -----------------  -----------------  -----------------  -----------------
         N            0.823149727714    -0.261819823800    -0.038337265630    14.003074004430
         N            1.365596727714    -1.489170823800    -0.267416265630    14.003074004430
         N           -1.074732272286     1.024763176200    -0.454082265630    14.003074004430
         N           -1.261579272286    -1.205987823800     0.428769734370    14.003074004430
         C            1.766765727714     0.732313176200     0.133262734370    12.000000000000
         C            2.985664727714     0.090419176200     0.007646734370    12.000000000000
         C           -0.583300272286    -0.142311823800    -0.018807265630    12.000000000000
         C            1.460991727714     2.161909176200     0.437701734370    12.000000000000
         C            2.686440727714    -1.262076823800    -0.240275265630    12.000000000000
         C           -2.414035272286     1.130022176200    -0.432189265630    12.000000000000
         C           -2.596866272286    -1.080318823800     0.403276734370    12.000000000000
         C           -3.234412272286     0.084125176200    -0.021582265630    12.000000000000
         H            3.959911727714     0.552126176200     0.098965734370     1.007825032230
         H            1.020241727714     2.675909176200    -0.418422265630     1.007825032230
         H            0.761496727714     2.257530176200     1.273055734370     1.007825032230
         H            2.393480727714     2.661732176200     0.713065734370     1.007825032230
         H            3.363203727714    -2.090000823800    -0.410200265630     1.007825032230
         H           -2.823431272286     2.078723176200    -0.773659265630     1.007825032230
         H           -3.157303572286    -1.871474823800     0.938942434370     1.007825032230
         H           -4.315626272286     0.173057176200    -0.025140265630     1.007825032230

  Basis Set: AUG-CC-PVTZ
    Blend: AUG-CC-PVTZ
  Basis Set: (AUG-CC-PVTZ AUX)
    Blend: AUG-CC-PVTZ-JKFIT
	 Reference Energy          =    -525.5406974773380853 [Eh]
	 Singles Energy            =      -0.0000000000000000 [Eh]
	 Same-Spin Energy          =      -0.5777465452584136 [Eh]
	 Opposite-Spin Energy      =      -1.7390259518090680 [Eh]
	 Correlation Energy        =      -2.3167724970674817 [Eh]
	 Total Energy              =    -527.8574699744056034 [Eh]

	 ================> DF-SCS-MP2 Energies <==================
	-----------------------------------------------------------
	 SCS Same-Spin Scale       =       0.3333333333333333 [-]
	 SCS Opposite-Spin Scale   =       1.2000000000000000 [-]
	 SCS Same-Spin Energy      =      -0.1925821817528045 [Eh]
	 SCS Opposite-Spin Energy  =      -2.0868311421708814 [Eh]
	 SCS Correlation Energy    =      -2.2794133239236860 [Eh]
	 SCS Total Energy          =    -527.8201108012617624 [Eh]
	-----------------------------------------------------------

  Dipole Moment: [D]
     X:    -2.5524      Y:     2.6087      Z:     0.5198     Total:     3.6865

*** Psi4 exiting successfully. Buy a developer a beer!
