                               Psi4 1.4a2.dev612

  ==> Input File <==

--------------------------------------------------------------------------
#psi4
#
memory 32 gb

molecule  {
0 1
  N        0.8160970    -0.2990240    -0.0443680
  N        1.3585440    -1.5263750    -0.2734470
  N       -1.0817850     0.9875590    -0.4601130
  N       -1.2686320    -1.2431920     0.4227390
  C        1.7597130     0.6951090     0.1272320
  C        2.9786120     0.0532150     0.0016160
  C       -0.5903530    -0.1795160    -0.0248380
  C        1.4539390     2.1247050     0.4316710
  C        2.6793880    -1.2992810    -0.2463060
  C       -2.4210880     1.0928180    -0.4382200
  C       -2.6039190    -1.1175230     0.3972460
  C       -3.2414650     0.0469210    -0.0276130
  H        3.9528590     0.5149220     0.0929350
  H        1.0131890     2.6387050    -0.4244530
  H        0.7544440     2.2203260     1.2670250
  H        2.3864280     2.6245280     0.7070350
  H        3.3525653    -2.0807560    -0.6618519
  H       -2.8304840     2.0415190    -0.7796900
  H       -3.1684390    -1.9801170     0.7461500
  H       -4.3226790     0.1358530    -0.0311710
units angstrom
no_reorient  #important for SAPT in psi4, default
symmetry c1  #important for SAPT in psi4, default
}

set PROPERTIES_ORIGIN ["COM"]
properties('MP2/aug-cc-pvtz', properties = ['dipole'])
--------------------------------------------------------------------------

    Molecular point group: c1
  Charge       = 0
  Multiplicity = 1
  Basis Set: AUG-CC-PVTZ
    Blend: AUG-CC-PVTZ
  Basis Set: (AUG-CC-PVTZ AUX)
    Blend: AUG-CC-PVTZ-JKFIT

    Orbital Energies [Eh]
    ---------------------

    Doubly Occupied:

       1A    -15.643019     2A    -15.582586     3A    -15.582565
       4A    -15.578746     5A    -11.367687     6A    -11.311734
       7A    -11.309628     8A    -11.287048     9A    -11.257143
      10A    -11.252722    11A    -11.234875    12A    -11.217690
      13A     -1.386959    14A     -1.312830    15A     -1.206193
      16A     -1.129608    17A     -1.084582    18A     -1.045023
      19A     -0.959094    20A     -0.909202    21A     -0.896038
      22A     -0.797411    23A     -0.795409    24A     -0.712894
      25A     -0.707554    26A     -0.681955    27A     -0.640308
      28A     -0.632150    29A     -0.606422    30A     -0.589609
      31A     -0.583898    32A     -0.574811    33A     -0.564358
      34A     -0.552906    35A     -0.533137    36A     -0.491847
      37A     -0.455581    38A     -0.430724    39A     -0.420515
      40A     -0.407915    41A     -0.337551    42A     -0.332781

  @DF-RHF Final Energy:  -525.53927716634723

   => Energetics <=

    Nuclear Repulsion Energy =            658.1641153874953716
    One-Electron Energy =               -2018.5973668489721149
    Two-Electron Energy =                 834.8939742951293965
    Total Energy =                       -525.5392771663472331
  Basis Set: (AUG-CC-PVTZ AUX)
    Blend: AUG-CC-PVTZ-RI
    Molecular point group: c1

    Geometry (in Angstrom), charge = 0, multiplicity = 1:

       Center              X                  Y                   Z               Mass
    ------------   -----------------  -----------------  -----------------  -----------------
         N            0.823198007648    -0.261662494073    -0.035615002377    14.003074004430
         N            1.365645007648    -1.489013494073    -0.264694002377    14.003074004430
         N           -1.074683992352     1.024920505927    -0.451360002377    14.003074004430
         N           -1.261530992352    -1.205830494073     0.431491997623    14.003074004430
         C            1.766814007648     0.732470505927     0.135984997623    12.000000000000
         C            2.985713007648     0.090576505927     0.010368997623    12.000000000000
         C           -0.583251992352    -0.142154494073    -0.016085002377    12.000000000000
         C            1.461040007648     2.162066505927     0.440423997623    12.000000000000
         C            2.686489007648    -1.261919494073    -0.237553002377    12.000000000000
         C           -2.413986992352     1.130179505927    -0.429467002377    12.000000000000
         C           -2.596817992352    -1.080161494073     0.405998997623    12.000000000000
         C           -3.234363992352     0.084282505927    -0.018860002377    12.000000000000
         H            3.959960007648     0.552283505927     0.101687997623     1.007825032230
         H            1.020290007648     2.676066505927    -0.415700002377     1.007825032230
         H            0.761545007648     2.257687505927     1.275777997623     1.007825032230
         H            2.393529007648     2.661889505927     0.715787997623     1.007825032230
         H            3.359666307648    -2.043394494073    -0.653098902377     1.007825032230
         H           -2.823382992352     2.078880505927    -0.770937002377     1.007825032230
         H           -3.161337992352    -1.942755494073     0.754902997623     1.007825032230
         H           -4.315577992352     0.173214505927    -0.022418002377     1.007825032230

  Basis Set: AUG-CC-PVTZ
    Blend: AUG-CC-PVTZ
  Basis Set: (AUG-CC-PVTZ AUX)
    Blend: AUG-CC-PVTZ-JKFIT
	 Reference Energy          =    -525.5392771663472331 [Eh]
	 Singles Energy            =      -0.0000000000000000 [Eh]
	 Same-Spin Energy          =      -0.5778562980645031 [Eh]
	 Opposite-Spin Energy      =      -1.7392845954492260 [Eh]
	 Correlation Energy        =      -2.3171408935137290 [Eh]
	 Total Energy              =    -527.8564180598609710 [Eh]

	 ================> DF-SCS-MP2 Energies <==================
	-----------------------------------------------------------
	 SCS Same-Spin Scale       =       0.3333333333333333 [-]
	 SCS Opposite-Spin Scale   =       1.2000000000000000 [-]
	 SCS Same-Spin Energy      =      -0.1926187660215010 [Eh]
	 SCS Opposite-Spin Energy  =      -2.0871415145390713 [Eh]
	 SCS Correlation Energy    =      -2.2797602805605721 [Eh]
	 SCS Total Energy          =    -527.8190374469078279 [Eh]
	-----------------------------------------------------------

  Dipole Moment: [D]
     X:    -2.6052      Y:     2.6273      Z:     0.2760     Total:     3.7103

*** Psi4 exiting successfully. Buy a developer a beer!
