                               Psi4 1.4a2.dev612

  ==> Input File <==

--------------------------------------------------------------------------
#psi4
#
memory 32 gb

molecule  {
0 1
  N        0.8160970    -0.2990240    -0.0443680
  N        1.3585440    -1.5263750    -0.2734470
  N       -1.0817850     0.9875590    -0.4601130
  N       -1.2686320    -1.2431920     0.4227390
  C        1.7597130     0.6951090     0.1272320
  C        2.9786120     0.0532150     0.0016160
  C       -0.5903530    -0.1795160    -0.0248380
  C        1.4539390     2.1247050     0.4316710
  C        2.6793880    -1.2992810    -0.2463060
  C       -2.4210880     1.0928180    -0.4382200
  C       -2.6039190    -1.1175230     0.3972460
  C       -3.2414650     0.0469210    -0.0276130
  H        3.9528590     0.5149220     0.0929350
  H        1.0131890     2.6387050    -0.4244530
  H        0.7544440     2.2203260     1.2670250
  H        2.3864280     2.6245280     0.7070350
  H        3.3561510    -2.1272050    -0.4162310
  H       -2.8323398     2.0242259    -0.8265675
  H       -3.1684390    -1.9801170     0.7461500
  H       -4.3226790     0.1358530    -0.0311710
units angstrom
no_reorient  #important for SAPT in psi4, default
symmetry c1  #important for SAPT in psi4, default
}

set PROPERTIES_ORIGIN ["COM"]
properties('MP2/aug-cc-pvtz', properties = ['dipole'])
--------------------------------------------------------------------------

    Molecular point group: c1
  Charge       = 0
  Multiplicity = 1
  Basis Set: AUG-CC-PVTZ
    Blend: AUG-CC-PVTZ
  Basis Set: (AUG-CC-PVTZ AUX)
    Blend: AUG-CC-PVTZ-JKFIT

    Orbital Energies [Eh]
    ---------------------

    Doubly Occupied:

       1A    -15.642128     2A    -15.582479     3A    -15.581459
       4A    -15.578664     5A    -11.367401     6A    -11.311636
       7A    -11.309477     8A    -11.286747     9A    -11.254542
      10A    -11.252694    11A    -11.234703    12A    -11.217315
      13A     -1.386334    14A     -1.312562    15A     -1.206041
      16A     -1.129398    17A     -1.084212    18A     -1.045006
      19A     -0.958796    20A     -0.908967    21A     -0.896547
      22A     -0.800026    23A     -0.795232    24A     -0.713122
      25A     -0.707348    26A     -0.682493    27A     -0.638291
      28A     -0.633430    29A     -0.606609    30A     -0.589642
      31A     -0.587115    32A     -0.574596    33A     -0.563976
      34A     -0.552791    35A     -0.535913    36A     -0.491679
      37A     -0.455003    38A     -0.430876    39A     -0.420039
      40A     -0.407700    41A     -0.337994    42A     -0.332378

  @DF-RHF Final Energy:  -525.54344572689251

   => Energetics <=

    Nuclear Repulsion Energy =            658.2655053440666961
    One-Electron Energy =               -2018.8111825710036555
    Two-Electron Energy =                 835.0022315000444451
    Total Energy =                       -525.5434457268925144
  Basis Set: (AUG-CC-PVTZ AUX)
    Blend: AUG-CC-PVTZ-RI
    Molecular point group: c1

    Geometry (in Angstrom), charge = 0, multiplicity = 1:

       Center              X                  Y                   Z               Mass
    ------------   -----------------  -----------------  -----------------  -----------------
         N            0.823187116268    -0.261261176405    -0.036866282735    14.003074004430
         N            1.365634116268    -1.488612176405    -0.265945282735    14.003074004430
         N           -1.074694883732     1.025321823595    -0.452611282735    14.003074004430
         N           -1.261541883732    -1.205429176405     0.430240717265    14.003074004430
         C            1.766803116268     0.732871823595     0.134733717265    12.000000000000
         C            2.985702116268     0.090977823595     0.009117717265    12.000000000000
         C           -0.583262883732    -0.141753176405    -0.017336282735    12.000000000000
         C            1.461029116268     2.162467823595     0.439172717265    12.000000000000
         C            2.686478116268    -1.261518176405    -0.238804282735    12.000000000000
         C           -2.413997883732     1.130580823595    -0.430718282735    12.000000000000
         C           -2.596828883732    -1.079760176405     0.404747717265    12.000000000000
         C           -3.234374883732     0.084683823595    -0.020111282735    12.000000000000
         H            3.959949116268     0.552684823595     0.100436717265     1.007825032230
         H            1.020279116268     2.676467823595    -0.416951282735     1.007825032230
         H            0.761534116268     2.258088823595     1.274526717265     1.007825032230
         H            2.393518116268     2.662290823595     0.714536717265     1.007825032230
         H            3.363241116268    -2.089442176405    -0.408729282735     1.007825032230
         H           -2.825249683732     2.061988723595    -0.819065782735     1.007825032230
         H           -3.161348883732    -1.942354176405     0.753651717265     1.007825032230
         H           -4.315588883732     0.173615823595    -0.023669282735     1.007825032230

  Basis Set: AUG-CC-PVTZ
    Blend: AUG-CC-PVTZ
  Basis Set: (AUG-CC-PVTZ AUX)
    Blend: AUG-CC-PVTZ-JKFIT
	 Reference Energy          =    -525.5434457268925144 [Eh]
	 Singles Energy            =      -0.0000000000000000 [Eh]
	 Same-Spin Energy          =      -0.5775709451299167 [Eh]
	 Opposite-Spin Energy      =      -1.7386489013763597 [Eh]
	 Correlation Energy        =      -2.3162198465062764 [Eh]
	 Total Energy              =    -527.8596655733988428 [Eh]

	 ================> DF-SCS-MP2 Energies <==================
	-----------------------------------------------------------
	 SCS Same-Spin Scale       =       0.3333333333333333 [-]
	 SCS Opposite-Spin Scale   =       1.2000000000000000 [-]
	 SCS Same-Spin Energy      =      -0.1925236483766389 [Eh]
	 SCS Opposite-Spin Energy  =      -2.0863786816516314 [Eh]
	 SCS Correlation Energy    =      -2.2789023300282705 [Eh]
	 SCS Total Energy          =    -527.8223480569207595 [Eh]
	-----------------------------------------------------------

  Dipole Moment: [D]
     X:    -2.5780      Y:     2.5452      Z:     0.4179     Total:     3.6467

*** Psi4 exiting successfully. Buy a developer a beer!
