                               Psi4 1.4a2.dev612

  ==> Input File <==

--------------------------------------------------------------------------
#psi4
#
memory 32 gb

molecule  {
0 1
  N        0.8160970    -0.2990240    -0.0443680
  N        1.3585440    -1.5263750    -0.2734470
  N       -1.0817850     0.9875590    -0.4601130
  N       -1.2686320    -1.2431920     0.4227390
  C        1.7597130     0.6951090     0.1272320
  C        2.9786120     0.0532150     0.0016160
  C       -0.5903530    -0.1795160    -0.0248380
  C        1.4539390     2.1247050     0.4316710
  C        2.6793880    -1.2992810    -0.2463060
  C       -2.4210880     1.0928180    -0.4382200
  C       -2.6039190    -1.1175230     0.3972460
  C       -3.2414650     0.0469210    -0.0276130
  H        3.9528590     0.5149220     0.0929350
  H        1.0131890     2.6387050    -0.4244530
  H        0.7544440     2.2203260     1.2670250
  H        2.3864280     2.6245280     0.7070350
  H        3.3561510    -2.1272050    -0.4162310
  H       -2.8304840     2.0415190    -0.7796900
  H       -3.1674183    -1.9622575     0.7928404
  H       -4.3226790     0.1358530    -0.0311710
units angstrom
no_reorient  #important for SAPT in psi4, default
symmetry c1  #important for SAPT in psi4, default
}

set PROPERTIES_ORIGIN ["COM"]
properties('MP2/aug-cc-pvtz', properties = ['dipole'])
--------------------------------------------------------------------------

    Molecular point group: c1
  Charge       = 0
  Multiplicity = 1
  Basis Set: AUG-CC-PVTZ
    Blend: AUG-CC-PVTZ
  Basis Set: (AUG-CC-PVTZ AUX)
    Blend: AUG-CC-PVTZ-JKFIT

    Orbital Energies [Eh]
    ---------------------

    Doubly Occupied:

       1A    -15.642132     2A    -15.582414     3A    -15.581477
       4A    -15.578722     5A    -11.367405     6A    -11.311516
       7A    -11.309623     8A    -11.286746     9A    -11.254549
      10A    -11.252704    11A    -11.234703    12A    -11.217321
      13A     -1.386339    14A     -1.312562    15A     -1.206041
      16A     -1.129405    17A     -1.084214    18A     -1.045012
      19A     -0.958797    20A     -0.908981    21A     -0.896548
      22A     -0.800126    23A     -0.795134    24A     -0.713131
      25A     -0.707360    26A     -0.682519    27A     -0.638507
      28A     -0.633264    29A     -0.606669    30A     -0.589398
      31A     -0.587030    32A     -0.574937    33A     -0.563983
      34A     -0.552710    35A     -0.535914    36A     -0.491663
      37A     -0.455157    38A     -0.430266    39A     -0.420524
      40A     -0.407702    41A     -0.337984    42A     -0.332387

  @DF-RHF Final Energy:  -525.54344194062958

   => Energetics <=

    Nuclear Repulsion Energy =            658.2695849627558573
    One-Electron Energy =               -2018.8188996335486536
    Two-Electron Energy =                 835.0058727301631052
    Total Energy =                       -525.5434419406295774
  Basis Set: (AUG-CC-PVTZ AUX)
    Blend: AUG-CC-PVTZ-RI
    Molecular point group: c1

    Geometry (in Angstrom), charge = 0, multiplicity = 1:

       Center              X                  Y                   Z               Mass
    ------------   -----------------  -----------------  -----------------  -----------------
         N            0.823169005941    -0.261482495744    -0.037455382425    14.003074004430
         N            1.365616005941    -1.488833495744    -0.266534382425    14.003074004430
         N           -1.074712994059     1.025100504256    -0.453200382425    14.003074004430
         N           -1.261559994059    -1.205650495744     0.429651617575    14.003074004430
         C            1.766785005941     0.732650504256     0.134144617575    12.000000000000
         C            2.985684005941     0.090756504256     0.008528617575    12.000000000000
         C           -0.583280994059    -0.141974495744    -0.017925382425    12.000000000000
         C            1.461011005941     2.162246504256     0.438583617575    12.000000000000
         C            2.686460005941    -1.261739495744    -0.239393382425    12.000000000000
         C           -2.414015994059     1.130359504256    -0.431307382425    12.000000000000
         C           -2.596846994059    -1.079981495744     0.404158617575    12.000000000000
         C           -3.234392994059     0.084462504256    -0.020700382425    12.000000000000
         H            3.959931005941     0.552463504256     0.099847617575     1.007825032230
         H            1.020261005941     2.676246504256    -0.417540382425     1.007825032230
         H            0.761516005941     2.257867504256     1.273937617575     1.007825032230
         H            2.393500005941     2.662069504256     0.713947617575     1.007825032230
         H            3.363223005941    -2.089663495744    -0.409318382425     1.007825032230
         H           -2.823411994059     2.079060504256    -0.772777382425     1.007825032230
         H           -3.160346294059    -1.924715995744     0.799753017575     1.007825032230
         H           -4.315606994059     0.173394504256    -0.024258382425     1.007825032230

  Basis Set: AUG-CC-PVTZ
    Blend: AUG-CC-PVTZ
  Basis Set: (AUG-CC-PVTZ AUX)
    Blend: AUG-CC-PVTZ-JKFIT
	 Reference Energy          =    -525.5434419406295774 [Eh]
	 Singles Energy            =      -0.0000000000000000 [Eh]
	 Same-Spin Energy          =      -0.5775719313680652 [Eh]
	 Opposite-Spin Energy      =      -1.7386537885501254 [Eh]
	 Correlation Energy        =      -2.3162257199181906 [Eh]
	 Total Energy              =    -527.8596676605477569 [Eh]

	 ================> DF-SCS-MP2 Energies <==================
	-----------------------------------------------------------
	 SCS Same-Spin Scale       =       0.3333333333333333 [-]
	 SCS Opposite-Spin Scale   =       1.2000000000000000 [-]
	 SCS Same-Spin Energy      =      -0.1925239771226884 [Eh]
	 SCS Opposite-Spin Energy  =      -2.0863845462601502 [Eh]
	 SCS Correlation Energy    =      -2.2789085233828388 [Eh]
	 SCS Total Energy          =    -527.8223504640124020 [Eh]
	-----------------------------------------------------------

  Dipole Moment: [D]
     X:    -2.5765      Y:     2.5648      Z:     0.4615     Total:     3.6647

*** Psi4 exiting successfully. Buy a developer a beer!
