                               Psi4 1.4a2.dev612

  ==> Input File <==

--------------------------------------------------------------------------
#psi4
#
memory 32 gb

molecule  {
0 1
  N        0.8160970    -0.2990240    -0.0443680
  N        1.3585440    -1.5263750    -0.2734470
  N       -1.0817850     0.9875590    -0.4601130
  N       -1.2686320    -1.2431920     0.4227390
  C        1.7597130     0.6951090     0.1272320
  C        2.9786120     0.0532150     0.0016160
  C       -0.5903530    -0.1795160    -0.0248380
  C        1.4539390     2.1247050     0.4316710
  C        2.6793880    -1.2992810    -0.2463060
  C       -2.4210880     1.0928180    -0.4382200
  C       -2.6039190    -1.1175230     0.3972460
  C       -3.2414650     0.0469210    -0.0276130
  H        3.9529101     0.4781261     0.2895210
  H        1.0131890     2.6387050    -0.4244530
  H        0.7544440     2.2203260     1.2670250
  H        2.3864280     2.6245280     0.7070350
  H        3.3561510    -2.1272050    -0.4162310
  H       -2.8304840     2.0415190    -0.7796900
  H       -3.1684390    -1.9801170     0.7461500
  H       -4.3226790     0.1358530    -0.0311710
units angstrom
no_reorient  #important for SAPT in psi4, default
symmetry c1  #important for SAPT in psi4, default
}

set PROPERTIES_ORIGIN ["COM"]
properties('MP2/aug-cc-pvtz', properties = ['dipole'])
--------------------------------------------------------------------------

    Molecular point group: c1
  Charge       = 0
  Multiplicity = 1
  Basis Set: AUG-CC-PVTZ
    Blend: AUG-CC-PVTZ
  Basis Set: (AUG-CC-PVTZ AUX)
    Blend: AUG-CC-PVTZ-JKFIT

    Orbital Energies [Eh]
    ---------------------

    Doubly Occupied:

       1A    -15.642623     2A    -15.582452     3A    -15.581862
       4A    -15.578783     5A    -11.367597     6A    -11.311619
       7A    -11.309634     8A    -11.287416     9A    -11.254888
      10A    -11.252712    11A    -11.234921    12A    -11.218942
      13A     -1.386714    14A     -1.312728    15A     -1.206143
      16A     -1.129670    17A     -1.084406    18A     -1.045016
      19A     -0.958862    20A     -0.909152    21A     -0.896522
      22A     -0.800300    23A     -0.793921    24A     -0.713102
      25A     -0.707429    26A     -0.682197    27A     -0.639447
      28A     -0.632902    29A     -0.606072    30A     -0.589224
      31A     -0.584337    32A     -0.575718    33A     -0.562368
      34A     -0.553184    35A     -0.536035    36A     -0.491742
      37A     -0.455306    38A     -0.430658    39A     -0.420243
      40A     -0.408176    41A     -0.337922    42A     -0.332637

  @DF-RHF Final Energy:  -525.54129440022189

   => Energetics <=

    Nuclear Repulsion Energy =            658.2031734614133711
    One-Electron Energy =               -2018.6777708354825336
    Two-Electron Energy =                 834.9333029738472760
    Total Energy =                       -525.5412944002218865
  Basis Set: (AUG-CC-PVTZ AUX)
    Blend: AUG-CC-PVTZ-RI
    Molecular point group: c1

    Geometry (in Angstrom), charge = 0, multiplicity = 1:

       Center              X                  Y                   Z               Mass
    ------------   -----------------  -----------------  -----------------  -----------------
         N            0.823175110503    -0.261138387570    -0.038399119023    14.003074004430
         N            1.365622110503    -1.488489387570    -0.267478119023    14.003074004430
         N           -1.074706889497     1.025444612430    -0.454144119023    14.003074004430
         N           -1.261553889497    -1.205306387570     0.428707880977    14.003074004430
         C            1.766791110503     0.732994612430     0.133200880977    12.000000000000
         C            2.985690110503     0.091100612430     0.007584880977    12.000000000000
         C           -0.583274889497    -0.141630387570    -0.018869119023    12.000000000000
         C            1.461017110503     2.162590612430     0.437639880977    12.000000000000
         C            2.686466110503    -1.261395387570    -0.240337119023    12.000000000000
         C           -2.414009889497     1.130703612430    -0.432251119023    12.000000000000
         C           -2.596840889497    -1.079637387570     0.403214880977    12.000000000000
         C           -3.234386889497     0.084806612430    -0.021644119023    12.000000000000
         H            3.959988210503     0.516011712430     0.295489880977     1.007825032230
         H            1.020267110503     2.676590612430    -0.418484119023     1.007825032230
         H            0.761522110503     2.258211612430     1.272993880977     1.007825032230
         H            2.393506110503     2.662413612430     0.713003880977     1.007825032230
         H            3.363229110503    -2.089319387570    -0.410262119023     1.007825032230
         H           -2.823405889497     2.079404612430    -0.773721119023     1.007825032230
         H           -3.161360889497    -1.942231387570     0.752118880977     1.007825032230
         H           -4.315600889497     0.173738612430    -0.025202119023     1.007825032230

  Basis Set: AUG-CC-PVTZ
    Blend: AUG-CC-PVTZ
  Basis Set: (AUG-CC-PVTZ AUX)
    Blend: AUG-CC-PVTZ-JKFIT
	 Reference Energy          =    -525.5412944002218865 [Eh]
	 Singles Energy            =      -0.0000000000000000 [Eh]
	 Same-Spin Energy          =      -0.5776434259987302 [Eh]
	 Opposite-Spin Energy      =      -1.7388439668487856 [Eh]
	 Correlation Energy        =      -2.3164873928475158 [Eh]
	 Total Energy              =    -527.8577817930694209 [Eh]

	 ================> DF-SCS-MP2 Energies <==================
	-----------------------------------------------------------
	 SCS Same-Spin Scale       =       0.3333333333333333 [-]
	 SCS Opposite-Spin Scale   =       1.2000000000000000 [-]
	 SCS Same-Spin Energy      =      -0.1925478086662434 [Eh]
	 SCS Opposite-Spin Energy  =      -2.0866127602185425 [Eh]
	 SCS Correlation Energy    =      -2.2791605688847860 [Eh]
	 SCS Total Energy          =    -527.8204549691066632 [Eh]
	-----------------------------------------------------------

  Dipole Moment: [D]
     X:    -2.6043      Y:     2.5117      Z:     0.5881     Total:     3.6656

*** Psi4 exiting successfully. Buy a developer a beer!
