                               Psi4 1.4a2.dev612

  ==> Input File <==

--------------------------------------------------------------------------
#psi4
#
memory 32 gb

molecule  {
0 1
  N        0.8160970    -0.2990240    -0.0443680
  N        1.3585440    -1.5263750    -0.2734470
  N       -1.0817850     0.9875590    -0.4601130
  N       -1.2686320    -1.2431920     0.4227390
  C        1.7597130     0.6951090     0.1272320
  C        2.9786120     0.0532150     0.0016160
  C       -0.5903530    -0.1795160    -0.0248380
  C        1.4539390     2.1247050     0.4316710
  C        2.6793880    -1.2992810    -0.2463060
  C       -2.4210880     1.0928180    -0.4382200
  C       -2.6039190    -1.1175230     0.3972460
  C       -3.2414650     0.0469210    -0.0276130
  H        3.9528590     0.5149220     0.0929350
  H        1.0131890     2.6387050    -0.4244530
  H        0.7544440     2.2203260     1.2670250
  H        2.3864280     2.6245280     0.7070350
  H        3.3561510    -2.1272050    -0.4162310
  H       -2.8360515     1.9896397    -0.9203226
  H       -3.1684390    -1.9801170     0.7461500
  H       -4.3226790     0.1358530    -0.0311710
units angstrom
no_reorient  #important for SAPT in psi4, default
symmetry c1  #important for SAPT in psi4, default
}

set PROPERTIES_ORIGIN ["COM"]
properties('MP2/aug-cc-pvtz', properties = ['dipole'])
--------------------------------------------------------------------------

    Molecular point group: c1
  Charge       = 0
  Multiplicity = 1
  Basis Set: AUG-CC-PVTZ
    Blend: AUG-CC-PVTZ
  Basis Set: (AUG-CC-PVTZ AUX)
    Blend: AUG-CC-PVTZ-JKFIT

    Orbital Energies [Eh]
    ---------------------

    Doubly Occupied:

       1A    -15.642185     2A    -15.582687     3A    -15.581489
       4A    -15.578764     5A    -11.367493     6A    -11.312522
       7A    -11.309523     8A    -11.286789     9A    -11.254590
      10A    -11.252813    11A    -11.234727    12A    -11.217353
      13A     -1.386393    14A     -1.312649    15A     -1.206094
      16A     -1.129403    17A     -1.084248    18A     -1.045006
      19A     -0.958829    20A     -0.908355    21A     -0.896533
      22A     -0.799534    23A     -0.795180    24A     -0.712856
      25A     -0.707223    26A     -0.682406    27A     -0.638602
      28A     -0.633106    29A     -0.605234    30A     -0.589807
      31A     -0.587839    32A     -0.573115    33A     -0.564000
      34A     -0.552892    35A     -0.535954    36A     -0.491782
      37A     -0.454884    38A     -0.431733    39A     -0.419650
      40A     -0.407437    41A     -0.337916    42A     -0.332417

  @DF-RHF Final Energy:  -525.54201726932399

   => Energetics <=

    Nuclear Repulsion Energy =            658.2196644279698603
    One-Electron Energy =               -2018.7193342174155077
    Two-Electron Energy =                 834.9576525201217692
    Total Energy =                       -525.5420172693239920
  Basis Set: (AUG-CC-PVTZ AUX)
    Blend: AUG-CC-PVTZ-RI
    Molecular point group: c1

    Geometry (in Angstrom), charge = 0, multiplicity = 1:

       Center              X                  Y                   Z               Mass
    ------------   -----------------  -----------------  -----------------  -----------------
         N            0.823210484980    -0.261043423098    -0.036276004441    14.003074004430
         N            1.365657484980    -1.488394423098    -0.265355004441    14.003074004430
         N           -1.074671515020     1.025539576902    -0.452021004441    14.003074004430
         N           -1.261518515020    -1.205211423098     0.430830995559    14.003074004430
         C            1.766826484980     0.733089576902     0.135323995559    12.000000000000
         C            2.985725484980     0.091195576902     0.009707995559    12.000000000000
         C           -0.583239515020    -0.141535423098    -0.016746004441    12.000000000000
         C            1.461052484980     2.162685576902     0.439762995559    12.000000000000
         C            2.686501484980    -1.261300423098    -0.238214004441    12.000000000000
         C           -2.413974515020     1.130798576902    -0.430128004441    12.000000000000
         C           -2.596805515020    -1.079542423098     0.405337995559    12.000000000000
         C           -3.234351515020     0.084901576902    -0.019521004441    12.000000000000
         H            3.959972484980     0.552902576902     0.101026995559     1.007825032230
         H            1.020302484980     2.676685576902    -0.416361004441     1.007825032230
         H            0.761557484980     2.258306576902     1.275116995559     1.007825032230
         H            2.393541484980     2.662508576902     0.715126995559     1.007825032230
         H            3.363264484980    -2.089224423098    -0.408139004441     1.007825032230
         H           -2.828938015020     2.027620276902    -0.912230604441     1.007825032230
         H           -3.161325515020    -1.942136423098     0.754241995559     1.007825032230
         H           -4.315565515020     0.173833576902    -0.023079004441     1.007825032230

  Basis Set: AUG-CC-PVTZ
    Blend: AUG-CC-PVTZ
  Basis Set: (AUG-CC-PVTZ AUX)
    Blend: AUG-CC-PVTZ-JKFIT
	 Reference Energy          =    -525.5420172693239920 [Eh]
	 Singles Energy            =      -0.0000000000000000 [Eh]
	 Same-Spin Energy          =      -0.5776625342329876 [Eh]
	 Opposite-Spin Energy      =      -1.7388349336244233 [Eh]
	 Correlation Energy        =      -2.3164974678574111 [Eh]
	 Total Energy              =    -527.8585147371813946 [Eh]

	 ================> DF-SCS-MP2 Energies <==================
	-----------------------------------------------------------
	 SCS Same-Spin Scale       =       0.3333333333333333 [-]
	 SCS Opposite-Spin Scale   =       1.2000000000000000 [-]
	 SCS Same-Spin Energy      =      -0.1925541780776625 [Eh]
	 SCS Opposite-Spin Energy  =      -2.0866019203493078 [Eh]
	 SCS Correlation Energy    =      -2.2791560984269705 [Eh]
	 SCS Total Energy          =    -527.8211733677509301 [Eh]
	-----------------------------------------------------------

  Dipole Moment: [D]
     X:    -2.5690      Y:     2.5170      Z:     0.3773     Total:     3.6162

*** Psi4 exiting successfully. Buy a developer a beer!
