                               Psi4 1.4a2.dev612

  ==> Input File <==

--------------------------------------------------------------------------
#psi4
#
memory 32 gb

molecule  {
0 1
  N        0.8160970    -0.2990240    -0.0443680
  N        1.3585440    -1.5263750    -0.2734470
  N       -1.0817850     0.9875590    -0.4601130
  N       -1.2686320    -1.2431920     0.4227390
  C        1.7597130     0.6951090     0.1272320
  C        2.9786120     0.0532150     0.0016160
  C       -0.5903530    -0.1795160    -0.0248380
  C        1.4539390     2.1247050     0.4316710
  C        2.6793880    -1.2992810    -0.2463060
  C       -2.4210880     1.0928180    -0.4382200
  C       -2.6039190    -1.1175230     0.3972460
  C       -3.2414650     0.0469210    -0.0276130
  H        3.9528590     0.5149220     0.0929350
  H        1.0131890     2.6387050    -0.4244530
  H        0.7544440     2.2203260     1.2670250
  H        2.3864280     2.6245280     0.7070350
  H        3.3561510    -2.1272050    -0.4162310
  H       -2.8304840     2.0415190    -0.7796900
  H       -3.1663976    -1.9443980     0.8395309
  H       -4.3226790     0.1358530    -0.0311710
units angstrom
no_reorient  #important for SAPT in psi4, default
symmetry c1  #important for SAPT in psi4, default
}

set PROPERTIES_ORIGIN ["COM"]
properties('MP2/aug-cc-pvtz', properties = ['dipole'])
--------------------------------------------------------------------------

    Molecular point group: c1
  Charge       = 0
  Multiplicity = 1
  Basis Set: AUG-CC-PVTZ
    Blend: AUG-CC-PVTZ
  Basis Set: (AUG-CC-PVTZ AUX)
    Blend: AUG-CC-PVTZ-JKFIT

    Orbital Energies [Eh]
    ---------------------

    Doubly Occupied:

       1A    -15.642160     2A    -15.582432     3A    -15.581505
       4A    -15.578823     5A    -11.367444     6A    -11.311524
       7A    -11.309989     8A    -11.286764     9A    -11.254576
      10A    -11.252753    11A    -11.234714    12A    -11.217342
      13A     -1.386368    14A     -1.312596    15A     -1.206061
      16A     -1.129419    17A     -1.084225    18A     -1.045019
      19A     -0.958813    20A     -0.908760    21A     -0.896540
      22A     -0.800107    23A     -0.794929    24A     -0.713123
      25A     -0.707254    26A     -0.682514    27A     -0.638794
      28A     -0.633069    29A     -0.606080    30A     -0.589193
      31A     -0.587368    32A     -0.574591    33A     -0.563998
      34A     -0.552709    35A     -0.535933    36A     -0.491688
      37A     -0.455243    38A     -0.430125    39A     -0.420742
      40A     -0.407624    41A     -0.337931    42A     -0.332413

  @DF-RHF Final Energy:  -525.54290815963134

   => Energetics <=

    Nuclear Repulsion Energy =            658.2551614524351180
    One-Electron Energy =               -2018.7896298281434611
    Two-Electron Energy =                 834.9915602160771186
    Total Energy =                       -525.5429081596313381
  Basis Set: (AUG-CC-PVTZ AUX)
    Blend: AUG-CC-PVTZ-RI
    Molecular point group: c1

    Geometry (in Angstrom), charge = 0, multiplicity = 1:

       Center              X                  Y                   Z               Mass
    ------------   -----------------  -----------------  -----------------  -----------------
         N            0.823162579655    -0.261594938429    -0.037749343913    14.003074004430
         N            1.365609579655    -1.488945938429    -0.266828343913    14.003074004430
         N           -1.074719420345     1.024988061571    -0.453494343913    14.003074004430
         N           -1.261566420345    -1.205762938429     0.429357656087    14.003074004430
         C            1.766778579655     0.732538061571     0.133850656087    12.000000000000
         C            2.985677579655     0.090644061571     0.008234656087    12.000000000000
         C           -0.583287420345    -0.142086938429    -0.018219343913    12.000000000000
         C            1.461004579655     2.162134061571     0.438289656087    12.000000000000
         C            2.686453579655    -1.261851938429    -0.239687343913    12.000000000000
         C           -2.414022420345     1.130247061571    -0.431601343913    12.000000000000
         C           -2.596853420345    -1.080093938429     0.403864656087    12.000000000000
         C           -3.234399420345     0.084350061571    -0.020994343913    12.000000000000
         H            3.959924579655     0.552351061571     0.099553656087     1.007825032230
         H            1.020254579655     2.676134061571    -0.417834343913     1.007825032230
         H            0.761509579655     2.257755061571     1.273643656087     1.007825032230
         H            2.393493579655     2.661957061571     0.713653656087     1.007825032230
         H            3.363216579655    -2.089775938429    -0.409612343913     1.007825032230
         H           -2.823418420345     2.078948061571    -0.773071343913     1.007825032230
         H           -3.159332020345    -1.906968938429     0.846149556087     1.007825032230
         H           -4.315613420345     0.173282061571    -0.024552343913     1.007825032230

  Basis Set: AUG-CC-PVTZ
    Blend: AUG-CC-PVTZ
  Basis Set: (AUG-CC-PVTZ AUX)
    Blend: AUG-CC-PVTZ-JKFIT
	 Reference Energy          =    -525.5429081596313381 [Eh]
	 Singles Energy            =      -0.0000000000000000 [Eh]
	 Same-Spin Energy          =      -0.5776072642327121 [Eh]
	 Opposite-Spin Energy      =      -1.7387249931228461 [Eh]
	 Correlation Energy        =      -2.3163322573555583 [Eh]
	 Total Energy              =    -527.8592404169869496 [Eh]

	 ================> DF-SCS-MP2 Energies <==================
	-----------------------------------------------------------
	 SCS Same-Spin Scale       =       0.3333333333333333 [-]
	 SCS Opposite-Spin Scale   =       1.2000000000000000 [-]
	 SCS Same-Spin Energy      =      -0.1925357547442374 [Eh]
	 SCS Opposite-Spin Energy  =      -2.0864699917474154 [Eh]
	 SCS Correlation Energy    =      -2.2790057464916527 [Eh]
	 SCS Total Energy          =    -527.8219139061229725 [Eh]
	-----------------------------------------------------------

  Dipole Moment: [D]
     X:    -2.5710      Y:     2.5771      Z:     0.4821     Total:     3.6721

*** Psi4 exiting successfully. Buy a developer a beer!
