                               Psi4 1.4a2.dev612

  ==> Input File <==

--------------------------------------------------------------------------
#psi4
#
memory 32 gb

molecule  {
0 1
  N        0.8160970    -0.2990240    -0.0443680
  N        1.3585440    -1.5263750    -0.2734470
  N       -1.0817850     0.9875590    -0.4601130
  N       -1.2686320    -1.2431920     0.4227390
  C        1.7597130     0.6951090     0.1272320
  C        2.9786120     0.0532150     0.0016160
  C       -0.5903530    -0.1795160    -0.0248380
  C        1.4539390     2.1247050     0.4316710
  C        2.6793880    -1.2992810    -0.2463060
  C       -2.4210880     1.0928180    -0.4382200
  C       -2.6039190    -1.1175230     0.3972460
  C       -3.2414650     0.0469210    -0.0276130
  H        3.9529357     0.4597282     0.3878140
  H        1.0131890     2.6387050    -0.4244530
  H        0.7544440     2.2203260     1.2670250
  H        2.3864280     2.6245280     0.7070350
  H        3.3561510    -2.1272050    -0.4162310
  H       -2.8304840     2.0415190    -0.7796900
  H       -3.1684390    -1.9801170     0.7461500
  H       -4.3226790     0.1358530    -0.0311710
units angstrom
no_reorient  #important for SAPT in psi4, default
symmetry c1  #important for SAPT in psi4, default
}

set PROPERTIES_ORIGIN ["COM"]
properties('MP2/aug-cc-pvtz', properties = ['dipole'])
--------------------------------------------------------------------------

    Molecular point group: c1
  Charge       = 0
  Multiplicity = 1
  Basis Set: AUG-CC-PVTZ
    Blend: AUG-CC-PVTZ
  Basis Set: (AUG-CC-PVTZ AUX)
    Blend: AUG-CC-PVTZ-JKFIT

    Orbital Energies [Eh]
    ---------------------

    Doubly Occupied:

       1A    -15.643106     2A    -15.582595     3A    -15.582208
       4A    -15.578973     5A    -11.367816     6A    -11.311770
       7A    -11.309812     8A    -11.288150     9A    -11.255221
      10A    -11.252836    11A    -11.235118    12A    -11.220761
      13A     -1.387110    14A     -1.312956    15A     -1.206317
      16A     -1.129955    17A     -1.084587    18A     -1.045029
      19A     -0.958907    20A     -0.909290    21A     -0.896507
      22A     -0.800500    23A     -0.792465    24A     -0.713159
      25A     -0.707544    26A     -0.681873    27A     -0.640091
      28A     -0.632264    29A     -0.605338    30A     -0.589142
      31A     -0.582553    32A     -0.575858    33A     -0.560357
      34A     -0.553286    35A     -0.536088    36A     -0.491880
      37A     -0.455455    38A     -0.430840    39A     -0.420383
      40A     -0.408350    41A     -0.337994    42A     -0.332792

  @DF-RHF Final Energy:  -525.53797719568240

   => Energetics <=

    Nuclear Repulsion Energy =            658.1180435338807229
    One-Electron Energy =               -2018.4975737644658693
    Two-Electron Energy =                 834.8415530349028586
    Total Energy =                       -525.5379771956824015
  Basis Set: (AUG-CC-PVTZ AUX)
    Blend: AUG-CC-PVTZ-RI
    Molecular point group: c1

    Geometry (in Angstrom), charge = 0, multiplicity = 1:

       Center              X                  Y                   Z               Mass
    ------------   -----------------  -----------------  -----------------  -----------------
         N            0.823174949327    -0.261022555141    -0.039017967750    14.003074004430
         N            1.365621949327    -1.488373555141    -0.268096967750    14.003074004430
         N           -1.074707050673     1.025560444859    -0.454762967750    14.003074004430
         N           -1.261554050673    -1.205190555141     0.428089032250    14.003074004430
         C            1.766790949327     0.733110444859     0.132582032250    12.000000000000
         C            2.985689949327     0.091216444859     0.006966032250    12.000000000000
         C           -0.583275050673    -0.141514555141    -0.019487967750    12.000000000000
         C            1.461016949327     2.162706444859     0.437021032250    12.000000000000
         C            2.686465949327    -1.261279555141    -0.240955967750    12.000000000000
         C           -2.414010050673     1.130819444859    -0.432869967750    12.000000000000
         C           -2.596841050673    -1.079521555141     0.402596032250    12.000000000000
         C           -3.234387050673     0.084922444859    -0.022262967750    12.000000000000
         H            3.960013649327     0.497729644859     0.393164032250     1.007825032230
         H            1.020266949327     2.676706444859    -0.419102967750     1.007825032230
         H            0.761521949327     2.258327444859     1.272375032250     1.007825032230
         H            2.393505949327     2.662529444859     0.712385032250     1.007825032230
         H            3.363228949327    -2.089203555141    -0.410880967750     1.007825032230
         H           -2.823406050673     2.079520444859    -0.774339967750     1.007825032230
         H           -3.161361050673    -1.942115555141     0.751500032250     1.007825032230
         H           -4.315601050673     0.173854444859    -0.025820967750     1.007825032230

  Basis Set: AUG-CC-PVTZ
    Blend: AUG-CC-PVTZ
  Basis Set: (AUG-CC-PVTZ AUX)
    Blend: AUG-CC-PVTZ-JKFIT
	 Reference Energy          =    -525.5379771956824015 [Eh]
	 Singles Energy            =      -0.0000000000000000 [Eh]
	 Same-Spin Energy          =      -0.5777486315194031 [Eh]
	 Opposite-Spin Energy      =      -1.7391465313271803 [Eh]
	 Correlation Energy        =      -2.3168951628465835 [Eh]
	 Total Energy              =    -527.8548723585289508 [Eh]

	 ================> DF-SCS-MP2 Energies <==================
	-----------------------------------------------------------
	 SCS Same-Spin Scale       =       0.3333333333333333 [-]
	 SCS Opposite-Spin Scale   =       1.2000000000000000 [-]
	 SCS Same-Spin Energy      =      -0.1925828771731344 [Eh]
	 SCS Opposite-Spin Energy  =      -2.0869758375926164 [Eh]
	 SCS Correlation Energy    =      -2.2795587147657508 [Eh]
	 SCS Total Energy          =    -527.8175359104481004 [Eh]
	-----------------------------------------------------------

  Dipole Moment: [D]
     X:    -2.6438      Y:     2.4814      Z:     0.6574     Total:     3.6850

*** Psi4 exiting successfully. Buy a developer a beer!
