                               Psi4 1.4a2.dev612

  ==> Input File <==

--------------------------------------------------------------------------
#psi4
#
memory 32 gb

molecule  {
0 1
  N        0.8160970    -0.2990240    -0.0443680
  N        1.3585440    -1.5263750    -0.2734470
  N       -1.0817850     0.9875590    -0.4601130
  N       -1.2664652    -1.2249666     0.4692486
  C        1.7597130     0.6951090     0.1272320
  C        2.9786120     0.0532150     0.0016160
  C       -0.5903530    -0.1795160    -0.0248380
  C        1.4539390     2.1247050     0.4316710
  C        2.6793880    -1.2992810    -0.2463060
  C       -2.4210880     1.0928180    -0.4382200
  C       -2.6039190    -1.1175230     0.3972460
  C       -3.2414650     0.0469210    -0.0276130
  H        3.9528590     0.5149220     0.0929350
  H        1.0131890     2.6387050    -0.4244530
  H        0.7544440     2.2203260     1.2670250
  H        2.3864280     2.6245280     0.7070350
  H        3.3561510    -2.1272050    -0.4162310
  H       -2.8304840     2.0415190    -0.7796900
  H       -3.1684390    -1.9801170     0.7461500
  H       -4.3226790     0.1358530    -0.0311710
units angstrom
no_reorient  #important for SAPT in psi4, default
symmetry c1  #important for SAPT in psi4, default
}

set PROPERTIES_ORIGIN ["COM"]
properties('MP2/aug-cc-pvtz', properties = ['dipole'])
--------------------------------------------------------------------------

    Molecular point group: c1
  Charge       = 0
  Multiplicity = 1
  Basis Set: AUG-CC-PVTZ
    Blend: AUG-CC-PVTZ
  Basis Set: (AUG-CC-PVTZ AUX)
    Blend: AUG-CC-PVTZ-JKFIT

    Orbital Energies [Eh]
    ---------------------

    Doubly Occupied:

       1A    -15.641937     2A    -15.582644     3A    -15.581583
       4A    -15.579215     5A    -11.367453     6A    -11.311690
       7A    -11.309871     8A    -11.286642     9A    -11.254444
      10A    -11.252996    11A    -11.234647    12A    -11.217256
      13A     -1.386191    14A     -1.312382    15A     -1.205686
      16A     -1.129401    17A     -1.084100    18A     -1.045113
      19A     -0.958738    20A     -0.909079    21A     -0.896312
      22A     -0.799889    23A     -0.795382    24A     -0.713207
      25A     -0.707496    26A     -0.682658    27A     -0.637258
      28A     -0.633589    29A     -0.607350    30A     -0.589543
      31A     -0.586570    32A     -0.574917    33A     -0.563919
      34A     -0.552722    35A     -0.535805    36A     -0.491930
      37A     -0.454874    38A     -0.431569    39A     -0.419496
      40A     -0.407172    41A     -0.338590    42A     -0.332358

  @DF-RHF Final Energy:  -525.54288811677725

   => Energetics <=

    Nuclear Repulsion Energy =            658.2150422689421703
    One-Electron Energy =               -2018.7085121545826496
    Two-Electron Energy =                 834.9505817688632305
    Total Energy =                       -525.5428881167772488
  Basis Set: (AUG-CC-PVTZ AUX)
    Blend: AUG-CC-PVTZ-RI
    Molecular point group: c1

    Geometry (in Angstrom), charge = 0, multiplicity = 1:

       Center              X                  Y                   Z               Mass
    ------------   -----------------  -----------------  -----------------  -----------------
         N            0.822985884325    -0.262964379408    -0.041230000625    14.003074004430
         N            1.365432884325    -1.490315379408    -0.270309000625    14.003074004430
         N           -1.074896115675     1.023618620592    -0.456975000625    14.003074004430
         N           -1.259576315675    -1.188906979408     0.472386599375    14.003074004430
         C            1.766601884325     0.731168620592     0.130369999375    12.000000000000
         C            2.985500884325     0.089274620592     0.004753999375    12.000000000000
         C           -0.583464115675    -0.143456379408    -0.021700000625    12.000000000000
         C            1.460827884325     2.160764620592     0.434808999375    12.000000000000
         C            2.686276884325    -1.263221379408    -0.243168000625    12.000000000000
         C           -2.414199115675     1.128877620592    -0.435082000625    12.000000000000
         C           -2.597030115675    -1.081463379408     0.400383999375    12.000000000000
         C           -3.234576115675     0.082980620592    -0.024475000625    12.000000000000
         H            3.959747884325     0.550981620592     0.096072999375     1.007825032230
         H            1.020077884325     2.674764620592    -0.421315000625     1.007825032230
         H            0.761332884325     2.256385620592     1.270162999375     1.007825032230
         H            2.393316884325     2.660587620592     0.710172999375     1.007825032230
         H            3.363039884325    -2.091145379408    -0.413093000625     1.007825032230
         H           -2.823595115675     2.077578620592    -0.776552000625     1.007825032230
         H           -3.161550115675    -1.944057379408     0.749287999375     1.007825032230
         H           -4.315790115675     0.171912620592    -0.028033000625     1.007825032230

  Basis Set: AUG-CC-PVTZ
    Blend: AUG-CC-PVTZ
  Basis Set: (AUG-CC-PVTZ AUX)
    Blend: AUG-CC-PVTZ-JKFIT
	 Reference Energy          =    -525.5428881167772488 [Eh]
	 Singles Energy            =      -0.0000000000000000 [Eh]
	 Same-Spin Energy          =      -0.5776267925718483 [Eh]
	 Opposite-Spin Energy      =      -1.7388083502555443 [Eh]
	 Correlation Energy        =      -2.3164351428273928 [Eh]
	 Total Energy              =    -527.8593232596045937 [Eh]

	 ================> DF-SCS-MP2 Energies <==================
	-----------------------------------------------------------
	 SCS Same-Spin Scale       =       0.3333333333333333 [-]
	 SCS Opposite-Spin Scale   =       1.2000000000000000 [-]
	 SCS Same-Spin Energy      =      -0.1925422641906161 [Eh]
	 SCS Opposite-Spin Energy  =      -2.0865700203066528 [Eh]
	 SCS Correlation Energy    =      -2.2791122844972689 [Eh]
	 SCS Total Energy          =    -527.8220004012745221 [Eh]
	-----------------------------------------------------------

  Dipole Moment: [D]
     X:    -2.5941      Y:     2.5468      Z:     0.3980     Total:     3.6570

*** Psi4 exiting successfully. Buy a developer a beer!
