                               Psi4 1.4a2.dev612

  ==> Input File <==

--------------------------------------------------------------------------
#psi4
#
memory 32 gb

molecule  {
0 1
  N        0.8160970    -0.2990240    -0.0443680
  N        1.3585440    -1.5263750    -0.2734470
  N       -1.0817850     0.9875590    -0.4601130
  N       -1.2686320    -1.2431920     0.4227390
  C        1.7597130     0.6951090     0.1272320
  C        2.9786120     0.0532150     0.0016160
  C       -0.5903530    -0.1795160    -0.0248380
  C        1.4544886     2.1149301     0.4807031
  C        2.6793880    -1.2992810    -0.2463060
  C       -2.4210880     1.0928180    -0.4382200
  C       -2.6039190    -1.1175230     0.3972460
  C       -3.2414650     0.0469210    -0.0276130
  H        3.9528590     0.5149220     0.0929350
  H        1.0131890     2.6387050    -0.4244530
  H        0.7544440     2.2203260     1.2670250
  H        2.3864280     2.6245280     0.7070350
  H        3.3561510    -2.1272050    -0.4162310
  H       -2.8304840     2.0415190    -0.7796900
  H       -3.1684390    -1.9801170     0.7461500
  H       -4.3226790     0.1358530    -0.0311710
units angstrom
no_reorient  #important for SAPT in psi4, default
symmetry c1  #important for SAPT in psi4, default
}

set PROPERTIES_ORIGIN ["COM"]
properties('MP2/aug-cc-pvtz', properties = ['dipole'])
--------------------------------------------------------------------------

    Molecular point group: c1
  Charge       = 0
  Multiplicity = 1
  Basis Set: AUG-CC-PVTZ
    Blend: AUG-CC-PVTZ
  Basis Set: (AUG-CC-PVTZ AUX)
    Blend: AUG-CC-PVTZ-JKFIT

    Orbital Energies [Eh]
    ---------------------

    Doubly Occupied:

       1A    -15.642048     2A    -15.582347     3A    -15.581365
       4A    -15.578654     5A    -11.367393     6A    -11.311512
       7A    -11.309496     8A    -11.286999     9A    -11.254546
      10A    -11.252688    11A    -11.234869    12A    -11.217251
      13A     -1.386294    14A     -1.312533    15A     -1.206009
      16A     -1.129372    17A     -1.084193    18A     -1.044995
      19A     -0.959115    20A     -0.909053    21A     -0.896569
      22A     -0.800166    23A     -0.795244    24A     -0.713398
      25A     -0.707547    26A     -0.682735    27A     -0.638264
      28A     -0.633452    29A     -0.607363    30A     -0.590354
      31A     -0.584080    32A     -0.578237    33A     -0.565179
      34A     -0.552263    35A     -0.533789    36A     -0.490967
      37A     -0.455150    38A     -0.430581    39A     -0.420158
      40A     -0.407692    41A     -0.338018    42A     -0.331753

  @DF-RHF Final Energy:  -525.54113887312712

   => Energetics <=

    Nuclear Repulsion Energy =            658.2323934477378771
    One-Electron Energy =               -2018.7396832378785803
    Two-Electron Energy =                 834.9661509170135787
    Total Energy =                       -525.5411388731271245
  Basis Set: (AUG-CC-PVTZ AUX)
    Blend: AUG-CC-PVTZ-RI
    Molecular point group: c1

    Geometry (in Angstrom), charge = 0, multiplicity = 1:

       Center              X                  Y                   Z               Mass
    ------------   -----------------  -----------------  -----------------  -----------------
         N            0.823134231513    -0.260637278572    -0.040837108472    14.003074004430
         N            1.365581231513    -1.487988278572    -0.269916108472    14.003074004430
         N           -1.074747768487     1.025945721428    -0.456582108472    14.003074004430
         N           -1.261594768487    -1.204805278572     0.426269891528    14.003074004430
         C            1.766750231513     0.733495721428     0.130762891528    12.000000000000
         C            2.985649231513     0.091601721428     0.005146891528    12.000000000000
         C           -0.583315768487    -0.141129278572    -0.021307108472    12.000000000000
         C            1.461525831513     2.153316821428     0.484233991528    12.000000000000
         C            2.686425231513    -1.260894278572    -0.242775108472    12.000000000000
         C           -2.414050768487     1.131204721428    -0.434689108472    12.000000000000
         C           -2.596881768487    -1.079136278572     0.400776891528    12.000000000000
         C           -3.234427768487     0.085307721428    -0.024082108472    12.000000000000
         H            3.959896231513     0.553308721428     0.096465891528     1.007825032230
         H            1.020226231513     2.677091721428    -0.420922108472     1.007825032230
         H            0.761481231513     2.258712721428     1.270555891528     1.007825032230
         H            2.393465231513     2.662914721428     0.710565891528     1.007825032230
         H            3.363188231513    -2.088818278572    -0.412700108472     1.007825032230
         H           -2.823446768487     2.079905721428    -0.776159108472     1.007825032230
         H           -3.161401768487    -1.941730278572     0.749680891528     1.007825032230
         H           -4.315641768487     0.174239721428    -0.027640108472     1.007825032230

  Basis Set: AUG-CC-PVTZ
    Blend: AUG-CC-PVTZ
  Basis Set: (AUG-CC-PVTZ AUX)
    Blend: AUG-CC-PVTZ-JKFIT
	 Reference Energy          =    -525.5411388731271245 [Eh]
	 Singles Energy            =      -0.0000000000000000 [Eh]
	 Same-Spin Energy          =      -0.5775914798061125 [Eh]
	 Opposite-Spin Energy      =      -1.7387002876429811 [Eh]
	 Correlation Energy        =      -2.3162917674490937 [Eh]
	 Total Energy              =    -527.8574306405762400 [Eh]

	 ================> DF-SCS-MP2 Energies <==================
	-----------------------------------------------------------
	 SCS Same-Spin Scale       =       0.3333333333333333 [-]
	 SCS Opposite-Spin Scale   =       1.2000000000000000 [-]
	 SCS Same-Spin Energy      =      -0.1925304932687041 [Eh]
	 SCS Opposite-Spin Energy  =      -2.0864403451715772 [Eh]
	 SCS Correlation Energy    =      -2.2789708384402814 [Eh]
	 SCS Total Energy          =    -527.8201097115673974 [Eh]
	-----------------------------------------------------------

  Dipole Moment: [D]
     X:    -2.5784      Y:     2.5515      Z:     0.4668     Total:     3.6573

*** Psi4 exiting successfully. Buy a developer a beer!
