                               Psi4 1.4a2.dev612

  ==> Input File <==

--------------------------------------------------------------------------
#psi4
#
memory 32 gb

molecule  {
0 1
  N        0.8160970    -0.2990240    -0.0443680
  N        1.3585440    -1.5263750    -0.2734470
  N       -1.0817850     0.9875590    -0.4601130
  N       -1.2686320    -1.2431920     0.4227390
  C        1.7597130     0.6951090     0.1272320
  C        2.9786120     0.0532150     0.0016160
  C       -0.5903530    -0.1795160    -0.0248380
  C        1.4539390     2.1247050     0.4316710
  C        2.6793880    -1.2992810    -0.2463060
  C       -2.4210880     1.0928180    -0.4382200
  C       -2.6039190    -1.1175230     0.3972460
  C       -3.2414650     0.0469210    -0.0276130
  H        3.9528590     0.5149220     0.0929350
  H        1.0131890     2.6387050    -0.4244530
  H        0.7544440     2.2203260     1.2670250
  H        2.3864280     2.6245280     0.7070350
  H        3.3561510    -2.1272050    -0.4162310
  H       -2.8341956     2.0069328    -0.8734451
  H       -3.1684390    -1.9801170     0.7461500
  H       -4.3226790     0.1358530    -0.0311710
units angstrom
no_reorient  #important for SAPT in psi4, default
symmetry c1  #important for SAPT in psi4, default
}

set PROPERTIES_ORIGIN ["COM"]
properties('MP2/aug-cc-pvtz', properties = ['dipole'])
--------------------------------------------------------------------------

    Molecular point group: c1
  Charge       = 0
  Multiplicity = 1
  Basis Set: AUG-CC-PVTZ
    Blend: AUG-CC-PVTZ
  Basis Set: (AUG-CC-PVTZ AUX)
    Blend: AUG-CC-PVTZ-JKFIT

    Orbital Energies [Eh]
    ---------------------

    Doubly Occupied:

       1A    -15.642152     2A    -15.582568     3A    -15.581470
       4A    -15.578701     5A    -11.367435     6A    -11.311970
       7A    -11.309491     8A    -11.286764     9A    -11.254562
      10A    -11.252735    11A    -11.234712    12A    -11.217330
      13A     -1.386358    14A     -1.312597    15A     -1.206062
      16A     -1.129400    17A     -1.084226    18A     -1.045005
      19A     -0.958809    20A     -0.908727    21A     -0.896542
      22A     -0.799826    23A     -0.795218    24A     -0.713023
      25A     -0.707296    26A     -0.682456    27A     -0.638423
      28A     -0.633321    29A     -0.605966    30A     -0.589722
      31A     -0.587513    32A     -0.573924    33A     -0.563985
      34A     -0.552862    35A     -0.535930    36A     -0.491720
      37A     -0.454937    38A     -0.431288    39A     -0.419847
      40A     -0.407608    41A     -0.337951    42A     -0.332394

  @DF-RHF Final Energy:  -525.54291650463176

   => Energetics <=

    Nuclear Repulsion Energy =            658.2469723273368345
    One-Electron Energy =               -2018.7741304716337254
    Two-Electron Energy =                 834.9842416396651288
    Total Energy =                       -525.5429165046317621
  Basis Set: (AUG-CC-PVTZ AUX)
    Blend: AUG-CC-PVTZ-RI
    Molecular point group: c1

    Geometry (in Angstrom), charge = 0, multiplicity = 1:

       Center              X                  Y                   Z               Mass
    ------------   -----------------  -----------------  -----------------  -----------------
         N            0.823198800309    -0.261152299752    -0.036571143273    14.003074004430
         N            1.365645800309    -1.488503299752    -0.265650143273    14.003074004430
         N           -1.074683199691     1.025430700248    -0.452316143273    14.003074004430
         N           -1.261530199691    -1.205320299752     0.430535856727    14.003074004430
         C            1.766814800309     0.732980700248     0.135028856727    12.000000000000
         C            2.985713800309     0.091086700248     0.009412856727    12.000000000000
         C           -0.583251199691    -0.141644299752    -0.017041143273    12.000000000000
         C            1.461040800309     2.162576700248     0.439467856727    12.000000000000
         C            2.686489800309    -1.261409299752    -0.238509143273    12.000000000000
         C           -2.413986199691     1.130689700248    -0.430423143273    12.000000000000
         C           -2.596817199691    -1.079651299752     0.405042856727    12.000000000000
         C           -3.234363199691     0.084792700248    -0.019816143273    12.000000000000
         H            3.959960800309     0.552793700248     0.100731856727     1.007825032230
         H            1.020290800309     2.676576700248    -0.416656143273     1.007825032230
         H            0.761545800309     2.258197700248     1.274821856727     1.007825032230
         H            2.393529800309     2.662399700248     0.714831856727     1.007825032230
         H            3.363252800309    -2.089333299752    -0.408434143273     1.007825032230
         H           -2.827093799691     2.044804500248    -0.865648243273     1.007825032230
         H           -3.161337199691    -1.942245299752     0.753946856727     1.007825032230
         H           -4.315577199691     0.173724700248    -0.023374143273     1.007825032230

  Basis Set: AUG-CC-PVTZ
    Blend: AUG-CC-PVTZ
  Basis Set: (AUG-CC-PVTZ AUX)
    Blend: AUG-CC-PVTZ-JKFIT
	 Reference Energy          =    -525.5429165046317621 [Eh]
	 Singles Energy            =      -0.0000000000000000 [Eh]
	 Same-Spin Energy          =      -0.5776052971514640 [Eh]
	 Opposite-Spin Energy      =      -1.7387156325799746 [Eh]
	 Correlation Energy        =      -2.3163209297314387 [Eh]
	 Total Energy              =    -527.8592374343631946 [Eh]

	 ================> DF-SCS-MP2 Energies <==================
	-----------------------------------------------------------
	 SCS Same-Spin Scale       =       0.3333333333333333 [-]
	 SCS Opposite-Spin Scale   =       1.2000000000000000 [-]
	 SCS Same-Spin Energy      =      -0.1925350990504880 [Eh]
	 SCS Opposite-Spin Energy  =      -2.0864587590959696 [Eh]
	 SCS Correlation Energy    =      -2.2789938581464577 [Eh]
	 SCS Total Energy          =    -527.8219103627782260 [Eh]
	-----------------------------------------------------------

  Dipole Moment: [D]
     X:    -2.5745      Y:     2.5325      Z:     0.3970     Total:     3.6331

*** Psi4 exiting successfully. Buy a developer a beer!
