                               Psi4 1.4a2.dev612

  ==> Input File <==

--------------------------------------------------------------------------
#psi4
#
memory 32 gb

molecule  {
0 1
  N        0.8160970    -0.2990240    -0.0443680
  N        1.3585440    -1.5263750    -0.2734470
  N       -1.0817850     0.9875590    -0.4601130
  N       -1.2642984    -1.2067413     0.5157582
  C        1.7597130     0.6951090     0.1272320
  C        2.9786120     0.0532150     0.0016160
  C       -0.5903530    -0.1795160    -0.0248380
  C        1.4539390     2.1247050     0.4316710
  C        2.6793880    -1.2992810    -0.2463060
  C       -2.4210880     1.0928180    -0.4382200
  C       -2.6039190    -1.1175230     0.3972460
  C       -3.2414650     0.0469210    -0.0276130
  H        3.9528590     0.5149220     0.0929350
  H        1.0131890     2.6387050    -0.4244530
  H        0.7544440     2.2203260     1.2670250
  H        2.3864280     2.6245280     0.7070350
  H        3.3561510    -2.1272050    -0.4162310
  H       -2.8304840     2.0415190    -0.7796900
  H       -3.1684390    -1.9801170     0.7461500
  H       -4.3226790     0.1358530    -0.0311710
units angstrom
no_reorient  #important for SAPT in psi4, default
symmetry c1  #important for SAPT in psi4, default
}

set PROPERTIES_ORIGIN ["COM"]
properties('MP2/aug-cc-pvtz', properties = ['dipole'])
--------------------------------------------------------------------------

    Molecular point group: c1
  Charge       = 0
  Multiplicity = 1
  Basis Set: AUG-CC-PVTZ
    Blend: AUG-CC-PVTZ
  Basis Set: (AUG-CC-PVTZ AUX)
    Blend: AUG-CC-PVTZ-JKFIT

    Orbital Energies [Eh]
    ---------------------

    Doubly Occupied:

       1A    -15.641824     2A    -15.582875     3A    -15.581743
       4A    -15.580161     5A    -11.367762     6A    -11.311859
       7A    -11.310498     8A    -11.286586     9A    -11.254404
      10A    -11.253293    11A    -11.234614    12A    -11.217248
      13A     -1.386012    14A     -1.311878    15A     -1.204859
      16A     -1.129383    17A     -1.083991    18A     -1.045194
      19A     -0.958712    20A     -0.908899    21A     -0.895804
      22A     -0.799577    23A     -0.795501    24A     -0.713044
      25A     -0.707311    26A     -0.682817    27A     -0.636224
      28A     -0.633791    29A     -0.607477    30A     -0.589440
      31A     -0.586421    32A     -0.574560    33A     -0.563885
      34A     -0.552726    35A     -0.535734    36A     -0.492370
      37A     -0.454727    38A     -0.433108    39A     -0.418003
      40A     -0.406423    41A     -0.339133    42A     -0.332369

  @DF-RHF Final Energy:  -525.54104271828373

   => Energetics <=

    Nuclear Repulsion Energy =            658.0856819864384306
    One-Electron Energy =               -2018.4489697952096776
    Two-Electron Energy =                 834.8222450904875132
    Total Energy =                       -525.5410427182837338
  Basis Set: (AUG-CC-PVTZ AUX)
    Blend: AUG-CC-PVTZ-RI
    Molecular point group: c1

    Geometry (in Angstrom), charge = 0, multiplicity = 1:

       Center              X                  Y                   Z               Mass
    ------------   -----------------  -----------------  -----------------  -----------------
         N            0.822796336423    -0.264558697010    -0.045298579683    14.003074004430
         N            1.365243336423    -1.491909697010    -0.274377579683    14.003074004430
         N           -1.075085663577     1.022024302990    -0.461043579683    14.003074004430
         N           -1.257599063577    -1.172275997010     0.514827620317    14.003074004430
         C            1.766412336423     0.729574302990     0.126301420317    12.000000000000
         C            2.985311336423     0.087680302990     0.000685420317    12.000000000000
         C           -0.583653663577    -0.145050697010    -0.025768579683    12.000000000000
         C            1.460638336423     2.159170302990     0.430740420317    12.000000000000
         C            2.686087336423    -1.264815697010    -0.247236579683    12.000000000000
         C           -2.414388663577     1.127283302990    -0.439150579683    12.000000000000
         C           -2.597219663577    -1.083057697010     0.396315420317    12.000000000000
         C           -3.234765663577     0.081386302990    -0.028543579683    12.000000000000
         H            3.959558336423     0.549387302990     0.092004420317     1.007825032230
         H            1.019888336423     2.673170302990    -0.425383579683     1.007825032230
         H            0.761143336423     2.254791302990     1.266094420317     1.007825032230
         H            2.393127336423     2.658993302990     0.706104420317     1.007825032230
         H            3.362850336423    -2.092739697010    -0.417161579683     1.007825032230
         H           -2.823784663577     2.075984302990    -0.780620579683     1.007825032230
         H           -3.161739663577    -1.945651697010     0.745219420317     1.007825032230
         H           -4.315979663577     0.170318302990    -0.032101579683     1.007825032230

  Basis Set: AUG-CC-PVTZ
    Blend: AUG-CC-PVTZ
  Basis Set: (AUG-CC-PVTZ AUX)
    Blend: AUG-CC-PVTZ-JKFIT
	 Reference Energy          =    -525.5410427182837338 [Eh]
	 Singles Energy            =      -0.0000000000000000 [Eh]
	 Same-Spin Energy          =      -0.5777529275838484 [Eh]
	 Opposite-Spin Energy      =      -1.7391859136233734 [Eh]
	 Correlation Energy        =      -2.3169388412072216 [Eh]
	 Total Energy              =    -527.8579815594910087 [Eh]

	 ================> DF-SCS-MP2 Energies <==================
	-----------------------------------------------------------
	 SCS Same-Spin Scale       =       0.3333333333333333 [-]
	 SCS Opposite-Spin Scale   =       1.2000000000000000 [-]
	 SCS Same-Spin Energy      =      -0.1925843091946161 [Eh]
	 SCS Opposite-Spin Energy  =      -2.0870230963480481 [Eh]
	 SCS Correlation Energy    =      -2.2796074055426643 [Eh]
	 SCS Total Energy          =    -527.8206501238264536 [Eh]
	-----------------------------------------------------------

  Dipole Moment: [D]
     X:    -2.6036      Y:     2.5381      Z:     0.3562     Total:     3.6534

*** Psi4 exiting successfully. Buy a developer a beer!
