                               Psi4 1.4a2.dev612

  ==> Input File <==

--------------------------------------------------------------------------
#psi4
#
memory 32 gb

molecule  {
0 1
  N        0.8160970    -0.2990240    -0.0443680
  N        1.3585440    -1.5263750    -0.2734470
  N       -1.0817850     0.9875590    -0.4601130
  N       -1.2686320    -1.2431920     0.4227390
  C        1.7597130     0.6951090     0.1272320
  C        2.9786120     0.0532150     0.0016160
  C       -0.5903530    -0.1795160    -0.0248380
  C        1.4555877     2.0953803     0.5787674
  C        2.6793880    -1.2992810    -0.2463060
  C       -2.4210880     1.0928180    -0.4382200
  C       -2.6039190    -1.1175230     0.3972460
  C       -3.2414650     0.0469210    -0.0276130
  H        3.9528590     0.5149220     0.0929350
  H        1.0131890     2.6387050    -0.4244530
  H        0.7544440     2.2203260     1.2670250
  H        2.3864280     2.6245280     0.7070350
  H        3.3561510    -2.1272050    -0.4162310
  H       -2.8304840     2.0415190    -0.7796900
  H       -3.1684390    -1.9801170     0.7461500
  H       -4.3226790     0.1358530    -0.0311710
units angstrom
no_reorient  #important for SAPT in psi4, default
symmetry c1  #important for SAPT in psi4, default
}

set PROPERTIES_ORIGIN ["COM"]
properties('MP2/aug-cc-pvtz', properties = ['dipole'])
--------------------------------------------------------------------------

    Molecular point group: c1
  Charge       = 0
  Multiplicity = 1
  Basis Set: AUG-CC-PVTZ
    Blend: AUG-CC-PVTZ
  Basis Set: (AUG-CC-PVTZ AUX)
    Blend: AUG-CC-PVTZ-JKFIT

    Orbital Energies [Eh]
    ---------------------

    Doubly Occupied:

       1A    -15.642003     2A    -15.582190     3A    -15.581409
       4A    -15.578669     5A    -11.367408     6A    -11.311457
       7A    -11.309512     8A    -11.288637     9A    -11.254788
      10A    -11.252681    11A    -11.237474    12A    -11.217450
      13A     -1.386371    14A     -1.312548    15A     -1.205960
      16A     -1.129402    17A     -1.084136    18A     -1.045045
      19A     -0.961103    20A     -0.909025    21A     -0.896753
      22A     -0.800471    23A     -0.795430    24A     -0.714989
      25A     -0.708866    26A     -0.685038    27A     -0.639249
      28A     -0.633594    29A     -0.610968    30A     -0.596033
      31A     -0.587555    32A     -0.576681    33A     -0.564942
      34A     -0.555650    35A     -0.518471    36A     -0.486679
      37A     -0.455321    38A     -0.430624    39A     -0.419891
      40A     -0.407705    41A     -0.338095    42A     -0.329731

  @DF-RHF Final Energy:  -525.52178043924903

   => Energetics <=

    Nuclear Repulsion Energy =            658.0752539581098972
    One-Electron Energy =               -2018.3740614451592137
    Two-Electron Energy =                 834.7770270478002885
    Total Energy =                       -525.5217804392490279
  Basis Set: (AUG-CC-PVTZ AUX)
    Blend: AUG-CC-PVTZ-RI
    Molecular point group: c1

    Geometry (in Angstrom), charge = 0, multiplicity = 1:

       Center              X                  Y                   Z               Mass
    ------------   -----------------  -----------------  -----------------  -----------------
         N            0.823051837582    -0.259171729598    -0.048188489778    14.003074004430
         N            1.365498837582    -1.486522729598    -0.277267489778    14.003074004430
         N           -1.074830162418     1.027411270402    -0.463933489778    14.003074004430
         N           -1.261677162418    -1.203339729598     0.418918510222    14.003074004430
         C            1.766667837582     0.734961270402     0.123411510222    12.000000000000
         C            2.985566837582     0.093067270402    -0.002204489778    12.000000000000
         C           -0.583398162418    -0.139663729598    -0.028658489778    12.000000000000
         C            1.462542537582     2.135232570402     0.574946910222    12.000000000000
         C            2.686342837582    -1.259428729598    -0.250126489778    12.000000000000
         C           -2.414133162418     1.132670270402    -0.442040489778    12.000000000000
         C           -2.596964162418    -1.077670729598     0.393425510222    12.000000000000
         C           -3.234510162418     0.086773270402    -0.031433489778    12.000000000000
         H            3.959813837582     0.554774270402     0.089114510222     1.007825032230
         H            1.020143837582     2.678557270402    -0.428273489778     1.007825032230
         H            0.761398837582     2.260178270402     1.263204510222     1.007825032230
         H            2.393382837582     2.664380270402     0.703214510222     1.007825032230
         H            3.363105837582    -2.087352729598    -0.420051489778     1.007825032230
         H           -2.823529162418     2.081371270402    -0.783510489778     1.007825032230
         H           -3.161484162418    -1.940264729598     0.742329510222     1.007825032230
         H           -4.315724162418     0.175705270402    -0.034991489778     1.007825032230

  Basis Set: AUG-CC-PVTZ
    Blend: AUG-CC-PVTZ
  Basis Set: (AUG-CC-PVTZ AUX)
    Blend: AUG-CC-PVTZ-JKFIT
	 Reference Energy          =    -525.5217804392490279 [Eh]
	 Singles Energy            =      -0.0000000000000000 [Eh]
	 Same-Spin Energy          =      -0.5778810772769702 [Eh]
	 Opposite-Spin Energy      =      -1.7395191376816910 [Eh]
	 Correlation Energy        =      -2.3174002149586612 [Eh]
	 Total Energy              =    -527.8391806542076665 [Eh]

	 ================> DF-SCS-MP2 Energies <==================
	-----------------------------------------------------------
	 SCS Same-Spin Scale       =       0.3333333333333333 [-]
	 SCS Opposite-Spin Scale   =       1.2000000000000000 [-]
	 SCS Same-Spin Energy      =      -0.1926270257589901 [Eh]
	 SCS Opposite-Spin Energy  =      -2.0874229652180292 [Eh]
	 SCS Correlation Energy    =      -2.2800499909770191 [Eh]
	 SCS Total Energy          =    -527.8018304302260049 [Eh]
	-----------------------------------------------------------

  Dipole Moment: [D]
     X:    -2.5671      Y:     2.5270      Z:     0.5145     Total:     3.6388

*** Psi4 exiting successfully. Buy a developer a beer!
