                               Psi4 1.4a2.dev612

  ==> Input File <==

--------------------------------------------------------------------------
#psi4
#
memory 32 gb

molecule  {
0 1
  N        0.8160970    -0.2990240    -0.0443680
  N        1.3585440    -1.5263750    -0.2734470
  N       -1.0817850     0.9875590    -0.4601130
  N       -1.2686320    -1.2431920     0.4227390
  C        1.7597130     0.6951090     0.1272320
  C        2.9786120     0.0532150     0.0016160
  C       -0.5903530    -0.1795160    -0.0248380
  C        1.4539390     2.1247050     0.4316710
  C        2.6793880    -1.2992810    -0.2463060
  C       -2.4210880     1.0928180    -0.4382200
  C       -2.6039190    -1.1175230     0.3972460
  C       -3.2414650     0.0469210    -0.0276130
  H        3.9528590     0.5149220     0.0929350
  H        1.0131890     2.6387050    -0.4244530
  H        0.7544440     2.2203260     1.2670250
  H        2.3864280     2.6245280     0.7070350
  H        3.3561510    -2.1272050    -0.4162310
  H       -2.8397631     1.9550534    -1.0140777
  H       -3.1684390    -1.9801170     0.7461500
  H       -4.3226790     0.1358530    -0.0311710
units angstrom
no_reorient  #important for SAPT in psi4, default
symmetry c1  #important for SAPT in psi4, default
}

set PROPERTIES_ORIGIN ["COM"]
properties('MP2/aug-cc-pvtz', properties = ['dipole'])
--------------------------------------------------------------------------

    Molecular point group: c1
  Charge       = 0
  Multiplicity = 1
  Basis Set: AUG-CC-PVTZ
    Blend: AUG-CC-PVTZ
  Basis Set: (AUG-CC-PVTZ AUX)
    Blend: AUG-CC-PVTZ-JKFIT

    Orbital Energies [Eh]
    ---------------------

    Doubly Occupied:

       1A    -15.642280     2A    -15.583014     3A    -15.581553
       4A    -15.578971     5A    -11.367682     6A    -11.314257
       7A    -11.309645     8A    -11.286864     9A    -11.254671
      10A    -11.253079    11A    -11.234775    12A    -11.217419
      13A     -1.386501    14A     -1.312811    15A     -1.206195
      16A     -1.129420    17A     -1.084317    18A     -1.045023
      19A     -0.958888    20A     -0.907294    21A     -0.896495
      22A     -0.798771    23A     -0.794984    24A     -0.712388
      25A     -0.706994    26A     -0.682276    27A     -0.639021
      28A     -0.632461    29A     -0.603577    30A     -0.589919
      31A     -0.588317    32A     -0.571054    33A     -0.564042
      34A     -0.552807    35A     -0.536025    36A     -0.491965
      37A     -0.454817    38A     -0.432688    39A     -0.419276
      40A     -0.406866    41A     -0.337869    42A     -0.332487

  @DF-RHF Final Energy:  -525.53897467164188

   => Energetics <=

    Nuclear Repulsion Energy =            658.1401060503252438
    One-Electron Energy =               -2018.5586460839697338
    Two-Electron Energy =                 834.8795653620027224
    Total Energy =                       -525.5389746716418813
  Basis Set: (AUG-CC-PVTZ AUX)
    Blend: AUG-CC-PVTZ-RI
    Molecular point group: c1

    Geometry (in Angstrom), charge = 0, multiplicity = 1:

       Center              X                  Y                   Z               Mass
    ------------   -----------------  -----------------  -----------------  -----------------
         N            0.823233853063    -0.260825669161    -0.035685726147    14.003074004430
         N            1.365680853063    -1.488176669161    -0.264764726147    14.003074004430
         N           -1.074648146937     1.025757330839    -0.451430726147    14.003074004430
         N           -1.261495146937    -1.204993669161     0.431421273853    14.003074004430
         C            1.766849853063     0.733307330839     0.135914273853    12.000000000000
         C            2.985748853063     0.091413330839     0.010298273853    12.000000000000
         C           -0.583216146937    -0.141317669161    -0.016155726147    12.000000000000
         C            1.461075853063     2.162903330839     0.440353273853    12.000000000000
         C            2.686524853063    -1.261082669161    -0.237623726147    12.000000000000
         C           -2.413951146937     1.131016330839    -0.429537726147    12.000000000000
         C           -2.596782146937    -1.079324669161     0.405928273853    12.000000000000
         C           -3.234328146937     0.085119330839    -0.018930726147    12.000000000000
         H            3.959995853063     0.553120330839     0.101617273853     1.007825032230
         H            1.020325853063     2.676903330839    -0.415770726147     1.007825032230
         H            0.761580853063     2.258524330839     1.275707273853     1.007825032230
         H            2.393564853063     2.662726330839     0.715717273853     1.007825032230
         H            3.363287853063    -2.089006669161    -0.407548726147     1.007825032230
         H           -2.832626246937     1.993251730839    -1.005395426147     1.007825032230
         H           -3.161302146937    -1.941918669161     0.754832273853     1.007825032230
         H           -4.315542146937     0.174051330839    -0.022488726147     1.007825032230

  Basis Set: AUG-CC-PVTZ
    Blend: AUG-CC-PVTZ
  Basis Set: (AUG-CC-PVTZ AUX)
    Blend: AUG-CC-PVTZ-JKFIT
	 Reference Energy          =    -525.5389746716418813 [Eh]
	 Singles Energy            =      -0.0000000000000000 [Eh]
	 Same-Spin Energy          =      -0.5778444441541110 [Eh]
	 Opposite-Spin Energy      =      -1.7392450394517849 [Eh]
	 Correlation Energy        =      -2.3170894836058959 [Eh]
	 Total Energy              =    -527.8560641552477364 [Eh]

	 ================> DF-SCS-MP2 Energies <==================
	-----------------------------------------------------------
	 SCS Same-Spin Scale       =       0.3333333333333333 [-]
	 SCS Opposite-Spin Scale   =       1.2000000000000000 [-]
	 SCS Same-Spin Energy      =      -0.1926148147180370 [Eh]
	 SCS Opposite-Spin Energy  =      -2.0870940473421418 [Eh]
	 SCS Correlation Energy    =      -2.2797088620601786 [Eh]
	 SCS Total Energy          =    -527.8186835337020284 [Eh]
	-----------------------------------------------------------

  Dipole Moment: [D]
     X:    -2.5517      Y:     2.4778      Z:     0.3414     Total:     3.5731

*** Psi4 exiting successfully. Buy a developer a beer!
