                               Psi4 1.4a2.dev612

  ==> Input File <==

--------------------------------------------------------------------------
#psi4
#
memory 32 gb

molecule  {
0 1
  N        0.8160970    -0.2990240    -0.0443680
  N        1.3585440    -1.5263750    -0.2734470
  N       -1.0817850     0.9875590    -0.4601130
  N       -1.2686320    -1.2431920     0.4227390
  C        1.7597130     0.6951090     0.1272320
  C        2.9786120     0.0532150     0.0016160
  C       -0.5903530    -0.1795160    -0.0248380
  C        1.4539390     2.1247050     0.4316710
  C        2.6793880    -1.2992810    -0.2463060
  C       -2.4210880     1.0928180    -0.4382200
  C       -2.6039190    -1.1175230     0.3972460
  C       -3.2414650     0.0469210    -0.0276130
  H        3.9528590     0.5149220     0.0929350
  H        1.0131890     2.6387050    -0.4244530
  H        0.7544440     2.2203260     1.2670250
  H        2.3864280     2.6245280     0.7070350
  H        3.3518482    -2.0714663    -0.7109761
  H       -2.8304840     2.0415190    -0.7796900
  H       -3.1684390    -1.9801170     0.7461500
  H       -4.3226790     0.1358530    -0.0311710
units angstrom
no_reorient  #important for SAPT in psi4, default
symmetry c1  #important for SAPT in psi4, default
}

set PROPERTIES_ORIGIN ["COM"]
properties('MP2/aug-cc-pvtz', properties = ['dipole'])
--------------------------------------------------------------------------

    Molecular point group: c1
  Charge       = 0
  Multiplicity = 1
  Basis Set: AUG-CC-PVTZ
    Blend: AUG-CC-PVTZ
  Basis Set: (AUG-CC-PVTZ AUX)
    Blend: AUG-CC-PVTZ-JKFIT

    Orbital Energies [Eh]
    ---------------------

    Doubly Occupied:

       1A    -15.643338     2A    -15.582972     3A    -15.582682
       4A    -15.578828     5A    -11.367807     6A    -11.311826
       7A    -11.309707     8A    -11.287149     9A    -11.258204
      10A    -11.252784    11A    -11.234944    12A    -11.217824
      13A     -1.387197    14A     -1.312957    15A     -1.206284
      16A     -1.129685    17A     -1.084721    18A     -1.045037
      19A     -0.959205    20A     -0.909279    21A     -0.895856
      22A     -0.796619    23A     -0.795202    24A     -0.712861
      25A     -0.707640    26A     -0.681743    27A     -0.640628
      28A     -0.631863    29A     -0.606241    30A     -0.589637
      31A     -0.583270    32A     -0.574360    33A     -0.564480
      34A     -0.553002    35A     -0.531892    36A     -0.491944
      37A     -0.455749    38A     -0.430820    39A     -0.420643
      40A     -0.407860    41A     -0.337441    42A     -0.332909

  @DF-RHF Final Energy:  -525.53717777300062

   => Energetics <=

    Nuclear Repulsion Energy =            658.1178270029761279
    One-Electron Energy =               -2018.4998311388351340
    Two-Electron Energy =                 834.8448263628583845
    Total Energy =                       -525.5371777730006215
  Basis Set: (AUG-CC-PVTZ AUX)
    Blend: AUG-CC-PVTZ-RI
    Molecular point group: c1

    Geometry (in Angstrom), charge = 0, multiplicity = 1:

       Center              X                  Y                   Z               Mass
    ------------   -----------------  -----------------  -----------------  -----------------
         N            0.823202522480    -0.261720981646    -0.035305718413    14.003074004430
         N            1.365649522480    -1.489071981646    -0.264384718413    14.003074004430
         N           -1.074679477520     1.024862018354    -0.451050718413    14.003074004430
         N           -1.261526477520    -1.205888981646     0.431801281587    14.003074004430
         C            1.766818522480     0.732412018354     0.136294281587    12.000000000000
         C            2.985717522480     0.090518018354     0.010678281587    12.000000000000
         C           -0.583247477520    -0.142212981646    -0.015775718413    12.000000000000
         C            1.461044522480     2.162008018354     0.440733281587    12.000000000000
         C            2.686493522480    -1.261977981646    -0.237243718413    12.000000000000
         C           -2.413982477520     1.130121018354    -0.429157718413    12.000000000000
         C           -2.596813477520    -1.080219981646     0.406308281587    12.000000000000
         C           -3.234359477520     0.084224018354    -0.018550718413    12.000000000000
         H            3.959964522480     0.552225018354     0.101997281587     1.007825032230
         H            1.020294522480     2.676008018354    -0.415390718413     1.007825032230
         H            0.761549522480     2.257629018354     1.276087281587     1.007825032230
         H            2.393533522480     2.661831018354     0.716097281587     1.007825032230
         H            3.358953722480    -2.034163281646    -0.701913818413     1.007825032230
         H           -2.823378477520     2.078822018354    -0.770627718413     1.007825032230
         H           -3.161333477520    -1.942813981646     0.755212281587     1.007825032230
         H           -4.315573477520     0.173156018354    -0.022108718413     1.007825032230

  Basis Set: AUG-CC-PVTZ
    Blend: AUG-CC-PVTZ
  Basis Set: (AUG-CC-PVTZ AUX)
    Blend: AUG-CC-PVTZ-JKFIT
	 Reference Energy          =    -525.5371777730006215 [Eh]
	 Singles Energy            =      -0.0000000000000000 [Eh]
	 Same-Spin Energy          =      -0.5779764731742114 [Eh]
	 Opposite-Spin Energy      =      -1.7395773255855964 [Eh]
	 Correlation Energy        =      -2.3175537987598078 [Eh]
	 Total Energy              =    -527.8547315717604533 [Eh]

	 ================> DF-SCS-MP2 Energies <==================
	-----------------------------------------------------------
	 SCS Same-Spin Scale       =       0.3333333333333333 [-]
	 SCS Opposite-Spin Scale   =       1.2000000000000000 [-]
	 SCS Same-Spin Energy      =      -0.1926588243914038 [Eh]
	 SCS Opposite-Spin Energy  =      -2.0874927907027154 [Eh]
	 SCS Correlation Energy    =      -2.2801516150941192 [Eh]
	 SCS Total Energy          =    -527.8173293880947767 [Eh]
	-----------------------------------------------------------

  Dipole Moment: [D]
     X:    -2.6213      Y:     2.6506      Z:     0.2464     Total:     3.7360

*** Psi4 exiting successfully. Buy a developer a beer!
