                               Psi4 1.4a2.dev612

  ==> Input File <==

--------------------------------------------------------------------------
#psi4
#
memory 32 gb

molecule  {
0 1
  N        0.8160970    -0.2990240    -0.0443680
  N        1.3585440    -1.5263750    -0.2734470
  N       -1.0817850     0.9875590    -0.4601130
  N       -1.2686320    -1.2431920     0.4227390
  C        1.7597130     0.6951090     0.1272320
  C        2.9786120     0.0532150     0.0016160
  C       -0.5903530    -0.1795160    -0.0248380
  C        1.4566868     2.0758305     0.6768316
  C        2.6793880    -1.2992810    -0.2463060
  C       -2.4210880     1.0928180    -0.4382200
  C       -2.6039190    -1.1175230     0.3972460
  C       -3.2414650     0.0469210    -0.0276130
  H        3.9528590     0.5149220     0.0929350
  H        1.0131890     2.6387050    -0.4244530
  H        0.7544440     2.2203260     1.2670250
  H        2.3864280     2.6245280     0.7070350
  H        3.3561510    -2.1272050    -0.4162310
  H       -2.8304840     2.0415190    -0.7796900
  H       -3.1684390    -1.9801170     0.7461500
  H       -4.3226790     0.1358530    -0.0311710
units angstrom
no_reorient  #important for SAPT in psi4, default
symmetry c1  #important for SAPT in psi4, default
}

set PROPERTIES_ORIGIN ["COM"]
properties('MP2/aug-cc-pvtz', properties = ['dipole'])
--------------------------------------------------------------------------

    Molecular point group: c1
  Charge       = 0
  Multiplicity = 1
  Basis Set: AUG-CC-PVTZ
    Blend: AUG-CC-PVTZ
  Basis Set: (AUG-CC-PVTZ AUX)
    Blend: AUG-CC-PVTZ-JKFIT

    Orbital Energies [Eh]
    ---------------------

    Doubly Occupied:

       1A    -15.642047     2A    -15.582043     3A    -15.581708
       4A    -15.578705     5A    -11.367438     6A    -11.311379
       7A    -11.309519     8A    -11.291580     9A    -11.255271
      10A    -11.252670    11A    -11.243049    12A    -11.218002
      13A     -1.386596    14A     -1.312611    15A     -1.205909
      16A     -1.129522    17A     -1.084024    18A     -1.045180
      19A     -0.964797    20A     -0.908999    21A     -0.897095
      22A     -0.801055    23A     -0.795753    24A     -0.719855
      25A     -0.710228    26A     -0.688543    27A     -0.641745
      28A     -0.633658    29A     -0.618698    30A     -0.600118
      31A     -0.588517    32A     -0.575960    33A     -0.563525
      34A     -0.555889    35A     -0.507273    36A     -0.475620
      37A     -0.455538    38A     -0.430549    39A     -0.419386
      40A     -0.407766    41A     -0.338338    42A     -0.326560

  @DF-RHF Final Energy:  -525.48500458985279

   => Energetics <=

    Nuclear Repulsion Energy =            657.8174312066770426
    One-Electron Energy =               -2017.7594351936634212
    Two-Electron Energy =                 834.4569993971336999
    Total Energy =                       -525.4850045898527924
  Basis Set: (AUG-CC-PVTZ AUX)
    Blend: AUG-CC-PVTZ-RI
    Molecular point group: c1

    Geometry (in Angstrom), charge = 0, multiplicity = 1:

       Center              X                  Y                   Z               Mass
    ------------   -----------------  -----------------  -----------------  -----------------
         N            0.822969443650    -0.257706180624    -0.055539863587    14.003074004430
         N            1.365416443650    -1.485057180624    -0.284618863587    14.003074004430
         N           -1.074912556350     1.028876819376    -0.471284863587    14.003074004430
         N           -1.261759556350    -1.201874180624     0.411567136413    14.003074004430
         C            1.766585443650     0.736426819376     0.116060136413    12.000000000000
         C            2.985484443650     0.094532819376    -0.009555863587    12.000000000000
         C           -0.583480556350    -0.138198180624    -0.036009863587    12.000000000000
         C            1.463559243650     2.117148319376     0.665659736413    12.000000000000
         C            2.686260443650    -1.257963180624    -0.257477863587    12.000000000000
         C           -2.414215556350     1.134135819376    -0.449391863587    12.000000000000
         C           -2.597046556350    -1.076205180624     0.386074136413    12.000000000000
         C           -3.234592556350     0.088238819376    -0.038784863587    12.000000000000
         H            3.959731443650     0.556239819376     0.081763136413     1.007825032230
         H            1.020061443650     2.680022819376    -0.435624863587     1.007825032230
         H            0.761316443650     2.261643819376     1.255853136413     1.007825032230
         H            2.393300443650     2.665845819376     0.695863136413     1.007825032230
         H            3.363023443650    -2.085887180624    -0.427402863587     1.007825032230
         H           -2.823611556350     2.082836819376    -0.790861863587     1.007825032230
         H           -3.161566556350    -1.938799180624     0.734978136413     1.007825032230
         H           -4.315806556350     0.177170819376    -0.042342863587     1.007825032230

  Basis Set: AUG-CC-PVTZ
    Blend: AUG-CC-PVTZ
  Basis Set: (AUG-CC-PVTZ AUX)
    Blend: AUG-CC-PVTZ-JKFIT
	 Reference Energy          =    -525.4850045898527924 [Eh]
	 Singles Energy            =      -0.0000000000000000 [Eh]
	 Same-Spin Energy          =      -0.5784750087547045 [Eh]
	 Opposite-Spin Energy      =      -1.7413388803895340 [Eh]
	 Correlation Energy        =      -2.3198138891442386 [Eh]
	 Total Energy              =    -527.8048184789970492 [Eh]

	 ================> DF-SCS-MP2 Energies <==================
	-----------------------------------------------------------
	 SCS Same-Spin Scale       =       0.3333333333333333 [-]
	 SCS Opposite-Spin Scale   =       1.2000000000000000 [-]
	 SCS Same-Spin Energy      =      -0.1928250029182348 [Eh]
	 SCS Opposite-Spin Energy  =      -2.0896066564674407 [Eh]
	 SCS Correlation Energy    =      -2.2824316593856757 [Eh]
	 SCS Total Energy          =    -527.7674362492384716 [Eh]
	-----------------------------------------------------------

  Dipole Moment: [D]
     X:    -2.5482      Y:     2.4856      Z:     0.5482     Total:     3.6017

*** Psi4 exiting successfully. Buy a developer a beer!
