                               Psi4 1.4a2.dev612

  ==> Input File <==

--------------------------------------------------------------------------
#psi4
#
memory 32 gb

molecule  {
0 1
  N        0.8160970    -0.2990240    -0.0443680
  N        1.3585440    -1.5263750    -0.2734470
  N       -1.0817850     0.9875590    -0.4601130
  N       -1.2686320    -1.2431920     0.4227390
  C        1.7597130     0.6951090     0.1272320
  C        2.9786120     0.0532150     0.0016160
  C       -0.5903530    -0.1795160    -0.0248380
  C        1.4539390     2.1247050     0.4316710
  C        2.6793880    -1.2992810    -0.2463060
  C       -2.4210880     1.0928180    -0.4382200
  C       -2.6039190    -1.1175230     0.3972460
  C       -3.2414650     0.0469210    -0.0276130
  H        3.9528590     0.5149220     0.0929350
  H        1.0131890     2.6387050    -0.4244530
  H        0.7544440     2.2203260     1.2670250
  H        2.3864280     2.6245280     0.7070350
  H        3.3561510    -2.1272050    -0.4162310
  H       -2.8379073     1.9723465    -0.9672002
  H       -3.1684390    -1.9801170     0.7461500
  H       -4.3226790     0.1358530    -0.0311710
units angstrom
no_reorient  #important for SAPT in psi4, default
symmetry c1  #important for SAPT in psi4, default
}

set PROPERTIES_ORIGIN ["COM"]
properties('MP2/aug-cc-pvtz', properties = ['dipole'])
--------------------------------------------------------------------------

    Molecular point group: c1
  Charge       = 0
  Multiplicity = 1
  Basis Set: AUG-CC-PVTZ
    Blend: AUG-CC-PVTZ
  Basis Set: (AUG-CC-PVTZ AUX)
    Blend: AUG-CC-PVTZ-JKFIT

    Orbital Energies [Eh]
    ---------------------

    Doubly Occupied:

       1A    -15.642228     2A    -15.582835     3A    -15.581517
       4A    -15.578854     5A    -11.367575     6A    -11.313288
       7A    -11.309574     8A    -11.286823     9A    -11.254626
      10A    -11.252928    11A    -11.234748    12A    -11.217382
      13A     -1.386441    14A     -1.312721    15A     -1.206138
      16A     -1.129410    17A     -1.084278    18A     -1.045012
      19A     -0.958855    20A     -0.907870    21A     -0.896519
      22A     -0.799172    23A     -0.795107    24A     -0.712638
      25A     -0.707125    26A     -0.682346    27A     -0.638806
      28A     -0.632811    29A     -0.604430    30A     -0.589880
      31A     -0.588102    32A     -0.572162    33A     -0.564019
      34A     -0.552877    35A     -0.535985    36A     -0.491863
      37A     -0.454844    38A     -0.432202    39A     -0.419457
      40A     -0.407189    41A     -0.337888    42A     -0.332448

  @DF-RHF Final Energy:  -525.54071614857253

   => Energetics <=

    Nuclear Repulsion Energy =            658.1839027854766755
    One-Electron Energy =               -2018.6472889278218190
    Two-Electron Energy =                 834.9226699937726153
    Total Energy =                       -525.5407161485725283
  Basis Set: (AUG-CC-PVTZ AUX)
    Blend: AUG-CC-PVTZ-RI
    Molecular point group: c1

    Geometry (in Angstrom), charge = 0, multiplicity = 1:

       Center              X                  Y                   Z               Mass
    ------------   -----------------  -----------------  -----------------  -----------------
         N            0.823222169021    -0.260934545814    -0.035980864979    14.003074004430
         N            1.365669169021    -1.488285545814    -0.265059864979    14.003074004430
         N           -1.074659830979     1.025648454186    -0.451725864979    14.003074004430
         N           -1.261506830979    -1.205102545814     0.431126135021    14.003074004430
         C            1.766838169021     0.733198454186     0.135619135021    12.000000000000
         C            2.985737169021     0.091304454186     0.010003135021    12.000000000000
         C           -0.583227830979    -0.141426545814    -0.016450864979    12.000000000000
         C            1.461064169021     2.162794454186     0.440058135021    12.000000000000
         C            2.686513169021    -1.261191545814    -0.237918864979    12.000000000000
         C           -2.413962830979     1.130907454186    -0.429832864979    12.000000000000
         C           -2.596793830979    -1.079433545814     0.405633135021    12.000000000000
         C           -3.234339830979     0.085010454186    -0.019225864979    12.000000000000
         H            3.959984169021     0.553011454186     0.101322135021     1.007825032230
         H            1.020314169021     2.676794454186    -0.416065864979     1.007825032230
         H            0.761569169021     2.258415454186     1.275412135021     1.007825032230
         H            2.393553169021     2.662617454186     0.715422135021     1.007825032230
         H            3.363276169021    -2.089115545814    -0.407843864979     1.007825032230
         H           -2.830782130979     2.010435954186    -0.958813064979     1.007825032230
         H           -3.161313830979    -1.942027545814     0.754537135021     1.007825032230
         H           -4.315553830979     0.173942454186    -0.022783864979     1.007825032230

  Basis Set: AUG-CC-PVTZ
    Blend: AUG-CC-PVTZ
  Basis Set: (AUG-CC-PVTZ AUX)
    Blend: AUG-CC-PVTZ-JKFIT
	 Reference Energy          =    -525.5407161485725283 [Eh]
	 Singles Energy            =      -0.0000000000000000 [Eh]
	 Same-Spin Energy          =      -0.5777424273232743 [Eh]
	 Opposite-Spin Energy      =      -1.7390106615719001 [Eh]
	 Correlation Energy        =      -2.3167530888951742 [Eh]
	 Total Energy              =    -527.8574692374677397 [Eh]

	 ================> DF-SCS-MP2 Energies <==================
	-----------------------------------------------------------
	 SCS Same-Spin Scale       =       0.3333333333333333 [-]
	 SCS Opposite-Spin Scale   =       1.2000000000000000 [-]
	 SCS Same-Spin Energy      =      -0.1925808091077581 [Eh]
	 SCS Opposite-Spin Energy  =      -2.0868127938862799 [Eh]
	 SCS Correlation Energy    =      -2.2793936029940380 [Eh]
	 SCS Total Energy          =    -527.8201097515665197 [Eh]
	-----------------------------------------------------------

  Dipole Moment: [D]
     X:    -2.5614      Y:     2.4987      Z:     0.3587     Total:     3.5962

*** Psi4 exiting successfully. Buy a developer a beer!
