                               Psi4 1.4a2.dev612

  ==> Input File <==

--------------------------------------------------------------------------
#psi4
#
memory 32 gb

molecule  {
0 1
  N        0.8160970    -0.2990240    -0.0443680
  N        1.3585440    -1.5263750    -0.2734470
  N       -1.0817850     0.9875590    -0.4601130
  N       -1.2686320    -1.2431920     0.4227390
  C        1.7597130     0.6951090     0.1272320
  C        2.9786120     0.0532150     0.0016160
  C       -0.5903530    -0.1795160    -0.0248380
  C        1.4539390     2.1247050     0.4316710
  C        2.6793880    -1.2992810    -0.2463060
  C       -2.4210880     1.0928180    -0.4382200
  C       -2.6039190    -1.1175230     0.3972460
  C       -3.2414650     0.0469210    -0.0276130
  H        3.9528590     0.5149220     0.0929350
  H        1.0131890     2.6387050    -0.4244530
  H        0.7544440     2.2203260     1.2670250
  H        2.3864280     2.6245280     0.7070350
  H        3.3561510    -2.1272050    -0.4162310
  H       -2.8304840     2.0415190    -0.7796900
  H       -3.1684390    -1.9801170     0.7461500
  H       -4.3250069     0.1006745    -0.1247501
units angstrom
no_reorient  #important for SAPT in psi4, default
symmetry c1  #important for SAPT in psi4, default
}

set PROPERTIES_ORIGIN ["COM"]
properties('MP2/aug-cc-pvtz', properties = ['dipole'])
--------------------------------------------------------------------------

    Molecular point group: c1
  Charge       = 0
  Multiplicity = 1
  Basis Set: AUG-CC-PVTZ
    Blend: AUG-CC-PVTZ
  Basis Set: (AUG-CC-PVTZ AUX)
    Blend: AUG-CC-PVTZ-JKFIT

    Orbital Energies [Eh]
    ---------------------

    Doubly Occupied:

       1A    -15.642167     2A    -15.582514     3A    -15.581481
       4A    -15.578641     5A    -11.367473     6A    -11.311643
       7A    -11.309474     8A    -11.286801     9A    -11.254600
      10A    -11.253008    11A    -11.234708    12A    -11.217340
      13A     -1.386373    14A     -1.312597    15A     -1.206078
      16A     -1.129417    17A     -1.084220    18A     -1.044907
      19A     -0.958812    20A     -0.909095    21A     -0.896434
      22A     -0.800169    23A     -0.795258    24A     -0.713114
      25A     -0.707222    26A     -0.681955    27A     -0.638590
      28A     -0.632681    29A     -0.607258    30A     -0.589557
      31A     -0.586822    32A     -0.575067    33A     -0.563992
      34A     -0.552462    35A     -0.535907    36A     -0.491684
      37A     -0.455136    38A     -0.430505    39A     -0.420262
      40A     -0.407530    41A     -0.338106    42A     -0.332397

  @DF-RHF Final Energy:  -525.54304209088127

   => Energetics <=

    Nuclear Repulsion Energy =            658.2567155456339378
    One-Electron Energy =               -2018.7926057823256087
    Two-Electron Energy =                 834.9928481458102851
    Total Energy =                       -525.5430420908812721
  Basis Set: (AUG-CC-PVTZ AUX)
    Blend: AUG-CC-PVTZ-RI
    Molecular point group: c1

    Geometry (in Angstrom), charge = 0, multiplicity = 1:

       Center              X                  Y                   Z               Mass
    ------------   -----------------  -----------------  -----------------  -----------------
         N            0.823190088590    -0.261148570655    -0.036572251362    14.003074004430
         N            1.365637088590    -1.488499570655    -0.265651251362    14.003074004430
         N           -1.074691911410     1.025434429345    -0.452317251362    14.003074004430
         N           -1.261538911410    -1.205316570655     0.430534748638    14.003074004430
         C            1.766806088590     0.732984429345     0.135027748638    12.000000000000
         C            2.985705088590     0.091090429345     0.009411748638    12.000000000000
         C           -0.583259911410    -0.141640570655    -0.017042251362    12.000000000000
         C            1.461032088590     2.162580429345     0.439466748638    12.000000000000
         C            2.686481088590    -1.261405570655    -0.238510251362    12.000000000000
         C           -2.413994911410     1.130693429345    -0.430424251362    12.000000000000
         C           -2.596825911410    -1.079647570655     0.405041748638    12.000000000000
         C           -3.234371911410     0.084796429345    -0.019817251362    12.000000000000
         H            3.959952088590     0.552797429345     0.100730748638     1.007825032230
         H            1.020282088590     2.676580429345    -0.416657251362     1.007825032230
         H            0.761537088590     2.258201429345     1.274820748638     1.007825032230
         H            2.393521088590     2.662403429345     0.714830748638     1.007825032230
         H            3.363244088590    -2.089329570655    -0.408435251362     1.007825032230
         H           -2.823390911410     2.079394429345    -0.771894251362     1.007825032230
         H           -3.161345911410    -1.942241570655     0.753945748638     1.007825032230
         H           -4.317913811410     0.138549929345    -0.116954351362     1.007825032230

  Basis Set: AUG-CC-PVTZ
    Blend: AUG-CC-PVTZ
  Basis Set: (AUG-CC-PVTZ AUX)
    Blend: AUG-CC-PVTZ-JKFIT
	 Reference Energy          =    -525.5430420908812721 [Eh]
	 Singles Energy            =      -0.0000000000000000 [Eh]
	 Same-Spin Energy          =      -0.5775767046250511 [Eh]
	 Opposite-Spin Energy      =      -1.7386675798560784 [Eh]
	 Correlation Energy        =      -2.3162442844811295 [Eh]
	 Total Energy              =    -527.8592863753624442 [Eh]

	 ================> DF-SCS-MP2 Energies <==================
	-----------------------------------------------------------
	 SCS Same-Spin Scale       =       0.3333333333333333 [-]
	 SCS Opposite-Spin Scale   =       1.2000000000000000 [-]
	 SCS Same-Spin Energy      =      -0.1925255682083503 [Eh]
	 SCS Opposite-Spin Energy  =      -2.0864010958272940 [Eh]
	 SCS Correlation Energy    =      -2.2789266640356445 [Eh]
	 SCS Total Energy          =    -527.8219687549169521 [Eh]
	-----------------------------------------------------------

  Dipole Moment: [D]
     X:    -2.5717      Y:     2.5340      Z:     0.3796     Total:     3.6302

*** Psi4 exiting successfully. Buy a developer a beer!
