                               Psi4 1.4a2.dev612

  ==> Input File <==

--------------------------------------------------------------------------
#psi4
#
memory 32 gb

molecule  {
0 1
  N        0.8160970    -0.2990240    -0.0443680
  N        1.3585440    -1.5263750    -0.2734470
  N       -1.0817850     0.9875590    -0.4601130
  N       -1.2621316    -1.1885159     0.5622678
  C        1.7597130     0.6951090     0.1272320
  C        2.9786120     0.0532150     0.0016160
  C       -0.5903530    -0.1795160    -0.0248380
  C        1.4539390     2.1247050     0.4316710
  C        2.6793880    -1.2992810    -0.2463060
  C       -2.4210880     1.0928180    -0.4382200
  C       -2.6039190    -1.1175230     0.3972460
  C       -3.2414650     0.0469210    -0.0276130
  H        3.9528590     0.5149220     0.0929350
  H        1.0131890     2.6387050    -0.4244530
  H        0.7544440     2.2203260     1.2670250
  H        2.3864280     2.6245280     0.7070350
  H        3.3561510    -2.1272050    -0.4162310
  H       -2.8304840     2.0415190    -0.7796900
  H       -3.1684390    -1.9801170     0.7461500
  H       -4.3226790     0.1358530    -0.0311710
units angstrom
no_reorient  #important for SAPT in psi4, default
symmetry c1  #important for SAPT in psi4, default
}

set PROPERTIES_ORIGIN ["COM"]
properties('MP2/aug-cc-pvtz', properties = ['dipole'])
--------------------------------------------------------------------------

    Molecular point group: c1
  Charge       = 0
  Multiplicity = 1
  Basis Set: AUG-CC-PVTZ
    Blend: AUG-CC-PVTZ
  Basis Set: (AUG-CC-PVTZ AUX)
    Blend: AUG-CC-PVTZ-JKFIT

    Orbital Energies [Eh]
    ---------------------

    Doubly Occupied:

       1A    -15.641775     2A    -15.583110     3A    -15.581935
       4A    -15.581485     5A    -11.368309     6A    -11.312034
       7A    -11.311350     8A    -11.286571     9A    -11.254410
      10A    -11.253578    11A    -11.234598    12A    -11.217283
      13A     -1.385791    14A     -1.311051    15A     -1.203536
      16A     -1.129345    17A     -1.083884    18A     -1.045248
      19A     -0.958713    20A     -0.908588    21A     -0.894998
      22A     -0.799211    23A     -0.795569    24A     -0.712699
      25A     -0.706788    26A     -0.682993    27A     -0.635129
      28A     -0.634016    29A     -0.607535    30A     -0.589263
      31A     -0.586195    32A     -0.574067    33A     -0.563871
      34A     -0.552694    35A     -0.535689    36A     -0.492970
      37A     -0.454643    38A     -0.434826    39A     -0.416040
      40A     -0.405460    41A     -0.339667    42A     -0.332406

  @DF-RHF Final Energy:  -525.53805926293217

   => Energetics <=

    Nuclear Repulsion Energy =            657.8882248832718460
    One-Electron Energy =               -2018.0539214404993800
    Two-Electron Energy =                 834.6276372942952548
    Total Energy =                       -525.5380592629321654
  Basis Set: (AUG-CC-PVTZ AUX)
    Blend: AUG-CC-PVTZ-RI
    Molecular point group: c1

    Geometry (in Angstrom), charge = 0, multiplicity = 1:

       Center              X                  Y                   Z               Mass
    ------------   -----------------  -----------------  -----------------  -----------------
         N            0.822606788521    -0.266153023359    -0.049367158742    14.003074004430
         N            1.365053788521    -1.493504023359    -0.278446158742    14.003074004430
         N           -1.075275211479     1.020429976641    -0.465112158742    14.003074004430
         N           -1.255621811479    -1.155644923359     0.557268641258    14.003074004430
         C            1.766222788521     0.727979976641     0.122232841258    12.000000000000
         C            2.985121788521     0.086085976641    -0.003383158742    12.000000000000
         C           -0.583843211479    -0.146645023359    -0.029837158742    12.000000000000
         C            1.460448788521     2.157575976641     0.426671841258    12.000000000000
         C            2.685897788521    -1.266410023359    -0.251305158742    12.000000000000
         C           -2.414578211479     1.125688976641    -0.443219158742    12.000000000000
         C           -2.597409211479    -1.084652023359     0.392246841258    12.000000000000
         C           -3.234955211479     0.079791976641    -0.032612158742    12.000000000000
         H            3.959368788521     0.547792976641     0.087935841258     1.007825032230
         H            1.019698788521     2.671575976641    -0.429452158742     1.007825032230
         H            0.760953788521     2.253196976641     1.262025841258     1.007825032230
         H            2.392937788521     2.657398976641     0.702035841258     1.007825032230
         H            3.362660788521    -2.094334023359    -0.421230158742     1.007825032230
         H           -2.823974211479     2.074389976641    -0.784689158742     1.007825032230
         H           -3.161929211479    -1.947246023359     0.741150841258     1.007825032230
         H           -4.316169211479     0.168723976641    -0.036170158742     1.007825032230

  Basis Set: AUG-CC-PVTZ
    Blend: AUG-CC-PVTZ
  Basis Set: (AUG-CC-PVTZ AUX)
    Blend: AUG-CC-PVTZ-JKFIT
	 Reference Energy          =    -525.5380592629321654 [Eh]
	 Singles Energy            =      -0.0000000000000000 [Eh]
	 Same-Spin Energy          =      -0.5779402867484954 [Eh]
	 Opposite-Spin Energy      =      -1.7397699311500487 [Eh]
	 Correlation Energy        =      -2.3177102178985440 [Eh]
	 Total Energy              =    -527.8557694808307588 [Eh]

	 ================> DF-SCS-MP2 Energies <==================
	-----------------------------------------------------------
	 SCS Same-Spin Scale       =       0.3333333333333333 [-]
	 SCS Opposite-Spin Scale   =       1.2000000000000000 [-]
	 SCS Same-Spin Energy      =      -0.1926467622494984 [Eh]
	 SCS Opposite-Spin Energy  =      -2.0877239173800586 [Eh]
	 SCS Correlation Energy    =      -2.2803706796295571 [Eh]
	 SCS Total Energy          =    -527.8184299425616928 [Eh]
	-----------------------------------------------------------

  Dipole Moment: [D]
     X:    -2.6078      Y:     2.5287      Z:     0.3149     Total:     3.6461

*** Psi4 exiting successfully. Buy a developer a beer!
