                               Psi4 1.4a2.dev612

  ==> Input File <==

--------------------------------------------------------------------------
#psi4
#
memory 32 gb

molecule  {
0 1
  N        0.8160970    -0.2990240    -0.0443680
  N        1.3585440    -1.5263750    -0.2734470
  N       -1.0817850     0.9875590    -0.4601130
  N       -1.2686320    -1.2431920     0.4227390
  C        1.7597130     0.6951090     0.1272320
  C        2.9786120     0.0532150     0.0016160
  C       -0.5903530    -0.1795160    -0.0248380
  C        1.4539390     2.1247050     0.4316710
  C        2.6793880    -1.2992810    -0.2463060
  C       -2.4210880     1.0928180    -0.4382200
  C       -2.6039190    -1.1175230     0.3972460
  C       -3.2414650     0.0469210    -0.0276130
  H        3.9528590     0.5149220     0.0929350
  H        1.0131890     2.6387050    -0.4244530
  H        0.7544440     2.2203260     1.2670250
  H        2.3864280     2.6245280     0.7070350
  H        3.3554339    -2.1179152    -0.4653552
  H       -2.8304840     2.0415190    -0.7796900
  H       -3.1684390    -1.9801170     0.7461500
  H       -4.3226790     0.1358530    -0.0311710
units angstrom
no_reorient  #important for SAPT in psi4, default
symmetry c1  #important for SAPT in psi4, default
}

set PROPERTIES_ORIGIN ["COM"]
properties('MP2/aug-cc-pvtz', properties = ['dipole'])
--------------------------------------------------------------------------

    Molecular point group: c1
  Charge       = 0
  Multiplicity = 1
  Basis Set: AUG-CC-PVTZ
    Blend: AUG-CC-PVTZ
  Basis Set: (AUG-CC-PVTZ AUX)
    Blend: AUG-CC-PVTZ-JKFIT

    Orbital Energies [Eh]
    ---------------------

    Doubly Occupied:

       1A    -15.642199     2A    -15.582410     3A    -15.581550
       4A    -15.578628     5A    -11.367408     6A    -11.311533
       7A    -11.309476     8A    -11.286775     9A    -11.254674
      10A    -11.252657    11A    -11.234713    12A    -11.217348
      13A     -1.386374    14A     -1.312554    15A     -1.206022
      16A     -1.129418    17A     -1.084238    18A     -1.045008
      19A     -0.958817    20A     -0.909059    21A     -0.896522
      22A     -0.799995    23A     -0.795253    24A     -0.713091
      25A     -0.707383    26A     -0.682491    27A     -0.638672
      28A     -0.633225    29A     -0.607063    30A     -0.589601
      31A     -0.586227    32A     -0.575247    33A     -0.564022
      34A     -0.552691    35A     -0.535762    36A     -0.491656
      37A     -0.455124    38A     -0.430514    39A     -0.420227
      40A     -0.407822    41A     -0.337958    42A     -0.332423

  @DF-RHF Final Energy:  -525.54345670689702

   => Energetics <=

    Nuclear Repulsion Energy =            658.2701263185547305
    One-Electron Energy =               -2018.8195083494124447
    Two-Electron Energy =                 835.0059253239606960
    Total Energy =                       -525.5434567068970182
  Basis Set: (AUG-CC-PVTZ AUX)
    Blend: AUG-CC-PVTZ-RI
    Molecular point group: c1

    Geometry (in Angstrom), charge = 0, multiplicity = 1:

       Center              X                  Y                   Z               Mass
    ------------   -----------------  -----------------  -----------------  -----------------
         N            0.823179947059    -0.261428541262    -0.036852137603    14.003074004430
         N            1.365626947059    -1.488779541262    -0.265931137603    14.003074004430
         N           -1.074702052941     1.025154458738    -0.452597137603    14.003074004430
         N           -1.261549052941    -1.205596541262     0.430254862397    14.003074004430
         C            1.766795947059     0.732704458738     0.134747862397    12.000000000000
         C            2.985694947059     0.090810458738     0.009131862397    12.000000000000
         C           -0.583270052941    -0.141920541262    -0.017322137603    12.000000000000
         C            1.461021947059     2.162300458738     0.439186862397    12.000000000000
         C            2.686470947059    -1.261685541262    -0.238790137603    12.000000000000
         C           -2.414005052941     1.130413458738    -0.430704137603    12.000000000000
         C           -2.596836052941    -1.079927541262     0.404761862397    12.000000000000
         C           -3.234382052941     0.084516458738    -0.020097137603    12.000000000000
         H            3.959941947059     0.552517458738     0.100450862397     1.007825032230
         H            1.020271947059     2.676300458738    -0.416937137603     1.007825032230
         H            0.761526947059     2.257921458738     1.274540862397     1.007825032230
         H            2.393510947059     2.662123458738     0.714550862397     1.007825032230
         H            3.362516847059    -2.080319741262    -0.457839337603     1.007825032230
         H           -2.823401052941     2.079114458738    -0.772174137603     1.007825032230
         H           -3.161356052941    -1.942521541262     0.753665862397     1.007825032230
         H           -4.315596052941     0.173448458738    -0.023655137603     1.007825032230

  Basis Set: AUG-CC-PVTZ
    Blend: AUG-CC-PVTZ
  Basis Set: (AUG-CC-PVTZ AUX)
    Blend: AUG-CC-PVTZ-JKFIT
	 Reference Energy          =    -525.5434567068970182 [Eh]
	 Singles Energy            =      -0.0000000000000000 [Eh]
	 Same-Spin Energy          =      -0.5775759273005079 [Eh]
	 Opposite-Spin Energy      =      -1.7386612078630341 [Eh]
	 Correlation Energy        =      -2.3162371351635418 [Eh]
	 Total Energy              =    -527.8596938420605511 [Eh]

	 ================> DF-SCS-MP2 Energies <==================
	-----------------------------------------------------------
	 SCS Same-Spin Scale       =       0.3333333333333333 [-]
	 SCS Opposite-Spin Scale   =       1.2000000000000000 [-]
	 SCS Same-Spin Energy      =      -0.1925253091001693 [Eh]
	 SCS Opposite-Spin Energy  =      -2.0863934494356409 [Eh]
	 SCS Correlation Energy    =      -2.2789187585358102 [Eh]
	 SCS Total Energy          =    -527.8223754654328559 [Eh]
	-----------------------------------------------------------

  Dipole Moment: [D]
     X:    -2.5770      Y:     2.5632      Z:     0.4054     Total:     3.6572

*** Psi4 exiting successfully. Buy a developer a beer!
