                               Psi4 1.4a2.dev612

  ==> Input File <==

--------------------------------------------------------------------------
#psi4
#
memory 32 gb

molecule  {
0 1
  N        0.8160970    -0.2990240    -0.0443680
  N        1.3585440    -1.5263750    -0.2734470
  N       -1.0817850     0.9875590    -0.4601130
  N       -1.2686320    -1.2431920     0.4227390
  C        1.7597130     0.6951090     0.1272320
  C        2.9786120     0.0532150     0.0016160
  C       -0.5903530    -0.1795160    -0.0248380
  C        1.4539390     2.1247050     0.4316710
  C        2.6793880    -1.2992810    -0.2463060
  C       -2.4210880     1.0928180    -0.4382200
  C       -2.6039190    -1.1175230     0.3972460
  C       -3.2414650     0.0469210    -0.0276130
  H        3.9528590     0.5149220     0.0929350
  H        1.0131890     2.6387050    -0.4244530
  H        0.7544440     2.2203260     1.2670250
  H        2.3864280     2.6245280     0.7070350
  H        3.3561510    -2.1272050    -0.4162310
  H       -2.8304840     2.0415190    -0.7796900
  H       -3.1633356    -1.8908195     0.9796022
  H       -4.3226790     0.1358530    -0.0311710
units angstrom
no_reorient  #important for SAPT in psi4, default
symmetry c1  #important for SAPT in psi4, default
}

set PROPERTIES_ORIGIN ["COM"]
properties('MP2/aug-cc-pvtz', properties = ['dipole'])
--------------------------------------------------------------------------

    Molecular point group: c1
  Charge       = 0
  Multiplicity = 1
  Basis Set: AUG-CC-PVTZ
    Blend: AUG-CC-PVTZ
  Basis Set: (AUG-CC-PVTZ AUX)
    Blend: AUG-CC-PVTZ-JKFIT

    Orbital Energies [Eh]
    ---------------------

    Doubly Occupied:

       1A    -15.642303     2A    -15.582622     3A    -15.581640
       4A    -15.579325     5A    -11.367706     6A    -11.312387
       7A    -11.311648     8A    -11.286870     9A    -11.254704
      10A    -11.253098    11A    -11.234801    12A    -11.217453
      13A     -1.386526    14A     -1.312810    15A     -1.206184
      16A     -1.129505    17A     -1.084276    18A     -1.045076
      19A     -0.958911    20A     -0.907422    21A     -0.896452
      22A     -0.800001    23A     -0.793645    24A     -0.713168
      25A     -0.706477    26A     -0.682465    27A     -0.639542
      28A     -0.632339    29A     -0.603910    30A     -0.588689
      31A     -0.587744    32A     -0.572585    33A     -0.564077
      34A     -0.552489    35A     -0.536041    36A     -0.491880
      37A     -0.455558    38A     -0.430371    39A     -0.420795
      40A     -0.406995    41A     -0.337818    42A     -0.332538

  @DF-RHF Final Energy:  -525.53895058955902

   => Energetics <=

    Nuclear Repulsion Energy =            658.1607476987044265
    One-Electron Energy =               -2018.5977090103372120
    Two-Electron Energy =                 834.8980107220737636
    Total Energy =                       -525.5389505895590219
  Basis Set: (AUG-CC-PVTZ AUX)
    Blend: AUG-CC-PVTZ-RI
    Molecular point group: c1

    Geometry (in Angstrom), charge = 0, multiplicity = 1:

       Center              X                  Y                   Z               Mass
    ------------   -----------------  -----------------  -----------------  -----------------
         N            0.823143301428    -0.261932266485    -0.038631227117    14.003074004430
         N            1.365590301428    -1.489283266485    -0.267710227117    14.003074004430
         N           -1.074738698572     1.024650733515    -0.454376227117    14.003074004430
         N           -1.261585698572    -1.206100266485     0.428475772883    14.003074004430
         C            1.766759301428     0.732200733515     0.132968772883    12.000000000000
         C            2.985658301428     0.090306733515     0.007352772883    12.000000000000
         C           -0.583306698572    -0.142424266485    -0.019101227117    12.000000000000
         C            1.460985301428     2.161796733515     0.437407772883    12.000000000000
         C            2.686434301428    -1.262189266485    -0.240569227117    12.000000000000
         C           -2.414041698572     1.129909733515    -0.432483227117    12.000000000000
         C           -2.596872698572    -1.080431266485     0.402982772883    12.000000000000
         C           -3.234418698572     0.084012733515    -0.021876227117    12.000000000000
         H            3.959905301428     0.552013733515     0.098671772883     1.007825032230
         H            1.020235301428     2.675796733515    -0.418716227117     1.007825032230
         H            0.761490301428     2.257417733515     1.272761772883     1.007825032230
         H            2.393474301428     2.661619733515     0.712771772883     1.007825032230
         H            3.363197301428    -2.090113266485    -0.410494227117     1.007825032230
         H           -2.823437698572     2.078610733515    -0.773953227117     1.007825032230
         H           -3.156289298572    -1.853727766485     0.985338972883     1.007825032230
         H           -4.315632698572     0.172944733515    -0.025434227117     1.007825032230

  Basis Set: AUG-CC-PVTZ
    Blend: AUG-CC-PVTZ
  Basis Set: (AUG-CC-PVTZ AUX)
    Blend: AUG-CC-PVTZ-JKFIT
	 Reference Energy          =    -525.5389505895590219 [Eh]
	 Singles Energy            =      -0.0000000000000000 [Eh]
	 Same-Spin Energy          =      -0.5778497380172999 [Eh]
	 Opposite-Spin Energy      =      -1.7392618077439219 [Eh]
	 Correlation Energy        =      -2.3171115457612217 [Eh]
	 Total Energy              =    -527.8560621353202578 [Eh]

	 ================> DF-SCS-MP2 Energies <==================
	-----------------------------------------------------------
	 SCS Same-Spin Scale       =       0.3333333333333333 [-]
	 SCS Opposite-Spin Scale   =       1.2000000000000000 [-]
	 SCS Same-Spin Energy      =      -0.1926165793391000 [Eh]
	 SCS Opposite-Spin Energy  =      -2.0871141692927062 [Eh]
	 SCS Correlation Energy    =      -2.2797307486318061 [Eh]
	 SCS Total Energy          =    -527.8186813381907996 [Eh]
	-----------------------------------------------------------

  Dipole Moment: [D]
     X:    -2.5394      Y:     2.6280      Z:     0.5368     Total:     3.6936

*** Psi4 exiting successfully. Buy a developer a beer!
