                               Psi4 1.3.2 release

  ==> Input File <==

--------------------------------------------------------------------------
#psi4
#
memory 32 gb

molecule  {
0 1
  S       -0.0000030     0.5344770     0.0000290
  O       -0.2465190     1.2674450    -1.2581730
  O        0.3363286     1.2171046     1.2657240
  C        1.4260810    -0.5455830    -0.2807810
  C       -1.4261290    -0.5455610     0.2807710
  C        1.6587720    -1.4791420     0.9005390
  C        2.6214040     0.3695570    -0.5423650
  C       -1.6587760    -1.4791790    -0.9005120
  C       -2.6214500     0.3696170     0.5422190
  H        1.1885450    -1.1070370    -1.1904800
  H       -1.1886890    -1.1069770     1.1905200
  H        2.5840750    -2.0396740     0.7379460
  H        1.7616250    -0.8994820     1.8215340
  H        0.8496680    -2.2031720     1.0285220
  H        3.4965200    -0.2439880    -0.7733690
  H        2.8364310     0.9720400     0.3434690
  H        2.4263640     1.0371160    -1.3839510
  H       -2.5841960    -2.0395530    -0.7380340
  H       -1.7613990    -0.8995720    -1.8215670
  H       -0.8497680    -2.2033490    -1.0283050
  H       -3.4965670    -0.2439000     0.7732950
  H       -2.8364560     0.9719880    -0.3436930
  H       -2.4264190     1.0372780     1.3837270
units angstrom
no_reorient  #important for SAPT in psi4, default
symmetry c1  #important for SAPT in psi4, default
}

set PROPERTIES_ORIGIN ["COM"]
properties('MP2/aug-cc-pvtz', properties = ['dipole'])
--------------------------------------------------------------------------

    Molecular point group: c1
  Charge       = 0
  Multiplicity = 1
  Basis Set: AUG-CC-PVTZ
    Blend: AUG-CC-PVTZ
  Basis Set: (AUG-CC-PVTZ AUX)
    Blend: AUG-CC-PVTZ-JKFIT

    Orbital Energies [Eh]
    ---------------------

    Doubly Occupied:

       1A    -92.163295     2A    -20.535874     3A    -20.532994
       4A    -11.282921     5A    -11.275973     6A    -11.244325
       7A    -11.239779     8A    -11.235085     9A    -11.229658
      10A     -9.134568    11A     -6.818793    12A     -6.818427
      13A     -6.818203    14A     -1.422991    15A     -1.316592
      16A     -1.116716    17A     -1.094363    18A     -0.959130
      19A     -0.953896    20A     -0.922916    21A     -0.837493
      22A     -0.761120    23A     -0.703427    24A     -0.658633
      25A     -0.652429    26A     -0.643722    27A     -0.609108
      28A     -0.588677    29A     -0.579065    30A     -0.576610
      31A     -0.562450    32A     -0.553825    33A     -0.539625
      34A     -0.515238    35A     -0.515095    36A     -0.506752
      37A     -0.503404    38A     -0.483323    39A     -0.467081
      40A     -0.456886    41A     -0.412166

  @DF-RHF Final Energy:  -782.73416405592423

   => Energetics <=

    Nuclear Repulsion Energy =            641.0661922515780589
    One-Electron Energy =               -2347.1154562537567472
    Two-Electron Energy =                 923.3150999462544632
    Total Energy =                       -782.7341640559242251
  Basis Set: (AUG-CC-PVTZ AUX)
    Blend: AUG-CC-PVTZ-RI
    Molecular point group: c1

    Geometry (in Angstrom), charge = 0, multiplicity = 1:

       Center              X                  Y                   Z               Mass
    ------------   -----------------  -----------------  -----------------  -----------------
         S           -0.009564824571     0.480725641810    -0.000769071647    31.972071174400
         O           -0.256080824571     1.213693641810    -1.258971071647    15.994914619570
         O            0.326766775429     1.163353241810     1.264925928353    15.994914619570
         C            1.416519175429    -0.599334358190    -0.281579071647    12.000000000000
         C           -1.435690824571    -0.599312358190     0.279972928353    12.000000000000
         C            1.649210175429    -1.532893358190     0.899740928353    12.000000000000
         C            2.611842175429     0.315805641810    -0.543163071647    12.000000000000
         C           -1.668337824571    -1.532930358190    -0.901310071647    12.000000000000
         C           -2.631011824571     0.315865641810     0.541420928353    12.000000000000
         H            1.178983175429    -1.160788358190    -1.191278071647     1.007825032230
         H           -1.198250824571    -1.160728358190     1.189721928353     1.007825032230
         H            2.574513175429    -2.093425358190     0.737147928353     1.007825032230
         H            1.752063175429    -0.953233358190     1.820735928353     1.007825032230
         H            0.840106175429    -2.256923358190     1.027723928353     1.007825032230
         H            3.486958175429    -0.297739358190    -0.774167071647     1.007825032230
         H            2.826869175429     0.918288641810     0.342670928353     1.007825032230
         H            2.416802175429     0.983364641810    -1.384749071647     1.007825032230
         H           -2.593757824571    -2.093304358190    -0.738832071647     1.007825032230
         H           -1.770960824571    -0.953323358190    -1.822365071647     1.007825032230
         H           -0.859329824571    -2.257100358190    -1.029103071647     1.007825032230
         H           -3.506128824571    -0.297651358190     0.772496928353     1.007825032230
         H           -2.846017824571     0.918236641810    -0.344491071647     1.007825032230
         H           -2.435980824571     0.983526641810     1.382928928353     1.007825032230

  Basis Set: AUG-CC-PVTZ
    Blend: AUG-CC-PVTZ
  Basis Set: (AUG-CC-PVTZ AUX)
    Blend: AUG-CC-PVTZ-JKFIT
	 Reference Energy          =    -782.7341640559242251 [Eh]
	 Singles Energy            =      -0.0000000000000000 [Eh]
	 Same-Spin Energy          =      -0.4618321351682215 [Eh]
	 Opposite-Spin Energy      =      -1.4991894693496470 [Eh]
	 Correlation Energy        =      -1.9610216045178686 [Eh]
	 Total Energy              =    -784.6951856604421209 [Eh]

	 ================> DF-SCS-MP2 Energies <==================
	-----------------------------------------------------------
	 SCS Same-Spin Scale       =       0.3333333333333333 [-]
	 SCS Opposite-Spin Scale   =       1.2000000000000000 [-]
	 SCS Same-Spin Energy      =      -0.1539440450560738 [Eh]
	 SCS Opposite-Spin Energy  =      -1.7990273632195763 [Eh]
	 SCS Correlation Energy    =      -1.9529714082756502 [Eh]
	 SCS Total Energy          =    -784.6871354641998551 [Eh]
	-----------------------------------------------------------

  Dipole Moment: [D]
     X:    -0.2943      Y:    -4.3721      Z:    -0.0180     Total:     4.3820

*** Psi4 exiting successfully. Buy a developer a beer!
