                               Psi4 1.3.2 release

  ==> Input File <==

--------------------------------------------------------------------------
#psi4
#
memory 32 gb

molecule  {
0 1
  S       -0.0269570     0.5105364    -0.0518883
  O       -0.2465190     1.2674450    -1.2581730
  O        0.2466330     1.2673540     1.2582600
  C        1.4260810    -0.5455830    -0.2807810
  C       -1.4261290    -0.5455610     0.2807710
  C        1.6587720    -1.4791420     0.9005390
  C        2.6214040     0.3695570    -0.5423650
  C       -1.6587760    -1.4791790    -0.9005120
  C       -2.6214500     0.3696170     0.5422190
  H        1.1885450    -1.1070370    -1.1904800
  H       -1.1886890    -1.1069770     1.1905200
  H        2.5840750    -2.0396740     0.7379460
  H        1.7616250    -0.8994820     1.8215340
  H        0.8496680    -2.2031720     1.0285220
  H        3.4965200    -0.2439880    -0.7733690
  H        2.8364310     0.9720400     0.3434690
  H        2.4263640     1.0371160    -1.3839510
  H       -2.5841960    -2.0395530    -0.7380340
  H       -1.7613990    -0.8995720    -1.8215670
  H       -0.8497680    -2.2033490    -1.0283050
  H       -3.4965670    -0.2439000     0.7732950
  H       -2.8364560     0.9719880    -0.3436930
  H       -2.4264190     1.0372780     1.3837270
units angstrom
no_reorient  #important for SAPT in psi4, default
symmetry c1  #important for SAPT in psi4, default
}

set PROPERTIES_ORIGIN ["COM"]
properties('MP2/aug-cc-pvtz', properties = ['dipole'])
--------------------------------------------------------------------------

    Molecular point group: c1
  Charge       = 0
  Multiplicity = 1
  Basis Set: AUG-CC-PVTZ
    Blend: AUG-CC-PVTZ
  Basis Set: (AUG-CC-PVTZ AUX)
    Blend: AUG-CC-PVTZ-JKFIT

    Orbital Energies [Eh]
    ---------------------

    Doubly Occupied:

       1A    -92.162081     2A    -20.540824     3A    -20.519552
       4A    -11.282656     5A    -11.281498     6A    -11.245791
       7A    -11.242482     8A    -11.234626     9A    -11.232410
      10A     -9.134098    11A     -6.818210    12A     -6.818036
      13A     -6.817500    14A     -1.425698    15A     -1.295080
      16A     -1.121353    17A     -1.097511    18A     -0.960213
      19A     -0.956049    20A     -0.927886    21A     -0.841216
      22A     -0.761936    23A     -0.705481    24A     -0.657309
      25A     -0.654136    26A     -0.644513    27A     -0.606796
      28A     -0.590381    29A     -0.579092    30A     -0.576726
      31A     -0.563186    32A     -0.555871    33A     -0.541070
      34A     -0.516985    35A     -0.516488    36A     -0.508863
      37A     -0.505354    38A     -0.475394    39A     -0.465663
      40A     -0.444000    41A     -0.414528

  @DF-RHF Final Energy:  -782.72901052521070

   => Energetics <=

    Nuclear Repulsion Energy =            640.8247229302494361
    One-Electron Energy =               -2346.6303776740051035
    Two-Electron Energy =                 923.0766442185449705
    Total Energy =                       -782.7290105252106969
  Basis Set: (AUG-CC-PVTZ AUX)
    Blend: AUG-CC-PVTZ-RI
    Molecular point group: c1

    Geometry (in Angstrom), charge = 0, multiplicity = 1:

       Center              X                  Y                   Z               Mass
    ------------   -----------------  -----------------  -----------------  -----------------
         S           -0.021216455887     0.456529801421    -0.040830088235    31.972071174400
         O           -0.240778455887     1.213438401421    -1.247114788235    15.994914619570
         O            0.252373544113     1.213347401421     1.269318211765    15.994914619570
         C            1.431821544113    -0.599589598579    -0.269722788235    12.000000000000
         C           -1.420388455887    -0.599567598579     0.291829211765    12.000000000000
         C            1.664512544113    -1.533148598579     0.911597211765    12.000000000000
         C            2.627144544113     0.315550401421    -0.531306788235    12.000000000000
         C           -1.653035455887    -1.533185598579    -0.889453788235    12.000000000000
         C           -2.615709455887     0.315610401421     0.553277211765    12.000000000000
         H            1.194285544113    -1.161043598579    -1.179421788235     1.007825032230
         H           -1.182948455887    -1.160983598579     1.201578211765     1.007825032230
         H            2.589815544113    -2.093680598579     0.749004211765     1.007825032230
         H            1.767365544113    -0.953488598579     1.832592211765     1.007825032230
         H            0.855408544113    -2.257178598579     1.039580211765     1.007825032230
         H            3.502260544113    -0.297994598579    -0.762310788235     1.007825032230
         H            2.842171544113     0.918033401421     0.354527211765     1.007825032230
         H            2.432104544113     0.983109401421    -1.372892788235     1.007825032230
         H           -2.578455455887    -2.093559598579    -0.726975788235     1.007825032230
         H           -1.755658455887    -0.953578598579    -1.810508788235     1.007825032230
         H           -0.844027455887    -2.257355598579    -1.017246788235     1.007825032230
         H           -3.490826455887    -0.297906598579     0.784353211765     1.007825032230
         H           -2.830715455887     0.917981401421    -0.332634788235     1.007825032230
         H           -2.420678455887     0.983271401421     1.394785211765     1.007825032230

  Basis Set: AUG-CC-PVTZ
    Blend: AUG-CC-PVTZ
  Basis Set: (AUG-CC-PVTZ AUX)
    Blend: AUG-CC-PVTZ-JKFIT
	 Reference Energy          =    -782.7290105252106969 [Eh]
	 Singles Energy            =      -0.0000000000000000 [Eh]
	 Same-Spin Energy          =      -0.4619463295031284 [Eh]
	 Opposite-Spin Energy      =      -1.4993838034384870 [Eh]
	 Correlation Energy        =      -1.9613301329416153 [Eh]
	 Total Energy              =    -784.6903406581523086 [Eh]

	 ================> DF-SCS-MP2 Energies <==================
	-----------------------------------------------------------
	 SCS Same-Spin Scale       =       0.3333333333333333 [-]
	 SCS Opposite-Spin Scale   =       1.2000000000000000 [-]
	 SCS Same-Spin Energy      =      -0.1539821098343761 [Eh]
	 SCS Opposite-Spin Energy  =      -1.7992605641261843 [Eh]
	 SCS Correlation Energy    =      -1.9532426739605604 [Eh]
	 SCS Total Energy          =    -784.6822531991712140 [Eh]
	-----------------------------------------------------------

  Dipole Moment: [D]
     X:    -0.2245      Y:    -4.6748      Z:    -0.4164     Total:     4.6987

*** Psi4 exiting successfully. Buy a developer a beer!
