                               Psi4 1.3.2 release

  ==> Input File <==

--------------------------------------------------------------------------
#psi4
#
memory 32 gb

molecule  {
0 1
  S       -0.0000030     0.5344770     0.0000290
  O       -0.2414460     1.3117440    -1.2323045
  O        0.2466330     1.2673540     1.2582600
  C        1.4260810    -0.5455830    -0.2807810
  C       -1.4261290    -0.5455610     0.2807710
  C        1.6587720    -1.4791420     0.9005390
  C        2.6214040     0.3695570    -0.5423650
  C       -1.6587760    -1.4791790    -0.9005120
  C       -2.6214500     0.3696170     0.5422190
  H        1.1885450    -1.1070370    -1.1904800
  H       -1.1886890    -1.1069770     1.1905200
  H        2.5840750    -2.0396740     0.7379460
  H        1.7616250    -0.8994820     1.8215340
  H        0.8496680    -2.2031720     1.0285220
  H        3.4965200    -0.2439880    -0.7733690
  H        2.8364310     0.9720400     0.3434690
  H        2.4263640     1.0371160    -1.3839510
  H       -2.5841960    -2.0395530    -0.7380340
  H       -1.7613990    -0.8995720    -1.8215670
  H       -0.8497680    -2.2033490    -1.0283050
  H       -3.4965670    -0.2439000     0.7732950
  H       -2.8364560     0.9719880    -0.3436930
  H       -2.4264190     1.0372780     1.3837270
units angstrom
no_reorient  #important for SAPT in psi4, default
symmetry c1  #important for SAPT in psi4, default
}

set PROPERTIES_ORIGIN ["COM"]
properties('MP2/aug-cc-pvtz', properties = ['dipole'])
--------------------------------------------------------------------------

    Molecular point group: c1
  Charge       = 0
  Multiplicity = 1
  Basis Set: AUG-CC-PVTZ
    Blend: AUG-CC-PVTZ
  Basis Set: (AUG-CC-PVTZ AUX)
    Blend: AUG-CC-PVTZ-JKFIT

    Orbital Energies [Eh]
    ---------------------

    Doubly Occupied:

       1A    -92.162225     2A    -20.532102     3A    -20.529565
       4A    -11.281620     5A    -11.281605     6A    -11.244055
       7A    -11.243625     8A    -11.232842     9A    -11.232798
      10A     -9.133634    11A     -6.817854    12A     -6.817401
      13A     -6.817334    14A     -1.421447    15A     -1.310386
      16A     -1.118874    17A     -1.096289    18A     -0.958489
      19A     -0.956664    20A     -0.924563    21A     -0.838489
      22A     -0.761423    23A     -0.704124    24A     -0.657290
      25A     -0.653211    26A     -0.643791    27A     -0.607148
      28A     -0.589808    29A     -0.579252    30A     -0.577137
      31A     -0.562953    32A     -0.556241    33A     -0.539713
      34A     -0.515832    35A     -0.515534    36A     -0.508363
      37A     -0.505486    38A     -0.478680    39A     -0.467347
      40A     -0.452018    41A     -0.413948

  @DF-RHF Final Energy:  -782.73638222723594

   => Energetics <=

    Nuclear Repulsion Energy =            640.5016675027612791
    One-Electron Energy =               -2345.9937823567793203
    Two-Electron Energy =                 922.7557326267819917
    Total Energy =                       -782.7363822272359357
  Basis Set: (AUG-CC-PVTZ AUX)
    Blend: AUG-CC-PVTZ-RI
    Molecular point group: c1

    Geometry (in Angstrom), charge = 0, multiplicity = 1:

       Center              X                  Y                   Z               Mass
    ------------   -----------------  -----------------  -----------------  -----------------
         S           -0.000545579045     0.470648484718    -0.002730659973    31.972071174400
         O           -0.241988579045     1.247915484718    -1.235064159973    15.994914619570
         O            0.246090420955     1.203525484718     1.255500340027    15.994914619570
         C            1.425538420955    -0.609411515282    -0.283540659973    12.000000000000
         C           -1.426671579045    -0.609389515282     0.278011340027    12.000000000000
         C            1.658229420955    -1.542970515282     0.897779340027    12.000000000000
         C            2.620861420955     0.305728484718    -0.545124659973    12.000000000000
         C           -1.659318579045    -1.543007515282    -0.903271659973    12.000000000000
         C           -2.621992579045     0.305788484718     0.539459340027    12.000000000000
         H            1.188002420955    -1.170865515282    -1.193239659973     1.007825032230
         H           -1.189231579045    -1.170805515282     1.187760340027     1.007825032230
         H            2.583532420955    -2.103502515282     0.735186340027     1.007825032230
         H            1.761082420955    -0.963310515282     1.818774340027     1.007825032230
         H            0.849125420955    -2.267000515282     1.025762340027     1.007825032230
         H            3.495977420955    -0.307816515282    -0.776128659973     1.007825032230
         H            2.835888420955     0.908211484718     0.340709340027     1.007825032230
         H            2.425821420955     0.973287484718    -1.386710659973     1.007825032230
         H           -2.584738579045    -2.103381515282    -0.740793659973     1.007825032230
         H           -1.761941579045    -0.963400515282    -1.824326659973     1.007825032230
         H           -0.850310579045    -2.267177515282    -1.031064659973     1.007825032230
         H           -3.497109579045    -0.307728515282     0.770535340027     1.007825032230
         H           -2.836998579045     0.908159484718    -0.346452659973     1.007825032230
         H           -2.426961579045     0.973449484718     1.380967340027     1.007825032230

  Basis Set: AUG-CC-PVTZ
    Blend: AUG-CC-PVTZ
  Basis Set: (AUG-CC-PVTZ AUX)
    Blend: AUG-CC-PVTZ-JKFIT
	 Reference Energy          =    -782.7363822272359357 [Eh]
	 Singles Energy            =      -0.0000000000000000 [Eh]
	 Same-Spin Energy          =      -0.4614657052895471 [Eh]
	 Opposite-Spin Energy      =      -1.4984550876426939 [Eh]
	 Correlation Energy        =      -1.9599207929322411 [Eh]
	 Total Energy              =    -784.6963030201682159 [Eh]

	 ================> DF-SCS-MP2 Energies <==================
	-----------------------------------------------------------
	 SCS Same-Spin Scale       =       0.3333333333333333 [-]
	 SCS Opposite-Spin Scale   =       1.2000000000000000 [-]
	 SCS Same-Spin Energy      =      -0.1538219017631824 [Eh]
	 SCS Opposite-Spin Energy  =      -1.7981461051712326 [Eh]
	 SCS Correlation Energy    =      -1.9519680069344150 [Eh]
	 SCS Total Energy          =    -784.6883502341703434 [Eh]
	-----------------------------------------------------------

  Dipole Moment: [D]
     X:    -0.0145      Y:    -4.6172      Z:    -0.0558     Total:     4.6175

*** Psi4 exiting successfully. Buy a developer a beer!
