                               Psi4 1.3.2 release

  ==> Input File <==

--------------------------------------------------------------------------
#psi4
#
memory 32 gb

molecule  {
0 1
  S       -0.0000030     0.5344770     0.0000290
  O       -0.2465190     1.2674450    -1.2581730
  O        0.2466330     1.2673540     1.2582600
  C        1.3473279    -0.4859385    -0.2652737
  C       -1.4261290    -0.5455610     0.2807710
  C        1.6587720    -1.4791420     0.9005390
  C        2.6214040     0.3695570    -0.5423650
  C       -1.6587760    -1.4791790    -0.9005120
  C       -2.6214500     0.3696170     0.5422190
  H        1.1885450    -1.1070370    -1.1904800
  H       -1.1886890    -1.1069770     1.1905200
  H        2.5840750    -2.0396740     0.7379460
  H        1.7616250    -0.8994820     1.8215340
  H        0.8496680    -2.2031720     1.0285220
  H        3.4965200    -0.2439880    -0.7733690
  H        2.8364310     0.9720400     0.3434690
  H        2.4263640     1.0371160    -1.3839510
  H       -2.5841960    -2.0395530    -0.7380340
  H       -1.7613990    -0.8995720    -1.8215670
  H       -0.8497680    -2.2033490    -1.0283050
  H       -3.4965670    -0.2439000     0.7732950
  H       -2.8364560     0.9719880    -0.3436930
  H       -2.4264190     1.0372780     1.3837270
units angstrom
no_reorient  #important for SAPT in psi4, default
symmetry c1  #important for SAPT in psi4, default
}

set PROPERTIES_ORIGIN ["COM"]
properties('MP2/aug-cc-pvtz', properties = ['dipole'])
--------------------------------------------------------------------------

    Molecular point group: c1
  Charge       = 0
  Multiplicity = 1
  Basis Set: AUG-CC-PVTZ
    Blend: AUG-CC-PVTZ
  Basis Set: (AUG-CC-PVTZ AUX)
    Blend: AUG-CC-PVTZ-JKFIT

    Orbital Energies [Eh]
    ---------------------

    Doubly Occupied:

       1A    -92.165451     2A    -20.532868     3A    -20.532628
       4A    -11.280974     5A    -11.278893     6A    -11.245919
       7A    -11.242832     8A    -11.235813     9A    -11.232970
      10A     -9.137423    11A     -6.821905    12A     -6.821333
      13A     -6.821088    14A     -1.426098    15A     -1.314735
      16A     -1.119702    17A     -1.093275    18A     -0.957438
      19A     -0.951859    20A     -0.934670    21A     -0.842935
      22A     -0.758307    23A     -0.707095    24A     -0.658570
      25A     -0.650507    26A     -0.643628    27A     -0.606095
      28A     -0.589153    29A     -0.579893    30A     -0.578354
      31A     -0.560541    32A     -0.555976    33A     -0.542239
      34A     -0.513064    35A     -0.512198    36A     -0.499950
      37A     -0.497445    38A     -0.480531    39A     -0.473113
      40A     -0.453446    41A     -0.424258

  @DF-RHF Final Energy:  -782.72787268157322

   => Energetics <=

    Nuclear Repulsion Energy =            642.6780343086709308
    One-Electron Energy =               -2350.2614707707598427
    Two-Electron Energy =                 924.8555637805156948
    Total Energy =                       -782.7278726815732171
  Basis Set: (AUG-CC-PVTZ AUX)
    Blend: AUG-CC-PVTZ-RI
    Molecular point group: c1

    Geometry (in Angstrom), charge = 0, multiplicity = 1:

       Center              X                  Y                   Z               Mass
    ------------   -----------------  -----------------  -----------------  -----------------
         S            0.006292359790     0.470600672311    -0.001213536979    31.972071174400
         O           -0.240223640210     1.203568672311    -1.259415536979    15.994914619570
         O            0.252928359790     1.203477672311     1.257017463021    15.994914619570
         C            1.353623259790    -0.549814827689    -0.266516236979    12.000000000000
         C           -1.419833640210    -0.609437327689     0.279528463021    12.000000000000
         C            1.665067359790    -1.543018327689     0.899296463021    12.000000000000
         C            2.627699359790     0.305680672311    -0.543607536979    12.000000000000
         C           -1.652480640210    -1.543055327689    -0.901754536979    12.000000000000
         C           -2.615154640210     0.305740672311     0.540976463021    12.000000000000
         H            1.194840359790    -1.170913327689    -1.191722536979     1.007825032230
         H           -1.182393640210    -1.170853327689     1.189277463021     1.007825032230
         H            2.590370359790    -2.103550327689     0.736703463021     1.007825032230
         H            1.767920359790    -0.963358327689     1.820291463021     1.007825032230
         H            0.855963359790    -2.267048327689     1.027279463021     1.007825032230
         H            3.502815359790    -0.307864327689    -0.774611536979     1.007825032230
         H            2.842726359790     0.908163672311     0.342226463021     1.007825032230
         H            2.432659359790     0.973239672311    -1.385193536979     1.007825032230
         H           -2.577900640210    -2.103429327689    -0.739276536979     1.007825032230
         H           -1.755103640210    -0.963448327689    -1.822809536979     1.007825032230
         H           -0.843472640210    -2.267225327689    -1.029547536979     1.007825032230
         H           -3.490271640210    -0.307776327689     0.772052463021     1.007825032230
         H           -2.830160640210     0.908111672311    -0.344935536979     1.007825032230
         H           -2.420123640210     0.973401672311     1.382484463021     1.007825032230

  Basis Set: AUG-CC-PVTZ
    Blend: AUG-CC-PVTZ
  Basis Set: (AUG-CC-PVTZ AUX)
    Blend: AUG-CC-PVTZ-JKFIT
	 Reference Energy          =    -782.7278726815732171 [Eh]
	 Singles Energy            =      -0.0000000000000000 [Eh]
	 Same-Spin Energy          =      -0.4617416099152925 [Eh]
	 Opposite-Spin Energy      =      -1.4989486251698581 [Eh]
	 Correlation Energy        =      -1.9606902350851505 [Eh]
	 Total Energy              =    -784.6885629166583840 [Eh]

	 ================> DF-SCS-MP2 Energies <==================
	-----------------------------------------------------------
	 SCS Same-Spin Scale       =       0.3333333333333333 [-]
	 SCS Opposite-Spin Scale   =       1.2000000000000000 [-]
	 SCS Same-Spin Energy      =      -0.1539138699717642 [Eh]
	 SCS Opposite-Spin Energy  =      -1.7987383502038297 [Eh]
	 SCS Correlation Energy    =      -1.9526522201755938 [Eh]
	 SCS Total Energy          =    -784.6805249017488677 [Eh]
	-----------------------------------------------------------

  Dipole Moment: [D]
     X:     0.0753      Y:    -4.5390      Z:    -0.0189     Total:     4.5396

*** Psi4 exiting successfully. Buy a developer a beer!
