                               Psi4 1.3.2 release

  ==> Input File <==

--------------------------------------------------------------------------
#psi4
#
memory 32 gb

molecule  {
0 1
  S       -0.0755234     0.4588257    -0.1564959
  O       -0.2465190     1.2674450    -1.2581730
  O        0.2466330     1.2673540     1.2582600
  C        1.4260810    -0.5455830    -0.2807810
  C       -1.4261290    -0.5455610     0.2807710
  C        1.6587720    -1.4791420     0.9005390
  C        2.6214040     0.3695570    -0.5423650
  C       -1.6587760    -1.4791790    -0.9005120
  C       -2.6214500     0.3696170     0.5422190
  H        1.1885450    -1.1070370    -1.1904800
  H       -1.1886890    -1.1069770     1.1905200
  H        2.5840750    -2.0396740     0.7379460
  H        1.7616250    -0.8994820     1.8215340
  H        0.8496680    -2.2031720     1.0285220
  H        3.4965200    -0.2439880    -0.7733690
  H        2.8364310     0.9720400     0.3434690
  H        2.4263640     1.0371160    -1.3839510
  H       -2.5841960    -2.0395530    -0.7380340
  H       -1.7613990    -0.8995720    -1.8215670
  H       -0.8497680    -2.2033490    -1.0283050
  H       -3.4965670    -0.2439000     0.7732950
  H       -2.8364560     0.9719880    -0.3436930
  H       -2.4264190     1.0372780     1.3837270
units angstrom
no_reorient  #important for SAPT in psi4, default
symmetry c1  #important for SAPT in psi4, default
}

set PROPERTIES_ORIGIN ["COM"]
properties('MP2/aug-cc-pvtz', properties = ['dipole'])
--------------------------------------------------------------------------

    Molecular point group: c1
  Charge       = 0
  Multiplicity = 1
  Basis Set: AUG-CC-PVTZ
    Blend: AUG-CC-PVTZ
  Basis Set: (AUG-CC-PVTZ AUX)
    Blend: AUG-CC-PVTZ-JKFIT

    Orbital Energies [Eh]
    ---------------------

    Doubly Occupied:

       1A    -92.155771     2A    -20.555472     3A    -20.494510
       4A    -11.286026     5A    -11.284024     6A    -11.250966
       7A    -11.241920     8A    -11.237994     9A    -11.232258
      10A     -9.131526    11A     -6.815776    12A     -6.815020
      13A     -6.814371    14A     -1.463023    15A     -1.238124
      16A     -1.128495    17A     -1.098816    18A     -0.965455
      19A     -0.954996    20A     -0.935371    21A     -0.847329
      22A     -0.765447    23A     -0.711821    24A     -0.665185
      25A     -0.655808    26A     -0.649319    27A     -0.611381
      28A     -0.593871    29A     -0.583273    30A     -0.575518
      31A     -0.566808    32A     -0.556368    33A     -0.549027
      34A     -0.522058    35A     -0.520507    36A     -0.510313
      37A     -0.507478    38A     -0.469653    39A     -0.444362
      40A     -0.413042    41A     -0.401976

  @DF-RHF Final Energy:  -782.68604814775108

   => Energetics <=

    Nuclear Repulsion Energy =            641.1887695335734634
    One-Electron Energy =               -2347.3087170672620232
    Two-Electron Energy =                 923.4338993859373659
    Total Energy =                       -782.6860481477510803
  Basis Set: (AUG-CC-PVTZ AUX)
    Blend: AUG-CC-PVTZ-RI
    Molecular point group: c1

    Geometry (in Angstrom), charge = 0, multiplicity = 1:

       Center              X                  Y                   Z               Mass
    ------------   -----------------  -----------------  -----------------  -----------------
         S           -0.059435995184     0.415835841590    -0.123151493137    31.972071174400
         O           -0.230431595184     1.224455141590    -1.224828593137    15.994914619570
         O            0.262720404816     1.224364141590     1.291604406863    15.994914619570
         C            1.442168404816    -0.588572858410    -0.247436593137    12.000000000000
         C           -1.410041595184    -0.588550858410     0.314115406863    12.000000000000
         C            1.674859404816    -1.522131858410     0.933883406863    12.000000000000
         C            2.637491404816     0.326567141590    -0.509020593137    12.000000000000
         C           -1.642688595184    -1.522168858410    -0.867167593137    12.000000000000
         C           -2.605362595184     0.326627141590     0.575563406863    12.000000000000
         H            1.204632404816    -1.150026858410    -1.157135593137     1.007825032230
         H           -1.172601595184    -1.149966858410     1.223864406863     1.007825032230
         H            2.600162404816    -2.082663858410     0.771290406863     1.007825032230
         H            1.777712404816    -0.942471858410     1.854878406863     1.007825032230
         H            0.865755404816    -2.246161858410     1.061866406863     1.007825032230
         H            3.512607404816    -0.286977858410    -0.740024593137     1.007825032230
         H            2.852518404816     0.929050141590     0.376813406863     1.007825032230
         H            2.442451404816     0.994126141590    -1.350606593137     1.007825032230
         H           -2.568108595184    -2.082542858410    -0.704689593137     1.007825032230
         H           -1.745311595184    -0.942561858410    -1.788222593137     1.007825032230
         H           -0.833680595184    -2.246338858410    -0.994960593137     1.007825032230
         H           -3.480479595184    -0.286889858410     0.806639406863     1.007825032230
         H           -2.820368595184     0.928998141590    -0.310348593137     1.007825032230
         H           -2.410331595184     0.994288141590     1.417071406863     1.007825032230

  Basis Set: AUG-CC-PVTZ
    Blend: AUG-CC-PVTZ
  Basis Set: (AUG-CC-PVTZ AUX)
    Blend: AUG-CC-PVTZ-JKFIT
	 Reference Energy          =    -782.6860481477510803 [Eh]
	 Singles Energy            =      -0.0000000000000000 [Eh]
	 Same-Spin Energy          =      -0.4623766148330882 [Eh]
	 Opposite-Spin Energy      =      -1.5010351172620999 [Eh]
	 Correlation Energy        =      -1.9634117320951880 [Eh]
	 Total Energy              =    -784.6494598798462903 [Eh]

	 ================> DF-SCS-MP2 Energies <==================
	-----------------------------------------------------------
	 SCS Same-Spin Scale       =       0.3333333333333333 [-]
	 SCS Opposite-Spin Scale   =       1.2000000000000000 [-]
	 SCS Same-Spin Energy      =      -0.1541255382776960 [Eh]
	 SCS Opposite-Spin Energy  =      -1.8012421407145198 [Eh]
	 SCS Correlation Energy    =      -1.9553676789922159 [Eh]
	 SCS Total Energy          =    -784.6414158267432413 [Eh]
	-----------------------------------------------------------

  Dipole Moment: [D]
     X:    -0.6226      Y:    -5.0723      Z:    -1.2593     Total:     5.2633

*** Psi4 exiting successfully. Buy a developer a beer!
