                               Psi4 1.3.2 release

  ==> Input File <==

--------------------------------------------------------------------------
#psi4
#
memory 32 gb

molecule  {
0 1
  S       -0.0000030     0.5344770     0.0000290
  O       -0.2799030     1.3667060    -1.4285630
  O        0.2466330     1.2673540     1.2582600
  C        1.4260810    -0.5455830    -0.2807810
  C       -1.4261290    -0.5455610     0.2807710
  C        1.6587720    -1.4791420     0.9005390
  C        2.6214040     0.3695570    -0.5423650
  C       -1.6587760    -1.4791790    -0.9005120
  C       -2.6214500     0.3696170     0.5422190
  H        1.1885450    -1.1070370    -1.1904800
  H       -1.1886890    -1.1069770     1.1905200
  H        2.5840750    -2.0396740     0.7379460
  H        1.7616250    -0.8994820     1.8215340
  H        0.8496680    -2.2031720     1.0285220
  H        3.4965200    -0.2439880    -0.7733690
  H        2.8364310     0.9720400     0.3434690
  H        2.4263640     1.0371160    -1.3839510
  H       -2.5841960    -2.0395530    -0.7380340
  H       -1.7613990    -0.8995720    -1.8215670
  H       -0.8497680    -2.2033490    -1.0283050
  H       -3.4965670    -0.2439000     0.7732950
  H       -2.8364560     0.9719880    -0.3436930
  H       -2.4264190     1.0372780     1.3837270
units angstrom
no_reorient  #important for SAPT in psi4, default
symmetry c1  #important for SAPT in psi4, default
}

set PROPERTIES_ORIGIN ["COM"]
properties('MP2/aug-cc-pvtz', properties = ['dipole'])
--------------------------------------------------------------------------

    Molecular point group: c1
  Charge       = 0
  Multiplicity = 1
  Basis Set: AUG-CC-PVTZ
    Blend: AUG-CC-PVTZ
  Basis Set: (AUG-CC-PVTZ AUX)
    Blend: AUG-CC-PVTZ-JKFIT

    Orbital Energies [Eh]
    ---------------------

    Doubly Occupied:

       1A    -92.165626     2A    -20.543560     3A    -20.532168
       4A    -11.290347     5A    -11.290166     6A    -11.248849
       7A    -11.245632     8A    -11.235220     9A    -11.235088
      10A     -9.138235    11A     -6.822024    12A     -6.821691
      13A     -6.820806    14A     -1.395611    15A     -1.248122
      16A     -1.123521    17A     -1.100315    18A     -0.961823
      19A     -0.959529    20A     -0.935891    21A     -0.841318
      22A     -0.769127    23A     -0.701891    24A     -0.656801
      25A     -0.648285    26A     -0.643558    27A     -0.600057
      28A     -0.591644    29A     -0.576066    30A     -0.571374
      31A     -0.564411    32A     -0.556496    33A     -0.538081
      34A     -0.518774    35A     -0.518394    36A     -0.509852
      37A     -0.507773    38A     -0.463197    39A     -0.450596
      40A     -0.436592    41A     -0.417954

  @DF-RHF Final Energy:  -782.69331122037272

   => Energetics <=

    Nuclear Repulsion Energy =            631.8013127834814213
    One-Electron Energy =               -2328.5963237361702340
    Two-Electron Energy =                 914.1016997323159785
    Total Energy =                       -782.6933112203727205
  Basis Set: (AUG-CC-PVTZ AUX)
    Blend: AUG-CC-PVTZ-RI
    Molecular point group: c1

    Geometry (in Angstrom), charge = 0, multiplicity = 1:

       Center              X                  Y                   Z               Mass
    ------------   -----------------  -----------------  -----------------  -----------------
         S            0.003553244735     0.464790525111     0.018186962485    31.972071174400
         O           -0.276346755265     1.297019525111    -1.410405037515    15.994914619570
         O            0.250189244735     1.197667525111     1.276417962485    15.994914619570
         C            1.429637244735    -0.615269474889    -0.262623037515    12.000000000000
         C           -1.422572755265    -0.615247474889     0.298928962485    12.000000000000
         C            1.662328244735    -1.548828474889     0.918696962485    12.000000000000
         C            2.624960244735     0.299870525111    -0.524207037515    12.000000000000
         C           -1.655219755265    -1.548865474889    -0.882354037515    12.000000000000
         C           -2.617893755265     0.299930525111     0.560376962485    12.000000000000
         H            1.192101244735    -1.176723474889    -1.172322037515     1.007825032230
         H           -1.185132755265    -1.176663474889     1.208677962485     1.007825032230
         H            2.587631244735    -2.109360474889     0.756103962485     1.007825032230
         H            1.765181244735    -0.969168474889     1.839691962485     1.007825032230
         H            0.853224244735    -2.272858474889     1.046679962485     1.007825032230
         H            3.500076244735    -0.313674474889    -0.755211037515     1.007825032230
         H            2.839987244735     0.902353525111     0.361626962485     1.007825032230
         H            2.429920244735     0.967429525111    -1.365793037515     1.007825032230
         H           -2.580639755265    -2.109239474889    -0.719876037515     1.007825032230
         H           -1.757842755265    -0.969258474889    -1.803409037515     1.007825032230
         H           -0.846211755265    -2.273035474889    -1.010147037515     1.007825032230
         H           -3.493010755265    -0.313586474889     0.791452962485     1.007825032230
         H           -2.832899755265     0.902301525111    -0.325535037515     1.007825032230
         H           -2.422862755265     0.967591525111     1.401884962485     1.007825032230

  Basis Set: AUG-CC-PVTZ
    Blend: AUG-CC-PVTZ
  Basis Set: (AUG-CC-PVTZ AUX)
    Blend: AUG-CC-PVTZ-JKFIT
	 Reference Energy          =    -782.6933112203727205 [Eh]
	 Singles Energy            =      -0.0000000000000000 [Eh]
	 Same-Spin Energy          =      -0.4635195469322671 [Eh]
	 Opposite-Spin Energy      =      -1.5059780823098452 [Eh]
	 Correlation Energy        =      -1.9694976292421122 [Eh]
	 Total Energy              =    -784.6628088496148621 [Eh]

	 ================> DF-SCS-MP2 Energies <==================
	-----------------------------------------------------------
	 SCS Same-Spin Scale       =       0.3333333333333333 [-]
	 SCS Opposite-Spin Scale   =       1.2000000000000000 [-]
	 SCS Same-Spin Energy      =      -0.1545065156440890 [Eh]
	 SCS Opposite-Spin Energy  =      -1.8071736987718141 [Eh]
	 SCS Correlation Energy    =      -1.9616802144159031 [Eh]
	 SCS Total Energy          =    -784.6549914347885988 [Eh]
	-----------------------------------------------------------

  Dipole Moment: [D]
     X:     0.1916      Y:    -5.1557      Z:     0.8862     Total:     5.2348

*** Psi4 exiting successfully. Buy a developer a beer!
