                               Psi4 1.3.2 release

  ==> Input File <==

--------------------------------------------------------------------------
#psi4
#
memory 32 gb

molecule  {
0 1
  S       -0.0181702     0.5089499     0.0041720
  O       -0.2465190     1.2674450    -1.2581730
  O        0.2466330     1.2673540     1.2582600
  C        1.4260810    -0.5455830    -0.2807810
  C       -1.4261290    -0.5455610     0.2807710
  C        1.6587720    -1.4791420     0.9005390
  C        2.6214040     0.3695570    -0.5423650
  C       -1.6587760    -1.4791790    -0.9005120
  C       -2.6214500     0.3696170     0.5422190
  H        1.1885450    -1.1070370    -1.1904800
  H       -1.1886890    -1.1069770     1.1905200
  H        2.5840750    -2.0396740     0.7379460
  H        1.7616250    -0.8994820     1.8215340
  H        0.8496680    -2.2031720     1.0285220
  H        3.4965200    -0.2439880    -0.7733690
  H        2.8364310     0.9720400     0.3434690
  H        2.4263640     1.0371160    -1.3839510
  H       -2.5841960    -2.0395530    -0.7380340
  H       -1.7613990    -0.8995720    -1.8215670
  H       -0.8497680    -2.2033490    -1.0283050
  H       -3.4965670    -0.2439000     0.7732950
  H       -2.8364560     0.9719880    -0.3436930
  H       -2.4264190     1.0372780     1.3837270
units angstrom
no_reorient  #important for SAPT in psi4, default
symmetry c1  #important for SAPT in psi4, default
}

set PROPERTIES_ORIGIN ["COM"]
properties('MP2/aug-cc-pvtz', properties = ['dipole'])
--------------------------------------------------------------------------

    Molecular point group: c1
  Charge       = 0
  Multiplicity = 1
  Basis Set: AUG-CC-PVTZ
    Blend: AUG-CC-PVTZ
  Basis Set: (AUG-CC-PVTZ AUX)
    Blend: AUG-CC-PVTZ-JKFIT

    Orbital Energies [Eh]
    ---------------------

    Doubly Occupied:

       1A    -92.163043     2A    -20.530193     3A    -20.529966
       4A    -11.282958     5A    -11.281427     6A    -11.245424
       7A    -11.243077     8A    -11.234933     9A    -11.232337
      10A     -9.134615    11A     -6.818801    12A     -6.818417
      13A     -6.818139    14A     -1.413727    15A     -1.303803
      16A     -1.121798    17A     -1.097918    18A     -0.959975
      19A     -0.956526    20A     -0.928463    21A     -0.841433
      22A     -0.761448    23A     -0.704753    24A     -0.655407
      25A     -0.654149    26A     -0.643747    27A     -0.605360
      28A     -0.590328    29A     -0.578418    30A     -0.576343
      31A     -0.563126    32A     -0.555739    33A     -0.539030
      34A     -0.516684    35A     -0.516427    36A     -0.508211
      37A     -0.505701    38A     -0.475813    39A     -0.465506
      40A     -0.448944    41A     -0.416682

  @DF-RHF Final Energy:  -782.73340956715310

   => Energetics <=

    Nuclear Repulsion Energy =            640.7896769653710862
    One-Electron Energy =               -2346.5685905788445780
    Two-Electron Energy =                 923.0455040463202749
    Total Energy =                       -782.7334095671531031
  Basis Set: (AUG-CC-PVTZ AUX)
    Blend: AUG-CC-PVTZ-RI
    Molecular point group: c1

    Geometry (in Angstrom), charge = 0, multiplicity = 1:

       Center              X                  Y                   Z               Mass
    ------------   -----------------  -----------------  -----------------  -----------------
         S           -0.014301645485     0.455281298359     0.003286808198    31.972071174400
         O           -0.242650445485     1.213776398359    -1.259058191802    15.994914619570
         O            0.250501554515     1.213685398359     1.257374808198    15.994914619570
         C            1.429949554515    -0.599251601641    -0.281666191802    12.000000000000
         C           -1.422260445485    -0.599229601641     0.279885808198    12.000000000000
         C            1.662640554515    -1.532810601641     0.899653808198    12.000000000000
         C            2.625272554515     0.315888398359    -0.543250191802    12.000000000000
         C           -1.654907445485    -1.532847601641    -0.901397191802    12.000000000000
         C           -2.617581445485     0.315948398359     0.541333808198    12.000000000000
         H            1.192413554515    -1.160705601641    -1.191365191802     1.007825032230
         H           -1.184820445485    -1.160645601641     1.189634808198     1.007825032230
         H            2.587943554515    -2.093342601641     0.737060808198     1.007825032230
         H            1.765493554515    -0.953150601641     1.820648808198     1.007825032230
         H            0.853536554515    -2.256840601641     1.027636808198     1.007825032230
         H            3.500388554515    -0.297656601641    -0.774254191802     1.007825032230
         H            2.840299554515     0.918371398359     0.342583808198     1.007825032230
         H            2.430232554515     0.983447398359    -1.384836191802     1.007825032230
         H           -2.580327445485    -2.093221601641    -0.738919191802     1.007825032230
         H           -1.757530445485    -0.953240601641    -1.822452191802     1.007825032230
         H           -0.845899445485    -2.257017601641    -1.029190191802     1.007825032230
         H           -3.492698445485    -0.297568601641     0.772409808198     1.007825032230
         H           -2.832587445485     0.918319398359    -0.344578191802     1.007825032230
         H           -2.422550445485     0.983609398359     1.382841808198     1.007825032230

  Basis Set: AUG-CC-PVTZ
    Blend: AUG-CC-PVTZ
  Basis Set: (AUG-CC-PVTZ AUX)
    Blend: AUG-CC-PVTZ-JKFIT
	 Reference Energy          =    -782.7334095671531031 [Eh]
	 Singles Energy            =      -0.0000000000000000 [Eh]
	 Same-Spin Energy          =      -0.4620937078338972 [Eh]
	 Opposite-Spin Energy      =      -1.4995168407158408 [Eh]
	 Correlation Energy        =      -1.9616105485497379 [Eh]
	 Total Energy              =    -784.6950201157028459 [Eh]

	 ================> DF-SCS-MP2 Energies <==================
	-----------------------------------------------------------
	 SCS Same-Spin Scale       =       0.3333333333333333 [-]
	 SCS Opposite-Spin Scale   =       1.2000000000000000 [-]
	 SCS Same-Spin Energy      =      -0.1540312359446324 [Eh]
	 SCS Opposite-Spin Energy  =      -1.7994202088590090 [Eh]
	 SCS Correlation Energy    =      -1.9534514448036413 [Eh]
	 SCS Total Energy          =    -784.6868610119566938 [Eh]
	-----------------------------------------------------------

  Dipole Moment: [D]
     X:    -0.1443      Y:    -4.6798      Z:     0.0172     Total:     4.6821

*** Psi4 exiting successfully. Buy a developer a beer!
