                               Psi4 1.3.2 release

  ==> Input File <==

--------------------------------------------------------------------------
#psi4
#
memory 32 gb

molecule  {
0 1
  S        0.0141277     0.5459556     0.0258633
  O       -0.2465190     1.2674450    -1.2581730
  O        0.2466330     1.2673540     1.2582600
  C        1.4260810    -0.5455830    -0.2807810
  C       -1.4261290    -0.5455610     0.2807710
  C        1.6587720    -1.4791420     0.9005390
  C        2.6214040     0.3695570    -0.5423650
  C       -1.6587760    -1.4791790    -0.9005120
  C       -2.6214500     0.3696170     0.5422190
  H        1.1885450    -1.1070370    -1.1904800
  H       -1.1886890    -1.1069770     1.1905200
  H        2.5840750    -2.0396740     0.7379460
  H        1.7616250    -0.8994820     1.8215340
  H        0.8496680    -2.2031720     1.0285220
  H        3.4965200    -0.2439880    -0.7733690
  H        2.8364310     0.9720400     0.3434690
  H        2.4263640     1.0371160    -1.3839510
  H       -2.5841960    -2.0395530    -0.7380340
  H       -1.7613990    -0.8995720    -1.8215670
  H       -0.8497680    -2.2033490    -1.0283050
  H       -3.4965670    -0.2439000     0.7732950
  H       -2.8364560     0.9719880    -0.3436930
  H       -2.4264190     1.0372780     1.3837270
units angstrom
no_reorient  #important for SAPT in psi4, default
symmetry c1  #important for SAPT in psi4, default
}

set PROPERTIES_ORIGIN ["COM"]
properties('MP2/aug-cc-pvtz', properties = ['dipole'])
--------------------------------------------------------------------------

    Molecular point group: c1
  Charge       = 0
  Multiplicity = 1
  Basis Set: AUG-CC-PVTZ
    Blend: AUG-CC-PVTZ
  Basis Set: (AUG-CC-PVTZ AUX)
    Blend: AUG-CC-PVTZ-JKFIT

    Orbital Energies [Eh]
    ---------------------

    Doubly Occupied:

       1A    -92.162367     2A    -20.539165     3A    -20.528422
       4A    -11.280250     5A    -11.279476     6A    -11.243268
       7A    -11.241525     8A    -11.232768     9A    -11.231561
      10A     -9.133757    11A     -6.817958    12A     -6.817689
      13A     -6.817388    14A     -1.429238    15A     -1.314925
      16A     -1.116213    17A     -1.094317    18A     -0.957895
      19A     -0.955184    20A     -0.921542    21A     -0.836419
      22A     -0.761691    23A     -0.703952    24A     -0.659107
      25A     -0.652053    26A     -0.644313    27A     -0.609715
      28A     -0.589077    29A     -0.579094    30A     -0.577685
      31A     -0.562197    32A     -0.555218    33A     -0.540758
      34A     -0.514972    35A     -0.514603    36A     -0.507943
      37A     -0.504133    38A     -0.482814    39A     -0.468609
      40A     -0.455142    41A     -0.410989

  @DF-RHF Final Energy:  -782.73532263345305

   => Energetics <=

    Nuclear Repulsion Energy =            640.6781793251365116
    One-Electron Energy =               -2346.3362177051953950
    Two-Electron Energy =                 922.9227157466057179
    Total Energy =                       -782.7353226334530518
  Basis Set: (AUG-CC-PVTZ AUX)
    Blend: AUG-CC-PVTZ-RI
    Molecular point group: c1

    Geometry (in Angstrom), charge = 0, multiplicity = 1:

       Center              X                  Y                   Z               Mass
    ------------   -----------------  -----------------  -----------------  -----------------
         S            0.011115327119     0.484403094609     0.020356870891    31.972071174400
         O           -0.249531372881     1.205892494609    -1.263679429109    15.994914619570
         O            0.243620627119     1.205801494609     1.252753570891    15.994914619570
         C            1.423068627119    -0.607135505391    -0.286287429109    12.000000000000
         C           -1.429141372881    -0.607113505391     0.275264570891    12.000000000000
         C            1.655759627119    -1.540694505391     0.895032570891    12.000000000000
         C            2.618391627119     0.308004494609    -0.547871429109    12.000000000000
         C           -1.661788372881    -1.540731505391    -0.906018429109    12.000000000000
         C           -2.624462372881     0.308064494609     0.536712570891    12.000000000000
         H            1.185532627119    -1.168589505391    -1.195986429109     1.007825032230
         H           -1.191701372881    -1.168529505391     1.185013570891     1.007825032230
         H            2.581062627119    -2.101226505391     0.732439570891     1.007825032230
         H            1.758612627119    -0.961034505391     1.816027570891     1.007825032230
         H            0.846655627119    -2.264724505391     1.023015570891     1.007825032230
         H            3.493507627119    -0.305540505391    -0.778875429109     1.007825032230
         H            2.833418627119     0.910487494609     0.337962570891     1.007825032230
         H            2.423351627119     0.975563494609    -1.389457429109     1.007825032230
         H           -2.587208372881    -2.101105505391    -0.743540429109     1.007825032230
         H           -1.764411372881    -0.961124505391    -1.827073429109     1.007825032230
         H           -0.852780372881    -2.264901505391    -1.033811429109     1.007825032230
         H           -3.499579372881    -0.305452505391     0.767788570891     1.007825032230
         H           -2.839468372881     0.910435494609    -0.349199429109     1.007825032230
         H           -2.429431372881     0.975725494609     1.378220570891     1.007825032230

  Basis Set: AUG-CC-PVTZ
    Blend: AUG-CC-PVTZ
  Basis Set: (AUG-CC-PVTZ AUX)
    Blend: AUG-CC-PVTZ-JKFIT
	 Reference Energy          =    -782.7353226334530518 [Eh]
	 Singles Energy            =      -0.0000000000000000 [Eh]
	 Same-Spin Energy          =      -0.4613517078883589 [Eh]
	 Opposite-Spin Energy      =      -1.4983842613968137 [Eh]
	 Correlation Energy        =      -1.9597359692851726 [Eh]
	 Total Energy              =    -784.6950586027381860 [Eh]

	 ================> DF-SCS-MP2 Energies <==================
	-----------------------------------------------------------
	 SCS Same-Spin Scale       =       0.3333333333333333 [-]
	 SCS Opposite-Spin Scale   =       1.2000000000000000 [-]
	 SCS Same-Spin Energy      =      -0.1537839026294530 [Eh]
	 SCS Opposite-Spin Energy  =      -1.7980611136761764 [Eh]
	 SCS Correlation Energy    =      -1.9518450163056293 [Eh]
	 SCS Total Energy          =    -784.6871676497586350 [Eh]
	-----------------------------------------------------------

  Dipole Moment: [D]
     X:     0.1179      Y:    -4.4247      Z:     0.2064     Total:     4.4310

*** Psi4 exiting successfully. Buy a developer a beer!
