                               Psi4 1.3.2 release

  ==> Input File <==

--------------------------------------------------------------------------
#psi4
#
memory 32 gb

molecule  {
0 1
  S        0.0185986     0.5596751    -0.0041995
  O       -0.2465190     1.2674450    -1.2581730
  O        0.2466330     1.2673540     1.2582600
  C        1.4260810    -0.5455830    -0.2807810
  C       -1.4261290    -0.5455610     0.2807710
  C        1.6587720    -1.4791420     0.9005390
  C        2.6214040     0.3695570    -0.5423650
  C       -1.6587760    -1.4791790    -0.9005120
  C       -2.6214500     0.3696170     0.5422190
  H        1.1885450    -1.1070370    -1.1904800
  H       -1.1886890    -1.1069770     1.1905200
  H        2.5840750    -2.0396740     0.7379460
  H        1.7616250    -0.8994820     1.8215340
  H        0.8496680    -2.2031720     1.0285220
  H        3.4965200    -0.2439880    -0.7733690
  H        2.8364310     0.9720400     0.3434690
  H        2.4263640     1.0371160    -1.3839510
  H       -2.5841960    -2.0395530    -0.7380340
  H       -1.7613990    -0.8995720    -1.8215670
  H       -0.8497680    -2.2033490    -1.0283050
  H       -3.4965670    -0.2439000     0.7732950
  H       -2.8364560     0.9719880    -0.3436930
  H       -2.4264190     1.0372780     1.3837270
units angstrom
no_reorient  #important for SAPT in psi4, default
symmetry c1  #important for SAPT in psi4, default
}

set PROPERTIES_ORIGIN ["COM"]
properties('MP2/aug-cc-pvtz', properties = ['dipole'])
--------------------------------------------------------------------------

    Molecular point group: c1
  Charge       = 0
  Multiplicity = 1
  Basis Set: AUG-CC-PVTZ
    Blend: AUG-CC-PVTZ
  Basis Set: (AUG-CC-PVTZ AUX)
    Blend: AUG-CC-PVTZ-JKFIT

    Orbital Energies [Eh]
    ---------------------

    Doubly Occupied:

       1A    -92.162424     2A    -20.535340     3A    -20.535110
       4A    -11.279968     5A    -11.277964     6A    -11.242920
       7A    -11.240525     8A    -11.232993     9A    -11.230301
      10A     -9.133622    11A     -6.817855    12A     -6.817457
      13A     -6.817427    14A     -1.430397    15A     -1.322805
      16A     -1.114728    17A     -1.092665    18A     -0.957699
      19A     -0.954171    20A     -0.919178    21A     -0.834436
      22A     -0.761687    23A     -0.703390    24A     -0.659817
      25A     -0.651484    26A     -0.644172    27A     -0.610967
      28A     -0.588633    29A     -0.578889    30A     -0.578059
      31A     -0.561912    32A     -0.554801    33A     -0.540575
      34A     -0.514389    35A     -0.514146    36A     -0.507285
      37A     -0.503461    38A     -0.486128    39A     -0.468825
      40A     -0.460086    41A     -0.408851

  @DF-RHF Final Energy:  -782.73662781148687

   => Energetics <=

    Nuclear Repulsion Energy =            640.6133928861548839
    One-Electron Energy =               -2346.2049620332759332
    Two-Electron Energy =                 922.8549413356340665
    Total Energy =                       -782.7366278114868692
  Basis Set: (AUG-CC-PVTZ AUX)
    Blend: AUG-CC-PVTZ-RI
    Molecular point group: c1

    Geometry (in Angstrom), charge = 0, multiplicity = 1:

       Center              X                  Y                   Z               Mass
    ------------   -----------------  -----------------  -----------------  -----------------
         S            0.014633721282     0.495199714688    -0.003301180066    31.972071174400
         O           -0.250483878718     1.202969614688    -1.257274680066    15.994914619570
         O            0.242668121282     1.202878614688     1.259158319934    15.994914619570
         C            1.422116121282    -0.610058385312    -0.279882680066    12.000000000000
         C           -1.430093878718    -0.610036385312     0.281669319934    12.000000000000
         C            1.654807121282    -1.543617385312     0.901437319934    12.000000000000
         C            2.617439121282     0.305081614688    -0.541466680066    12.000000000000
         C           -1.662740878718    -1.543654385312    -0.899613680066    12.000000000000
         C           -2.625414878718     0.305141614688     0.543117319934    12.000000000000
         H            1.184580121282    -1.171512385312    -1.189581680066     1.007825032230
         H           -1.192653878718    -1.171452385312     1.191418319934     1.007825032230
         H            2.580110121282    -2.104149385312     0.738844319934     1.007825032230
         H            1.757660121282    -0.963957385312     1.822432319934     1.007825032230
         H            0.845703121282    -2.267647385312     1.029420319934     1.007825032230
         H            3.492555121282    -0.308463385312    -0.772470680066     1.007825032230
         H            2.832466121282     0.907564614688     0.344367319934     1.007825032230
         H            2.422399121282     0.972640614688    -1.383052680066     1.007825032230
         H           -2.588160878718    -2.104028385312    -0.737135680066     1.007825032230
         H           -1.765363878718    -0.964047385312    -1.820668680066     1.007825032230
         H           -0.853732878718    -2.267824385312    -1.027406680066     1.007825032230
         H           -3.500531878718    -0.308375385312     0.774193319934     1.007825032230
         H           -2.840420878718     0.907512614688    -0.342794680066     1.007825032230
         H           -2.430383878718     0.972802614688     1.384625319934     1.007825032230

  Basis Set: AUG-CC-PVTZ
    Blend: AUG-CC-PVTZ
  Basis Set: (AUG-CC-PVTZ AUX)
    Blend: AUG-CC-PVTZ-JKFIT
	 Reference Energy          =    -782.7366278114868692 [Eh]
	 Singles Energy            =      -0.0000000000000000 [Eh]
	 Same-Spin Energy          =      -0.4611601890865901 [Eh]
	 Opposite-Spin Energy      =      -1.4980884769450593 [Eh]
	 Correlation Energy        =      -1.9592486660316495 [Eh]
	 Total Energy              =    -784.6958764775184818 [Eh]

	 ================> DF-SCS-MP2 Energies <==================
	-----------------------------------------------------------
	 SCS Same-Spin Scale       =       0.3333333333333333 [-]
	 SCS Opposite-Spin Scale   =       1.2000000000000000 [-]
	 SCS Same-Spin Energy      =      -0.1537200630288633 [Eh]
	 SCS Opposite-Spin Energy  =      -1.7977061723340710 [Eh]
	 SCS Correlation Energy    =      -1.9514262353629344 [Eh]
	 SCS Total Energy          =    -784.6880540468498566 [Eh]
	-----------------------------------------------------------

  Dipole Moment: [D]
     X:     0.1517      Y:    -4.3268      Z:    -0.0184     Total:     4.3295

*** Psi4 exiting successfully. Buy a developer a beer!
