                               Psi4 1.4a3.dev225

  ==> Input File <==

--------------------------------------------------------------------------
#psi4
#
memory 32 gb

molecule  {
0 1
  S        0.0000010    -0.5344910     0.0000050
  O        0.2465780    -1.2674340    -1.2582100
  O       -0.2465760    -1.2674230     1.2582270
  C       -1.4654546     0.5753914    -0.2885258
  C        1.4260820     0.5455700     0.2807730
  C       -1.6587340     1.4791280     0.9005660
  C       -2.6214390    -0.3695300    -0.5423140
  C        1.6587160     1.4791480    -0.9005550
  C        2.6214500    -0.3695300     0.5422790
  H       -1.1885770     1.1070300    -1.1904720
  H        1.1885950     1.1070160     1.1904860
  H       -2.5841820     2.0394700     0.7381390
  H       -1.7612990     0.8994750     1.8215980
  H       -0.8497540     2.2033300     1.0283560
  H       -3.4964690     0.2440390    -0.7735820
  H       -2.8366250    -0.9717990     0.3436230
  H       -2.4263300    -1.0372830    -1.3837320
  H        2.5841850     2.0394630    -0.7381520
  H        1.7612340     0.8995120    -1.8216040
  H        0.8497500     2.2033730    -1.0282990
  H        3.4964760     0.2440360     0.7735650
  H        2.8366350    -0.9717700    -0.3436780
  H        2.4263480    -1.0373120     1.3836770
units angstrom
no_reorient  #important for SAPT in psi4, default
symmetry c1  #important for SAPT in psi4, default
}

set PROPERTIES_ORIGIN ["COM"]
properties('MP2/aug-cc-pvtz', properties = ['dipole'])
--------------------------------------------------------------------------

    Molecular point group: c1
  Charge       = 0
  Multiplicity = 1
  Basis Set: AUG-CC-PVTZ
    Blend: AUG-CC-PVTZ
  Basis Set: (AUG-CC-PVTZ AUX)
    Blend: AUG-CC-PVTZ-JKFIT

    Orbital Energies [Eh]
    ---------------------

    Doubly Occupied:

       1A    -92.160022     2A    -20.532012     3A    -20.531993
       4A    -11.282341     5A    -11.279922     6A    -11.242802
       7A    -11.242386     8A    -11.232094     9A    -11.231995
      10A     -9.131331    11A     -6.815444    12A     -6.815043
      13A     -6.814986    14A     -1.419945    15A     -1.312273
      16A     -1.117395    17A     -1.097099    18A     -0.960382
      19A     -0.956445    20A     -0.918856    21A     -0.835780
      22A     -0.762600    23A     -0.701979    24A     -0.656726
      25A     -0.654890    26A     -0.643646    27A     -0.608626
      28A     -0.589815    29A     -0.579125    30A     -0.576158
      31A     -0.563688    32A     -0.555278    33A     -0.538769
      34A     -0.519493    35A     -0.517721    36A     -0.509642
      37A     -0.506093    38A     -0.480337    39A     -0.463950
      40A     -0.454303    41A     -0.405409

  @DF-RHF Final Energy:  -782.73414279788710

   => Energetics <=

    Nuclear Repulsion Energy =            639.7684351620608822
    One-Electron Energy =               -2344.5675691559349616
    Two-Electron Energy =                 922.0649911959868632
    Total Energy =                       -782.7341427978871025
  Basis Set: (AUG-CC-PVTZ AUX)
    Blend: AUG-CC-PVTZ-RI
    Molecular point group: c1

    Geometry (in Angstrom), charge = 0, multiplicity = 1:

       Center              X                  Y                   Z               Mass
    ------------   -----------------  -----------------  -----------------  -----------------
         S            0.003149529165    -0.477766571034     0.000624474340    31.972071174400
         O            0.249726529165    -1.210709571034    -1.257590525660    15.994914619570
         O           -0.243427470835    -1.210698571034     1.258846474340    15.994914619570
         C           -1.462306070835     0.632115828966    -0.287906325660    12.000000000000
         C            1.429230529165     0.602294428966     0.281392474340    12.000000000000
         C           -1.655585470835     1.535852428966     0.901185474340    12.000000000000
         C           -2.618290470835    -0.312805571034    -0.541694525660    12.000000000000
         C            1.661864529165     1.535872428966    -0.899935525660    12.000000000000
         C            2.624598529165    -0.312805571034     0.542898474340    12.000000000000
         H           -1.185428470835     1.163754428966    -1.189852525660     1.007825032230
         H            1.191743529165     1.163740428966     1.191105474340     1.007825032230
         H           -2.581033470835     2.096194428966     0.738758474340     1.007825032230
         H           -1.758150470835     0.956199428966     1.822217474340     1.007825032230
         H           -0.846605470835     2.260054428966     1.028975474340     1.007825032230
         H           -3.493320470835     0.300763428966    -0.772962525660     1.007825032230
         H           -2.833476470835    -0.915074571034     0.344242474340     1.007825032230
         H           -2.423181470835    -0.980558571034    -1.383112525660     1.007825032230
         H            2.587333529165     2.096187428966    -0.737532525660     1.007825032230
         H            1.764382529165     0.956236428966    -1.820984525660     1.007825032230
         H            0.852898529165     2.260097428966    -1.027679525660     1.007825032230
         H            3.499624529165     0.300760428966     0.774184474340     1.007825032230
         H            2.839783529165    -0.915045571034    -0.343058525660     1.007825032230
         H            2.429496529165    -0.980587571034     1.384296474340     1.007825032230

  Basis Set: AUG-CC-PVTZ
    Blend: AUG-CC-PVTZ
  Basis Set: (AUG-CC-PVTZ AUX)
    Blend: AUG-CC-PVTZ-JKFIT
	 Reference Energy          =    -782.7341427978871025 [Eh]
	 Singles Energy            =      -0.0000000000000000 [Eh]
	 Same-Spin Energy          =      -0.4618061942339568 [Eh]
	 Opposite-Spin Energy      =      -1.4990881569282528 [Eh]
	 Correlation Energy        =      -1.9608943511622097 [Eh]
	 Total Energy              =    -784.6950371490493126 [Eh]

	 ================> DF-SCS-MP2 Energies <==================
	-----------------------------------------------------------
	 SCS Same-Spin Scale       =       0.3333333333333333 [-]
	 SCS Opposite-Spin Scale   =       1.2000000000000000 [-]
	 SCS Same-Spin Energy      =      -0.1539353980779856 [Eh]
	 SCS Opposite-Spin Energy  =      -1.7989057883139032 [Eh]
	 SCS Correlation Energy    =      -1.9528411863918889 [Eh]
	 SCS Total Energy          =    -784.6869839842789816 [Eh]
	-----------------------------------------------------------

  Dipole Moment: [D]
     X:     0.0035      Y:     4.4985      Z:     0.0088     Total:     4.4985

*** Psi4 exiting successfully. Buy a developer a beer!
