                               Psi4 1.3.2 release

  ==> Input File <==

--------------------------------------------------------------------------
#psi4
#
memory 32 gb

molecule  {
0 1
  S       -0.0136993     0.5226694    -0.0258908
  O       -0.2465190     1.2674450    -1.2581730
  O        0.2466330     1.2673540     1.2582600
  C        1.4260810    -0.5455830    -0.2807810
  C       -1.4261290    -0.5455610     0.2807710
  C        1.6587720    -1.4791420     0.9005390
  C        2.6214040     0.3695570    -0.5423650
  C       -1.6587760    -1.4791790    -0.9005120
  C       -2.6214500     0.3696170     0.5422190
  H        1.1885450    -1.1070370    -1.1904800
  H       -1.1886890    -1.1069770     1.1905200
  H        2.5840750    -2.0396740     0.7379460
  H        1.7616250    -0.8994820     1.8215340
  H        0.8496680    -2.2031720     1.0285220
  H        3.4965200    -0.2439880    -0.7733690
  H        2.8364310     0.9720400     0.3434690
  H        2.4263640     1.0371160    -1.3839510
  H       -2.5841960    -2.0395530    -0.7380340
  H       -1.7613990    -0.8995720    -1.8215670
  H       -0.8497680    -2.2033490    -1.0283050
  H       -3.4965670    -0.2439000     0.7732950
  H       -2.8364560     0.9719880    -0.3436930
  H       -2.4264190     1.0372780     1.3837270
units angstrom
no_reorient  #important for SAPT in psi4, default
symmetry c1  #important for SAPT in psi4, default
}

set PROPERTIES_ORIGIN ["COM"]
properties('MP2/aug-cc-pvtz', properties = ['dipole'])
--------------------------------------------------------------------------

    Molecular point group: c1
  Charge       = 0
  Multiplicity = 1
  Basis Set: AUG-CC-PVTZ
    Blend: AUG-CC-PVTZ
  Basis Set: (AUG-CC-PVTZ AUX)
    Blend: AUG-CC-PVTZ-JKFIT

    Orbital Energies [Eh]
    ---------------------

    Doubly Occupied:

       1A    -92.162672     2A    -20.536786     3A    -20.526088
       4A    -11.281670     5A    -11.281020     6A    -11.244403
       7A    -11.242711     8A    -11.233650     9A    -11.232503
      10A     -9.134221    11A     -6.818403    12A     -6.818091
      13A     -6.817772    14A     -1.421398    15A     -1.306382
      16A     -1.119448    17A     -1.096729    18A     -0.958947
      19A     -0.956256    20A     -0.925809    21A     -0.839630
      22A     -0.761572    23A     -0.704535    24A     -0.656916
      25A     -0.653448    26A     -0.644048    27A     -0.607134
      28A     -0.589847    29A     -0.578900    30A     -0.576888
      31A     -0.562737    32A     -0.555657    33A     -0.539975
      34A     -0.516018    35A     -0.515699    36A     -0.508353
      37A     -0.505152    38A     -0.478300    39A     -0.466741
      40A     -0.450365    41A     -0.414521

  @DF-RHF Final Energy:  -782.73394816910218

   => Energetics <=

    Nuclear Repulsion Energy =            640.7574969970808070
    One-Electron Energy =               -2346.5000973946616796
    Two-Electron Energy =                 923.0086522284786952
    Total Energy =                       -782.7339481691021774
  Basis Set: (AUG-CC-PVTZ AUX)
    Blend: AUG-CC-PVTZ-RI
    Molecular point group: c1

    Geometry (in Angstrom), charge = 0, multiplicity = 1:

       Center              X                  Y                   Z               Mass
    ------------   -----------------  -----------------  -----------------  -----------------
         S           -0.010783251322     0.466077918438    -0.020371242759    31.972071174400
         O           -0.243602951322     1.210853518438    -1.252653442759    15.994914619570
         O            0.249549048678     1.210762518438     1.263779557241    15.994914619570
         C            1.428997048678    -0.602174481562    -0.275261442759    12.000000000000
         C           -1.423212951322    -0.602152481562     0.286290557241    12.000000000000
         C            1.661688048678    -1.535733481562     0.906058557241    12.000000000000
         C            2.624320048678     0.312965518438    -0.536845442759    12.000000000000
         C           -1.655859951322    -1.535770481562    -0.894992442759    12.000000000000
         C           -2.618533951322     0.313025518438     0.547738557241    12.000000000000
         H            1.191461048678    -1.163628481562    -1.184960442759     1.007825032230
         H           -1.185772951322    -1.163568481562     1.196039557241     1.007825032230
         H            2.586991048678    -2.096265481562     0.743465557241     1.007825032230
         H            1.764541048678    -0.956073481562     1.827053557241     1.007825032230
         H            0.852584048678    -2.259763481562     1.034041557241     1.007825032230
         H            3.499436048678    -0.300579481562    -0.767849442759     1.007825032230
         H            2.839347048678     0.915448518438     0.348988557241     1.007825032230
         H            2.429280048678     0.980524518438    -1.378431442759     1.007825032230
         H           -2.581279951322    -2.096144481562    -0.732514442759     1.007825032230
         H           -1.758482951322    -0.956163481562    -1.816047442759     1.007825032230
         H           -0.846851951322    -2.259940481562    -1.022785442759     1.007825032230
         H           -3.493650951322    -0.300491481562     0.778814557241     1.007825032230
         H           -2.833539951322     0.915396518438    -0.338173442759     1.007825032230
         H           -2.423502951322     0.980686518438     1.389246557241     1.007825032230

  Basis Set: AUG-CC-PVTZ
    Blend: AUG-CC-PVTZ
  Basis Set: (AUG-CC-PVTZ AUX)
    Blend: AUG-CC-PVTZ-JKFIT
	 Reference Energy          =    -782.7339481691021774 [Eh]
	 Singles Energy            =      -0.0000000000000000 [Eh]
	 Same-Spin Energy          =      -0.4617815459353281 [Eh]
	 Opposite-Spin Energy      =      -1.4990431401523925 [Eh]
	 Correlation Energy        =      -1.9608246860877205 [Eh]
	 Total Energy              =    -784.6947728551898535 [Eh]

	 ================> DF-SCS-MP2 Energies <==================
	-----------------------------------------------------------
	 SCS Same-Spin Scale       =       0.3333333333333333 [-]
	 SCS Opposite-Spin Scale   =       1.2000000000000000 [-]
	 SCS Same-Spin Energy      =      -0.1539271819784427 [Eh]
	 SCS Opposite-Spin Energy  =      -1.7988517681828708 [Eh]
	 SCS Correlation Energy    =      -1.9527789501613135 [Eh]
	 SCS Total Energy          =    -784.6867271192635371 [Eh]
	-----------------------------------------------------------

  Dipole Moment: [D]
     X:    -0.1145      Y:    -4.5866      Z:    -0.2077     Total:     4.5928

*** Psi4 exiting successfully. Buy a developer a beer!
