                               Psi4 1.3.2 release

  ==> Input File <==

--------------------------------------------------------------------------
#psi4
#
memory 32 gb

molecule  {
0 1
  S       -0.0000030     0.5344770     0.0000290
  O       -0.2131350     1.1681840    -1.0877830
  O        0.2466330     1.2673540     1.2582600
  C        1.4260810    -0.5455830    -0.2807810
  C       -1.4261290    -0.5455610     0.2807710
  C        1.6587720    -1.4791420     0.9005390
  C        2.6214040     0.3695570    -0.5423650
  C       -1.6587760    -1.4791790    -0.9005120
  C       -2.6214500     0.3696170     0.5422190
  H        1.1885450    -1.1070370    -1.1904800
  H       -1.1886890    -1.1069770     1.1905200
  H        2.5840750    -2.0396740     0.7379460
  H        1.7616250    -0.8994820     1.8215340
  H        0.8496680    -2.2031720     1.0285220
  H        3.4965200    -0.2439880    -0.7733690
  H        2.8364310     0.9720400     0.3434690
  H        2.4263640     1.0371160    -1.3839510
  H       -2.5841960    -2.0395530    -0.7380340
  H       -1.7613990    -0.8995720    -1.8215670
  H       -0.8497680    -2.2033490    -1.0283050
  H       -3.4965670    -0.2439000     0.7732950
  H       -2.8364560     0.9719880    -0.3436930
  H       -2.4264190     1.0372780     1.3837270
units angstrom
no_reorient  #important for SAPT in psi4, default
symmetry c1  #important for SAPT in psi4, default
}

set PROPERTIES_ORIGIN ["COM"]
properties('MP2/aug-cc-pvtz', properties = ['dipole'])
--------------------------------------------------------------------------

    Molecular point group: c1
  Charge       = 0
  Multiplicity = 1
  Basis Set: AUG-CC-PVTZ
    Blend: AUG-CC-PVTZ
  Basis Set: (AUG-CC-PVTZ AUX)
    Blend: AUG-CC-PVTZ-JKFIT

    Orbital Energies [Eh]
    ---------------------

    Doubly Occupied:

       1A    -92.138837     2A    -20.538009     3A    -20.516330
       4A    -11.266980     5A    -11.266591     6A    -11.240009
       7A    -11.234755     8A    -11.229884     9A    -11.229661
      10A     -9.118004    11A     -6.804686    12A     -6.800839
      13A     -6.800340    14A     -1.532092    15A     -1.332129
      16A     -1.109996    17A     -1.089942    18A     -0.954179
      19A     -0.951367    20A     -0.910293    21A     -0.836189
      22A     -0.755206    23A     -0.720992    24A     -0.686105
      25A     -0.661263    26A     -0.647636    27A     -0.621051
      28A     -0.590846    29A     -0.584515    30A     -0.579703
      31A     -0.562152    32A     -0.553862    33A     -0.550690
      34A     -0.511376    35A     -0.510709    36A     -0.507357
      37A     -0.501068    38A     -0.489492    39A     -0.479314
      40A     -0.458437    41A     -0.404340

  @DF-RHF Final Energy:  -782.69588995910090

   => Energetics <=

    Nuclear Repulsion Energy =            651.4846059949089749
    One-Electron Energy =               -2367.8065423916132204
    Two-Electron Energy =                 933.6260464376032360
    Total Energy =                       -782.6958899591008958
  Basis Set: (AUG-CC-PVTZ AUX)
    Blend: AUG-CC-PVTZ-RI
    Molecular point group: c1

    Geometry (in Angstrom), charge = 0, multiplicity = 1:

       Center              X                  Y                   Z               Mass
    ------------   -----------------  -----------------  -----------------  -----------------
         S           -0.003563021904     0.485949395915    -0.018134049757    31.972071174400
         O           -0.216695021904     1.119656395915    -1.105946049757    15.994914619570
         O            0.243072978096     1.218826395915     1.240096950243    15.994914619570
         C            1.422520978096    -0.594110604085    -0.298944049757    12.000000000000
         C           -1.429689021904    -0.594088604085     0.262607950243    12.000000000000
         C            1.655211978096    -1.527669604085     0.882375950243    12.000000000000
         C            2.617843978096     0.321029395915    -0.560528049757    12.000000000000
         C           -1.662336021904    -1.527706604085    -0.918675049757    12.000000000000
         C           -2.625010021904     0.321089395915     0.524055950243    12.000000000000
         H            1.184984978096    -1.155564604085    -1.208643049757     1.007825032230
         H           -1.192249021904    -1.155504604085     1.172356950243     1.007825032230
         H            2.580514978096    -2.088201604085     0.719782950243     1.007825032230
         H            1.758064978096    -0.948009604085     1.803370950243     1.007825032230
         H            0.846107978096    -2.251699604085     1.010358950243     1.007825032230
         H            3.492959978096    -0.292515604085    -0.791532049757     1.007825032230
         H            2.832870978096     0.923512395915     0.325305950243     1.007825032230
         H            2.422803978096     0.988588395915    -1.402114049757     1.007825032230
         H           -2.587756021904    -2.088080604085    -0.756197049757     1.007825032230
         H           -1.764959021904    -0.948099604085    -1.839730049757     1.007825032230
         H           -0.853328021904    -2.251876604085    -1.046468049757     1.007825032230
         H           -3.500127021904    -0.292427604085     0.755131950243     1.007825032230
         H           -2.840016021904     0.923460395915    -0.361856049757     1.007825032230
         H           -2.429979021904     0.988750395915     1.365563950243     1.007825032230

  Basis Set: AUG-CC-PVTZ
    Blend: AUG-CC-PVTZ
  Basis Set: (AUG-CC-PVTZ AUX)
    Blend: AUG-CC-PVTZ-JKFIT
	 Reference Energy          =    -782.6958899591008958 [Eh]
	 Singles Energy            =      -0.0000000000000000 [Eh]
	 Same-Spin Energy          =      -0.4571361606427072 [Eh]
	 Opposite-Spin Energy      =      -1.4883112873277948 [Eh]
	 Correlation Energy        =      -1.9454474479705022 [Eh]
	 Total Energy              =    -784.6413374070714326 [Eh]

	 ================> DF-SCS-MP2 Energies <==================
	-----------------------------------------------------------
	 SCS Same-Spin Scale       =       0.3333333333333333 [-]
	 SCS Opposite-Spin Scale   =       1.2000000000000000 [-]
	 SCS Same-Spin Energy      =      -0.1523787202142357 [Eh]
	 SCS Opposite-Spin Energy  =      -1.7859735447933538 [Eh]
	 SCS Correlation Energy    =      -1.9383522650075895 [Eh]
	 SCS Total Energy          =    -784.6342422241084478 [Eh]
	-----------------------------------------------------------

  Dipole Moment: [D]
     X:    -0.1937      Y:    -3.8474      Z:    -0.8585     Total:     3.9467

*** Psi4 exiting successfully. Buy a developer a beer!
