                               Psi4 1.4a3.dev225

  ==> Input File <==

--------------------------------------------------------------------------
#psi4
#
memory 32 gb

molecule  {
0 1
  S        0.0000010    -0.5344910     0.0000050
  O        0.2465780    -1.2674340    -1.2582100
  O       -0.2465760    -1.2674230     1.2582270
  C       -1.4418286     0.5574980    -0.2838741
  C        1.4260820     0.5455700     0.2807730
  C       -1.6587340     1.4791280     0.9005660
  C       -2.6214390    -0.3695300    -0.5423140
  C        1.6587160     1.4791480    -0.9005550
  C        2.6214500    -0.3695300     0.5422790
  H       -1.1885770     1.1070300    -1.1904720
  H        1.1885950     1.1070160     1.1904860
  H       -2.5841820     2.0394700     0.7381390
  H       -1.7612990     0.8994750     1.8215980
  H       -0.8497540     2.2033300     1.0283560
  H       -3.4964690     0.2440390    -0.7735820
  H       -2.8366250    -0.9717990     0.3436230
  H       -2.4263300    -1.0372830    -1.3837320
  H        2.5841850     2.0394630    -0.7381520
  H        1.7612340     0.8995120    -1.8216040
  H        0.8497500     2.2033730    -1.0282990
  H        3.4964760     0.2440360     0.7735650
  H        2.8366350    -0.9717700    -0.3436780
  H        2.4263480    -1.0373120     1.3836770
units angstrom
no_reorient  #important for SAPT in psi4, default
symmetry c1  #important for SAPT in psi4, default
}

set PROPERTIES_ORIGIN ["COM"]
properties('MP2/aug-cc-pvtz', properties = ['dipole'])
--------------------------------------------------------------------------

    Molecular point group: c1
  Charge       = 0
  Multiplicity = 1
  Basis Set: AUG-CC-PVTZ
    Blend: AUG-CC-PVTZ
  Basis Set: (AUG-CC-PVTZ AUX)
    Blend: AUG-CC-PVTZ-JKFIT

    Orbital Energies [Eh]
    ---------------------

    Doubly Occupied:

       1A    -92.161784     2A    -20.532444     3A    -20.532421
       4A    -11.281218     5A    -11.280372     6A    -11.242927
       7A    -11.242670     8A    -11.232441     9A    -11.232298
      10A     -9.133084    11A     -6.817256    12A     -6.816859
      13A     -6.816758    14A     -1.421284    15A     -1.313005
      16A     -1.117522    17A     -1.096249    18A     -0.958756
      19A     -0.956441    20A     -0.921707    21A     -0.837100
      22A     -0.761970    23A     -0.703214    24A     -0.657172
      25A     -0.653533    26A     -0.643872    27A     -0.608385
      28A     -0.589523    29A     -0.578975    30A     -0.576786
      31A     -0.562882    32A     -0.555372    33A     -0.539358
      34A     -0.516665    35A     -0.516113    36A     -0.508987
      37A     -0.505459    38A     -0.480815    39A     -0.465890
      40A     -0.454530    41A     -0.410309

  @DF-RHF Final Energy:  -782.73577643535418

   => Energetics <=

    Nuclear Repulsion Energy =            640.3289793906577643
    One-Electron Energy =               -2345.6607034827197822
    Two-Electron Energy =                 922.5959476567077218
    Total Energy =                       -782.7357764353541825
  Basis Set: (AUG-CC-PVTZ AUX)
    Blend: AUG-CC-PVTZ-RI
    Molecular point group: c1

    Geometry (in Angstrom), charge = 0, multiplicity = 1:

       Center              X                  Y                   Z               Mass
    ------------   -----------------  -----------------  -----------------  -----------------
         S            0.001260349055    -0.476335780576     0.000252515519    31.972071174400
         O            0.247837349055    -1.209278780576    -1.257962484481    15.994914619570
         O           -0.245316650945    -1.209267780576     1.258474515519    15.994914619570
         C           -1.440569250945     0.615653219424    -0.283626584481    12.000000000000
         C            1.427341349055     0.603725219424     0.281020515519    12.000000000000
         C           -1.657474650945     1.537283219424     0.900813515519    12.000000000000
         C           -2.620179650945    -0.311374780576    -0.542066484481    12.000000000000
         C            1.659975349055     1.537303219424    -0.900307484481    12.000000000000
         C            2.622709349055    -0.311374780576     0.542526515519    12.000000000000
         H           -1.187317650945     1.165185219424    -1.190224484481     1.007825032230
         H            1.189854349055     1.165171219424     1.190733515519     1.007825032230
         H           -2.582922650945     2.097625219424     0.738386515519     1.007825032230
         H           -1.760039650945     0.957630219424     1.821845515519     1.007825032230
         H           -0.848494650945     2.261485219424     1.028603515519     1.007825032230
         H           -3.495209650945     0.302194219424    -0.773334484481     1.007825032230
         H           -2.835365650945    -0.913643780576     0.343870515519     1.007825032230
         H           -2.425070650945    -0.979127780576    -1.383484484481     1.007825032230
         H            2.585444349055     2.097618219424    -0.737904484481     1.007825032230
         H            1.762493349055     0.957667219424    -1.821356484481     1.007825032230
         H            0.851009349055     2.261528219424    -1.028051484481     1.007825032230
         H            3.497735349055     0.302191219424     0.773812515519     1.007825032230
         H            2.837894349055    -0.913614780576    -0.343430484481     1.007825032230
         H            2.427607349055    -0.979156780576     1.383924515519     1.007825032230

  Basis Set: AUG-CC-PVTZ
    Blend: AUG-CC-PVTZ
  Basis Set: (AUG-CC-PVTZ AUX)
    Blend: AUG-CC-PVTZ-JKFIT
	 Reference Energy          =    -782.7357764353541825 [Eh]
	 Singles Energy            =      -0.0000000000000000 [Eh]
	 Same-Spin Energy          =      -0.4616511034584369 [Eh]
	 Opposite-Spin Energy      =      -1.4988269376350560 [Eh]
	 Correlation Energy        =      -1.9604780410934930 [Eh]
	 Total Energy              =    -784.6962544764476206 [Eh]

	 ================> DF-SCS-MP2 Energies <==================
	-----------------------------------------------------------
	 SCS Same-Spin Scale       =       0.3333333333333333 [-]
	 SCS Opposite-Spin Scale   =       1.2000000000000000 [-]
	 SCS Same-Spin Energy      =      -0.1538837011528123 [Eh]
	 SCS Opposite-Spin Energy  =      -1.7985923251620672 [Eh]
	 SCS Correlation Energy    =      -1.9524760263148795 [Eh]
	 SCS Total Energy          =    -784.6882524616690944 [Eh]
	-----------------------------------------------------------

  Dipole Moment: [D]
     X:     0.0039      Y:     4.5005      Z:     0.0035     Total:     4.5005

*** Psi4 exiting successfully. Buy a developer a beer!
