                               Psi4 1.3.2 release

  ==> Input File <==

--------------------------------------------------------------------------
#psi4
#
memory 32 gb

molecule  {
0 1
  S       -0.0000030     0.5344770     0.0000290
  O       -0.2465190     1.2674450    -1.2581730
  O        0.2466330     1.2673540     1.2582600
  C        1.4260810    -0.5455830    -0.2807810
  C       -1.4261290    -0.5455610     0.2807710
  C        1.6587720    -1.4791420     0.9005390
  C        2.6214040     0.3695570    -0.5423650
  C       -1.6587760    -1.4791790    -0.9005120
  C       -2.6214500     0.3696170     0.5422190
  H        1.1885450    -1.1070370    -1.1904800
  H       -1.1886890    -1.1069770     1.1905200
  H        2.5840750    -2.0396740     0.7379460
  H        1.7616250    -0.8994820     1.8215340
  H        0.8496680    -2.2031720     1.0285220
  H        3.4965200    -0.2439880    -0.7733690
  H        2.8364310     0.9720400     0.3434690
  H        2.4263640     1.0371160    -1.3839510
  H       -2.5841960    -2.0395530    -0.7380340
  H       -1.7613990    -0.8995720    -1.8215670
  H       -0.8497680    -2.2033490    -1.0283050
  H       -3.4965670    -0.2439000     0.7732950
  H       -2.8364560     0.9719880    -0.3436930
  H       -2.4264190     1.0372780     1.3837270
units angstrom
no_reorient  #important for SAPT in psi4, default
symmetry c1  #important for SAPT in psi4, default
}

set PROPERTIES_ORIGIN ["COM"]
properties('MP2/aug-cc-pvtz', properties = ['dipole'])
--------------------------------------------------------------------------

    Molecular point group: c1
  Charge       = 0
  Multiplicity = 1
  Basis Set: AUG-CC-PVTZ
    Blend: AUG-CC-PVTZ
  Basis Set: (AUG-CC-PVTZ AUX)
    Blend: AUG-CC-PVTZ-JKFIT

    Orbital Energies [Eh]
    ---------------------

    Doubly Occupied:

       1A    -92.162776     2A    -20.532652     3A    -20.532633
       4A    -11.280615     5A    -11.280599     6A    -11.242980
       7A    -11.242973     8A    -11.232627     9A    -11.232622
      10A     -9.134107    11A     -6.818321    12A     -6.817919
      13A     -6.817789    14A     -1.422148    15A     -1.313433
      16A     -1.117709    17A     -1.095677    18A     -0.958029
      19A     -0.956113    20A     -0.923687    21A     -0.838029
      22A     -0.761480    23A     -0.703986    24A     -0.657467
      25A     -0.652754    26A     -0.643950    27A     -0.608142
      28A     -0.589396    29A     -0.578937    30A     -0.577168
      31A     -0.562399    32A     -0.555439    33A     -0.539789
      34A     -0.515325    35A     -0.515068    36A     -0.508012
      37A     -0.504796    38A     -0.481039    39A     -0.467200
      40A     -0.454587    41A     -0.413275

  @DF-RHF Final Energy:  -782.73614020099501

   => Energetics <=

    Nuclear Repulsion Energy =            640.7074664343632548
    One-Electron Energy =               -2346.3999176778379478
    Two-Electron Energy =                 922.9563110424797969
    Total Energy =                       -782.7361402009950098
  Basis Set: (AUG-CC-PVTZ AUX)
    Blend: AUG-CC-PVTZ-RI
    Molecular point group: c1

    Geometry (in Angstrom), charge = 0, multiplicity = 1:

       Center              X                  Y                   Z               Mass
    ------------   -----------------  -----------------  -----------------  -----------------
         S           -0.000004888584     0.475369960513     0.000026456364    31.972071174400
         O           -0.246520888584     1.208337960513    -1.258175543636    15.994914619570
         O            0.246631111416     1.208246960513     1.258257456364    15.994914619570
         C            1.426079111416    -0.604690039487    -0.280783543636    12.000000000000
         C           -1.426130888584    -0.604668039487     0.280768456364    12.000000000000
         C            1.658770111416    -1.538249039487     0.900536456364    12.000000000000
         C            2.621402111416     0.310449960513    -0.542367543636    12.000000000000
         C           -1.658777888584    -1.538286039487    -0.900514543636    12.000000000000
         C           -2.621451888584     0.310509960513     0.542216456364    12.000000000000
         H            1.188543111416    -1.166144039487    -1.190482543636     1.007825032230
         H           -1.188690888584    -1.166084039487     1.190517456364     1.007825032230
         H            2.584073111416    -2.098781039487     0.737943456364     1.007825032230
         H            1.761623111416    -0.958589039487     1.821531456364     1.007825032230
         H            0.849666111416    -2.262279039487     1.028519456364     1.007825032230
         H            3.496518111416    -0.303095039487    -0.773371543636     1.007825032230
         H            2.836429111416     0.912932960513     0.343466456364     1.007825032230
         H            2.426362111416     0.978008960513    -1.383953543636     1.007825032230
         H           -2.584197888584    -2.098660039487    -0.738036543636     1.007825032230
         H           -1.761400888584    -0.958679039487    -1.821569543636     1.007825032230
         H           -0.849769888584    -2.262456039487    -1.028307543636     1.007825032230
         H           -3.496568888584    -0.303007039487     0.773292456364     1.007825032230
         H           -2.836457888584     0.912880960513    -0.343695543636     1.007825032230
         H           -2.426420888584     0.978170960513     1.383724456364     1.007825032230

  Basis Set: AUG-CC-PVTZ
    Blend: AUG-CC-PVTZ
  Basis Set: (AUG-CC-PVTZ AUX)
    Blend: AUG-CC-PVTZ-JKFIT
	 Reference Energy          =    -782.7361402009950098 [Eh]
	 Singles Energy            =      -0.0000000000000000 [Eh]
	 Same-Spin Energy          =      -0.4615835290632494 [Eh]
	 Opposite-Spin Energy      =      -1.4987113179716580 [Eh]
	 Correlation Energy        =      -1.9602948470349073 [Eh]
	 Total Energy              =    -784.6964350480299117 [Eh]

	 ================> DF-SCS-MP2 Energies <==================
	-----------------------------------------------------------
	 SCS Same-Spin Scale       =       0.3333333333333333 [-]
	 SCS Opposite-Spin Scale   =       1.2000000000000000 [-]
	 SCS Same-Spin Energy      =      -0.1538611763544165 [Eh]
	 SCS Opposite-Spin Energy  =      -1.7984535815659897 [Eh]
	 SCS Correlation Energy    =      -1.9523147579204061 [Eh]
	 SCS Total Energy          =    -784.6884549589153721 [Eh]
	-----------------------------------------------------------

  Dipole Moment: [D]
     X:    -0.0004      Y:    -4.5033      Z:    -0.0001     Total:     4.5033

*** Psi4 exiting successfully. Buy a developer a beer!
