                               Psi4 1.3.2 release

  ==> Input File <==

--------------------------------------------------------------------------
#psi4
#
memory 32 gb

molecule  {
0 1
  S        0.0590824     0.5783830     0.1027744
  O       -0.2465190     1.2674450    -1.2581730
  O        0.2466330     1.2673540     1.2582600
  C        1.4260810    -0.5455830    -0.2807810
  C       -1.4261290    -0.5455610     0.2807710
  C        1.6587720    -1.4791420     0.9005390
  C        2.6214040     0.3695570    -0.5423650
  C       -1.6587760    -1.4791790    -0.9005120
  C       -2.6214500     0.3696170     0.5422190
  H        1.1885450    -1.1070370    -1.1904800
  H       -1.1886890    -1.1069770     1.1905200
  H        2.5840750    -2.0396740     0.7379460
  H        1.7616250    -0.8994820     1.8215340
  H        0.8496680    -2.2031720     1.0285220
  H        3.4965200    -0.2439880    -0.7733690
  H        2.8364310     0.9720400     0.3434690
  H        2.4263640     1.0371160    -1.3839510
  H       -2.5841960    -2.0395530    -0.7380340
  H       -1.7613990    -0.8995720    -1.8215670
  H       -0.8497680    -2.2033490    -1.0283050
  H       -3.4965670    -0.2439000     0.7732950
  H       -2.8364560     0.9719880    -0.3436930
  H       -2.4264190     1.0372780     1.3837270
units angstrom
no_reorient  #important for SAPT in psi4, default
symmetry c1  #important for SAPT in psi4, default
}

set PROPERTIES_ORIGIN ["COM"]
properties('MP2/aug-cc-pvtz', properties = ['dipole'])
--------------------------------------------------------------------------

    Molecular point group: c1
  Charge       = 0
  Multiplicity = 1
  Basis Set: AUG-CC-PVTZ
    Blend: AUG-CC-PVTZ
  Basis Set: (AUG-CC-PVTZ AUX)
    Blend: AUG-CC-PVTZ-JKFIT

    Orbital Energies [Eh]
    ---------------------

    Doubly Occupied:

       1A    -92.157932     2A    -20.558067     3A    -20.515591
       4A    -11.279624     5A    -11.275579     6A    -11.244345
       7A    -11.236999     8A    -11.233396     9A    -11.228121
      10A     -9.131456    11A     -6.816180    12A     -6.815231
      13A     -6.814494    14A     -1.479856    15A     -1.294422
      16A     -1.113516    17A     -1.088371    18A     -0.959132
      19A     -0.950792    20A     -0.915192    21A     -0.831626
      22A     -0.764389    23A     -0.708785    24A     -0.670326
      25A     -0.651052    26A     -0.648752    27A     -0.616807
      28A     -0.590446    29A     -0.581628    30A     -0.578348
      31A     -0.563491    32A     -0.554499    33A     -0.548616
      34A     -0.515656    35A     -0.514418    36A     -0.506873
      37A     -0.501771    38A     -0.480243    39A     -0.469887
      40A     -0.443239    41A     -0.399837

  @DF-RHF Final Energy:  -782.71158861177958

   => Energetics <=

    Nuclear Repulsion Energy =            640.7469296826585605
    One-Electron Energy =               -2346.4190640958618133
    Two-Electron Energy =                 922.9605458014237911
    Total Energy =                       -782.7115886117795753
  Basis Set: (AUG-CC-PVTZ AUX)
    Blend: AUG-CC-PVTZ-RI
    Molecular point group: c1

    Geometry (in Angstrom), charge = 0, multiplicity = 1:

       Center              X                  Y                   Z               Mass
    ------------   -----------------  -----------------  -----------------  -----------------
         S            0.046492623424     0.509921977801     0.080882394893    31.972071174400
         O           -0.259108776576     1.198983977801    -1.280065005107    15.994914619570
         O            0.234043223424     1.198892977801     1.236367994893    15.994914619570
         C            1.413491223424    -0.614044022199    -0.302673005107    12.000000000000
         C           -1.438718776576    -0.614022022199     0.258878994893    12.000000000000
         C            1.646182223424    -1.547603022199     0.878646994893    12.000000000000
         C            2.608814223424     0.301095977801    -0.564257005107    12.000000000000
         C           -1.671365776576    -1.547640022199    -0.922404005107    12.000000000000
         C           -2.634039776576     0.301155977801     0.520326994893    12.000000000000
         H            1.175955223424    -1.175498022199    -1.212372005107     1.007825032230
         H           -1.201278776576    -1.175438022199     1.168627994893     1.007825032230
         H            2.571485223424    -2.108135022199     0.716053994893     1.007825032230
         H            1.749035223424    -0.967943022199     1.799641994893     1.007825032230
         H            0.837078223424    -2.271633022199     1.006629994893     1.007825032230
         H            3.483930223424    -0.312449022199    -0.795261005107     1.007825032230
         H            2.823841223424     0.903578977801     0.321576994893     1.007825032230
         H            2.413774223424     0.968654977801    -1.405843005107     1.007825032230
         H           -2.596785776576    -2.108014022199    -0.759926005107     1.007825032230
         H           -1.773988776576    -0.968033022199    -1.843459005107     1.007825032230
         H           -0.862357776576    -2.271810022199    -1.050197005107     1.007825032230
         H           -3.509156776576    -0.312361022199     0.751402994893     1.007825032230
         H           -2.849045776576     0.903526977801    -0.365585005107     1.007825032230
         H           -2.439008776576     0.968816977801     1.361834994893     1.007825032230

  Basis Set: AUG-CC-PVTZ
    Blend: AUG-CC-PVTZ
  Basis Set: (AUG-CC-PVTZ AUX)
    Blend: AUG-CC-PVTZ-JKFIT
	 Reference Energy          =    -782.7115886117795753 [Eh]
	 Singles Energy            =      -0.0000000000000000 [Eh]
	 Same-Spin Energy          =      -0.4604789326720350 [Eh]
	 Opposite-Spin Energy      =      -1.4974380955277526 [Eh]
	 Correlation Energy        =      -1.9579170281997877 [Eh]
	 Total Energy              =    -784.6695056399793202 [Eh]

	 ================> DF-SCS-MP2 Energies <==================
	-----------------------------------------------------------
	 SCS Same-Spin Scale       =       0.3333333333333333 [-]
	 SCS Opposite-Spin Scale   =       1.2000000000000000 [-]
	 SCS Same-Spin Energy      =      -0.1534929775573450 [Eh]
	 SCS Opposite-Spin Energy  =      -1.7969257146333031 [Eh]
	 SCS Correlation Energy    =      -1.9504186921906481 [Eh]
	 SCS Total Energy          =    -784.6620073039701992 [Eh]
	-----------------------------------------------------------

  Dipole Moment: [D]
     X:     0.4984      Y:    -4.2169      Z:     0.8202     Total:     4.3247

*** Psi4 exiting successfully. Buy a developer a beer!
