                               Psi4 1.3.2 release

  ==> Input File <==

--------------------------------------------------------------------------
#psi4
#
memory 32 gb

molecule  {
0 1
  S       -0.0000030     0.5344770     0.0000290
  O       -0.2599130     1.1294113    -1.3264643
  O        0.2466330     1.2673540     1.2582600
  C        1.4260810    -0.5455830    -0.2807810
  C       -1.4261290    -0.5455610     0.2807710
  C        1.6587720    -1.4791420     0.9005390
  C        2.6214040     0.3695570    -0.5423650
  C       -1.6587760    -1.4791790    -0.9005120
  C       -2.6214500     0.3696170     0.5422190
  H        1.1885450    -1.1070370    -1.1904800
  H       -1.1886890    -1.1069770     1.1905200
  H        2.5840750    -2.0396740     0.7379460
  H        1.7616250    -0.8994820     1.8215340
  H        0.8496680    -2.2031720     1.0285220
  H        3.4965200    -0.2439880    -0.7733690
  H        2.8364310     0.9720400     0.3434690
  H        2.4263640     1.0371160    -1.3839510
  H       -2.5841960    -2.0395530    -0.7380340
  H       -1.7613990    -0.8995720    -1.8215670
  H       -0.8497680    -2.2033490    -1.0283050
  H       -3.4965670    -0.2439000     0.7732950
  H       -2.8364560     0.9719880    -0.3436930
  H       -2.4264190     1.0372780     1.3837270
units angstrom
no_reorient  #important for SAPT in psi4, default
symmetry c1  #important for SAPT in psi4, default
}

set PROPERTIES_ORIGIN ["COM"]
properties('MP2/aug-cc-pvtz', properties = ['dipole'])
--------------------------------------------------------------------------

    Molecular point group: c1
  Charge       = 0
  Multiplicity = 1
  Basis Set: AUG-CC-PVTZ
    Blend: AUG-CC-PVTZ
  Basis Set: (AUG-CC-PVTZ AUX)
    Blend: AUG-CC-PVTZ-JKFIT

    Orbital Energies [Eh]
    ---------------------

    Doubly Occupied:

       1A    -92.164155     2A    -20.541383     3A    -20.533804
       4A    -11.277527     5A    -11.277496     6A    -11.240896
       7A    -11.239552     8A    -11.232096     9A    -11.231971
      10A     -9.135327    11A     -6.819502    12A     -6.819287
      13A     -6.818924    14A     -1.424386    15A     -1.321793
      16A     -1.113989    17A     -1.093774    18A     -0.956699
      19A     -0.954264    20A     -0.920999    21A     -0.836613
      22A     -0.761736    23A     -0.703478    24A     -0.657905
      25A     -0.651427    26A     -0.644540    27A     -0.610696
      28A     -0.588138    29A     -0.577888    30A     -0.576997
      31A     -0.560864    32A     -0.552808    33A     -0.540003
      34A     -0.513999    35A     -0.513358    36A     -0.506989
      37A     -0.502737    38A     -0.487344    39A     -0.466705
      40A     -0.460050    41A     -0.410975

  @DF-RHF Final Energy:  -782.73168478998423

   => Energetics <=

    Nuclear Repulsion Energy =            641.4503899793185155
    One-Electron Energy =               -2347.8780039532712181
    Two-Electron Energy =                 923.6959291839684738
    Total Energy =                       -782.7316847899842287
  Basis Set: (AUG-CC-PVTZ AUX)
    Blend: AUG-CC-PVTZ-RI
    Molecular point group: c1

    Geometry (in Angstrom), charge = 0, multiplicity = 1:

       Center              X                  Y                   Z               Mass
    ------------   -----------------  -----------------  -----------------  -----------------
         S            0.001422670656     0.490081867630     0.007305079356    31.972071174400
         O           -0.258487329344     1.085016167630    -1.319188220644    15.994914619570
         O            0.248058670656     1.222958867630     1.265536079356    15.994914619570
         C            1.427506670656    -0.589978132370    -0.273504920644    12.000000000000
         C           -1.424703329344    -0.589956132370     0.288047079356    12.000000000000
         C            1.660197670656    -1.523537132370     0.907815079356    12.000000000000
         C            2.622829670656     0.325161867630    -0.535088920644    12.000000000000
         C           -1.657350329344    -1.523574132370    -0.893235920644    12.000000000000
         C           -2.620024329344     0.325221867630     0.549495079356    12.000000000000
         H            1.189970670656    -1.151432132370    -1.183203920644     1.007825032230
         H           -1.187263329344    -1.151372132370     1.197796079356     1.007825032230
         H            2.585500670656    -2.084069132370     0.745222079356     1.007825032230
         H            1.763050670656    -0.943877132370     1.828810079356     1.007825032230
         H            0.851093670656    -2.247567132370     1.035798079356     1.007825032230
         H            3.497945670656    -0.288383132370    -0.766092920644     1.007825032230
         H            2.837856670656     0.927644867630     0.350745079356     1.007825032230
         H            2.427789670656     0.992720867630    -1.376674920644     1.007825032230
         H           -2.582770329344    -2.083948132370    -0.730757920644     1.007825032230
         H           -1.759973329344    -0.943967132370    -1.814290920644     1.007825032230
         H           -0.848342329344    -2.247744132370    -1.021028920644     1.007825032230
         H           -3.495141329344    -0.288295132370     0.780571079356     1.007825032230
         H           -2.835030329344     0.927592867630    -0.336416920644     1.007825032230
         H           -2.424993329344     0.992882867630     1.391003079356     1.007825032230

  Basis Set: AUG-CC-PVTZ
    Blend: AUG-CC-PVTZ
  Basis Set: (AUG-CC-PVTZ AUX)
    Blend: AUG-CC-PVTZ-JKFIT
	 Reference Energy          =    -782.7316847899842287 [Eh]
	 Singles Energy            =      -0.0000000000000000 [Eh]
	 Same-Spin Energy          =      -0.4621229838095525 [Eh]
	 Opposite-Spin Energy      =      -1.4998576654603732 [Eh]
	 Correlation Energy        =      -1.9619806492699259 [Eh]
	 Total Energy              =    -784.6936654392541186 [Eh]

	 ================> DF-SCS-MP2 Energies <==================
	-----------------------------------------------------------
	 SCS Same-Spin Scale       =       0.3333333333333333 [-]
	 SCS Opposite-Spin Scale   =       1.2000000000000000 [-]
	 SCS Same-Spin Energy      =      -0.1540409946031842 [Eh]
	 SCS Opposite-Spin Energy  =      -1.7998291985524479 [Eh]
	 SCS Correlation Energy    =      -1.9538701931556322 [Eh]
	 SCS Total Energy          =    -784.6855549831398093 [Eh]
	-----------------------------------------------------------

  Dipole Moment: [D]
     X:     0.0395      Y:    -4.1474      Z:     0.1461     Total:     4.1502

*** Psi4 exiting successfully. Buy a developer a beer!
