                               Psi4 1.3.2 release

  ==> Input File <==

--------------------------------------------------------------------------
#psi4
#
memory 32 gb

molecule  {
0 1
  S        0.0769526     0.6332192    -0.0173854
  O       -0.2465190     1.2674450    -1.2581730
  O        0.2466330     1.2673540     1.2582600
  C        1.4260810    -0.5455830    -0.2807810
  C       -1.4261290    -0.5455610     0.2807710
  C        1.6587720    -1.4791420     0.9005390
  C        2.6214040     0.3695570    -0.5423650
  C       -1.6587760    -1.4791790    -0.9005120
  C       -2.6214500     0.3696170     0.5422190
  H        1.1885450    -1.1070370    -1.1904800
  H       -1.1886890    -1.1069770     1.1905200
  H        2.5840750    -2.0396740     0.7379460
  H        1.7616250    -0.8994820     1.8215340
  H        0.8496680    -2.2031720     1.0285220
  H        3.4965200    -0.2439880    -0.7733690
  H        2.8364310     0.9720400     0.3434690
  H        2.4263640     1.0371160    -1.3839510
  H       -2.5841960    -2.0395530    -0.7380340
  H       -1.7613990    -0.8995720    -1.8215670
  H       -0.8497680    -2.2033490    -1.0283050
  H       -3.4965670    -0.2439000     0.7732950
  H       -2.8364560     0.9719880    -0.3436930
  H       -2.4264190     1.0372780     1.3837270
units angstrom
no_reorient  #important for SAPT in psi4, default
symmetry c1  #important for SAPT in psi4, default
}

set PROPERTIES_ORIGIN ["COM"]
properties('MP2/aug-cc-pvtz', properties = ['dipole'])
--------------------------------------------------------------------------

    Molecular point group: c1
  Charge       = 0
  Multiplicity = 1
  Basis Set: AUG-CC-PVTZ
    Blend: AUG-CC-PVTZ
  Basis Set: (AUG-CC-PVTZ AUX)
    Blend: AUG-CC-PVTZ-JKFIT

    Orbital Energies [Eh]
    ---------------------

    Doubly Occupied:

       1A    -92.161651     2A    -20.543695     3A    -20.542785
       4A    -11.279431     5A    -11.268043     6A    -11.243140
       7A    -11.234756     8A    -11.232991     9A    -11.223112
      10A     -9.132961    11A     -6.817258    12A     -6.817174
      13A     -6.816652    14A     -1.453702    15A     -1.349026
      16A     -1.111380    17A     -1.080128    18A     -0.959264
      19A     -0.946255    20A     -0.907845    21A     -0.822699
      22A     -0.763353    23A     -0.702972    24A     -0.666444
      25A     -0.652884    26A     -0.643017    27A     -0.617259
      28A     -0.588281    29A     -0.580431    30A     -0.576697
      31A     -0.561451    32A     -0.551787    33A     -0.542021
      34A     -0.514859    35A     -0.513824    36A     -0.502376
      37A     -0.501241    38A     -0.495952    39A     -0.475043
      40A     -0.473129    41A     -0.390157

  @DF-RHF Final Energy:  -782.72536241222770

   => Energetics <=

    Nuclear Repulsion Energy =            640.2286089526789965
    One-Electron Energy =               -2345.3936940270932610
    Two-Electron Energy =                 922.4397226621865684
    Total Energy =                       -782.7253624122276960
  Basis Set: (AUG-CC-PVTZ AUX)
    Blend: AUG-CC-PVTZ-RI
    Molecular point group: c1

    Geometry (in Angstrom), charge = 0, multiplicity = 1:

       Center              X                  Y                   Z               Mass
    ------------   -----------------  -----------------  -----------------  -----------------
         S            0.060555654886     0.553075563424    -0.013677881309    31.972071174400
         O           -0.262915945114     1.187301363424    -1.254465481309    15.994914619570
         O            0.230236054886     1.187210363424     1.261967518691    15.994914619570
         C            1.409684054886    -0.625726636576    -0.277073481309    12.000000000000
         C           -1.442525945114    -0.625704636576     0.284478518691    12.000000000000
         C            1.642375054886    -1.559285636576     0.904246518691    12.000000000000
         C            2.605007054886     0.289413363424    -0.538657481309    12.000000000000
         C           -1.675172945114    -1.559322636576    -0.896804481309    12.000000000000
         C           -2.637846945114     0.289473363424     0.545926518691    12.000000000000
         H            1.172148054886    -1.187180636576    -1.186772481309     1.007825032230
         H           -1.205085945114    -1.187120636576     1.194227518691     1.007825032230
         H            2.567678054886    -2.119817636576     0.741653518691     1.007825032230
         H            1.745228054886    -0.979625636576     1.825241518691     1.007825032230
         H            0.833271054886    -2.283315636576     1.032229518691     1.007825032230
         H            3.480123054886    -0.324131636576    -0.769661481309     1.007825032230
         H            2.820034054886     0.891896363424     0.347176518691     1.007825032230
         H            2.409967054886     0.956972363424    -1.380243481309     1.007825032230
         H           -2.600592945114    -2.119696636576    -0.734326481309     1.007825032230
         H           -1.777795945114    -0.979715636576    -1.817859481309     1.007825032230
         H           -0.866164945114    -2.283492636576    -1.024597481309     1.007825032230
         H           -3.512963945114    -0.324043636576     0.777002518691     1.007825032230
         H           -2.852852945114     0.891844363424    -0.339985481309     1.007825032230
         H           -2.442815945114     0.957134363424     1.387434518691     1.007825032230

  Basis Set: AUG-CC-PVTZ
    Blend: AUG-CC-PVTZ
  Basis Set: (AUG-CC-PVTZ AUX)
    Blend: AUG-CC-PVTZ-JKFIT
	 Reference Energy          =    -782.7253624122276960 [Eh]
	 Singles Energy            =      -0.0000000000000000 [Eh]
	 Same-Spin Energy          =      -0.4604926610838240 [Eh]
	 Opposite-Spin Energy      =      -1.4974472298181292 [Eh]
	 Correlation Energy        =      -1.9579398909019532 [Eh]
	 Total Energy              =    -784.6833023031296079 [Eh]

	 ================> DF-SCS-MP2 Energies <==================
	-----------------------------------------------------------
	 SCS Same-Spin Scale       =       0.3333333333333333 [-]
	 SCS Opposite-Spin Scale   =       1.2000000000000000 [-]
	 SCS Same-Spin Energy      =      -0.1534975536946080 [Eh]
	 SCS Opposite-Spin Energy  =      -1.7969366757817549 [Eh]
	 SCS Correlation Energy    =      -1.9504342294763628 [Eh]
	 SCS Total Energy          =    -784.6757966417040961 [Eh]
	-----------------------------------------------------------

  Dipole Moment: [D]
     X:     0.6652      Y:    -3.7955      Z:    -0.0787     Total:     3.8541

*** Psi4 exiting successfully. Buy a developer a beer!
