                               Psi4 1.3.2 release

  ==> Input File <==

--------------------------------------------------------------------------
#psi4
#
memory 32 gb

molecule  {
0 1
  S       -0.0000030     0.5344770     0.0000290
  O       -0.2465190     1.2674450    -1.2581730
  O        0.2691867     1.2551171     1.2607026
  C        1.4260810    -0.5455830    -0.2807810
  C       -1.4261290    -0.5455610     0.2807710
  C        1.6587720    -1.4791420     0.9005390
  C        2.6214040     0.3695570    -0.5423650
  C       -1.6587760    -1.4791790    -0.9005120
  C       -2.6214500     0.3696170     0.5422190
  H        1.1885450    -1.1070370    -1.1904800
  H       -1.1886890    -1.1069770     1.1905200
  H        2.5840750    -2.0396740     0.7379460
  H        1.7616250    -0.8994820     1.8215340
  H        0.8496680    -2.2031720     1.0285220
  H        3.4965200    -0.2439880    -0.7733690
  H        2.8364310     0.9720400     0.3434690
  H        2.4263640     1.0371160    -1.3839510
  H       -2.5841960    -2.0395530    -0.7380340
  H       -1.7613990    -0.8995720    -1.8215670
  H       -0.8497680    -2.2033490    -1.0283050
  H       -3.4965670    -0.2439000     0.7732950
  H       -2.8364560     0.9719880    -0.3436930
  H       -2.4264190     1.0372780     1.3837270
units angstrom
no_reorient  #important for SAPT in psi4, default
symmetry c1  #important for SAPT in psi4, default
}

set PROPERTIES_ORIGIN ["COM"]
properties('MP2/aug-cc-pvtz', properties = ['dipole'])
--------------------------------------------------------------------------

    Molecular point group: c1
  Charge       = 0
  Multiplicity = 1
  Basis Set: AUG-CC-PVTZ
    Blend: AUG-CC-PVTZ
  Basis Set: (AUG-CC-PVTZ AUX)
    Blend: AUG-CC-PVTZ-JKFIT

    Orbital Energies [Eh]
    ---------------------

    Doubly Occupied:

       1A    -92.162919     2A    -20.533460     3A    -20.532762
       4A    -11.281187     5A    -11.279457     6A    -11.243321
       7A    -11.242190     8A    -11.233254     9A    -11.231896
      10A     -9.134230    11A     -6.818446    12A     -6.818055
      13A     -6.817902    14A     -1.422346    15A     -1.314239
      16A     -1.117391    17A     -1.095451    18A     -0.958081
      19A     -0.955799    20A     -0.923481    21A     -0.837911
      22A     -0.761388    23A     -0.703861    24A     -0.657740
      25A     -0.652601    26A     -0.643978    27A     -0.608387
      28A     -0.589174    29A     -0.578887    30A     -0.577123
      31A     -0.562337    32A     -0.555129    33A     -0.539793
      34A     -0.515189    35A     -0.514972    36A     -0.507832
      37A     -0.504571    38A     -0.481666    39A     -0.467174
      40A     -0.455215    41A     -0.413065

  @DF-RHF Final Energy:  -782.73589102505946

   => Energetics <=

    Nuclear Repulsion Energy =            640.7854258015875075
    One-Electron Energy =               -2346.5549159927481924
    Two-Electron Energy =                 923.0335991661012258
    Total Energy =                       -782.7358910250594590
  Basis Set: (AUG-CC-PVTZ AUX)
    Blend: AUG-CC-PVTZ-RI
    Molecular point group: c1

    Geometry (in Angstrom), charge = 0, multiplicity = 1:

       Center              X                  Y                   Z               Mass
    ------------   -----------------  -----------------  -----------------  -----------------
         S           -0.002408706924     0.476674193727    -0.000233880817    31.972071174400
         O           -0.248924706924     1.209642193727    -1.258435880817    15.994914619570
         O            0.266780993076     1.197314293727     1.260439719183    15.994914619570
         C            1.423675293076    -0.603385806273    -0.281043880817    12.000000000000
         C           -1.428534706924    -0.603363806273     0.280508119183    12.000000000000
         C            1.656366293076    -1.536944806273     0.900276119183    12.000000000000
         C            2.618998293076     0.311754193727    -0.542627880817    12.000000000000
         C           -1.661181706924    -1.536981806273    -0.900774880817    12.000000000000
         C           -2.623855706924     0.311814193727     0.541956119183    12.000000000000
         H            1.186139293076    -1.164839806273    -1.190742880817     1.007825032230
         H           -1.191094706924    -1.164779806273     1.190257119183     1.007825032230
         H            2.581669293076    -2.097476806273     0.737683119183     1.007825032230
         H            1.759219293076    -0.957284806273     1.821271119183     1.007825032230
         H            0.847262293076    -2.260974806273     1.028259119183     1.007825032230
         H            3.494114293076    -0.301790806273    -0.773631880817     1.007825032230
         H            2.834025293076     0.914237193727     0.343206119183     1.007825032230
         H            2.423958293076     0.979313193727    -1.384213880817     1.007825032230
         H           -2.586601706924    -2.097355806273    -0.738296880817     1.007825032230
         H           -1.763804706924    -0.957374806273    -1.821829880817     1.007825032230
         H           -0.852173706924    -2.261151806273    -1.028567880817     1.007825032230
         H           -3.498972706924    -0.301702806273     0.773032119183     1.007825032230
         H           -2.838861706924     0.914185193727    -0.343955880817     1.007825032230
         H           -2.428824706924     0.979475193727     1.383464119183     1.007825032230

  Basis Set: AUG-CC-PVTZ
    Blend: AUG-CC-PVTZ
  Basis Set: (AUG-CC-PVTZ AUX)
    Blend: AUG-CC-PVTZ-JKFIT
	 Reference Energy          =    -782.7358910250594590 [Eh]
	 Singles Energy            =      -0.0000000000000000 [Eh]
	 Same-Spin Energy          =      -0.4616319584548993 [Eh]
	 Opposite-Spin Energy      =      -1.4988061663613301 [Eh]
	 Correlation Energy        =      -1.9604381248162295 [Eh]
	 Total Energy              =    -784.6963291498757371 [Eh]

	 ================> DF-SCS-MP2 Energies <==================
	-----------------------------------------------------------
	 SCS Same-Spin Scale       =       0.3333333333333333 [-]
	 SCS Opposite-Spin Scale   =       1.2000000000000000 [-]
	 SCS Same-Spin Energy      =      -0.1538773194849664 [Eh]
	 SCS Opposite-Spin Energy  =      -1.7985673996335960 [Eh]
	 SCS Correlation Energy    =      -1.9524447191185625 [Eh]
	 SCS Total Energy          =    -784.6883357441780618 [Eh]
	-----------------------------------------------------------

  Dipole Moment: [D]
     X:    -0.0738      Y:    -4.4717      Z:    -0.0060     Total:     4.4723

*** Psi4 exiting successfully. Buy a developer a beer!
