                               Psi4 1.3.2 release

  ==> Input File <==

--------------------------------------------------------------------------
#psi4
#
memory 32 gb

molecule  {
0 1
  S        0.0286885     0.5571017     0.0516042
  O       -0.2465190     1.2674450    -1.2581730
  O        0.2466330     1.2673540     1.2582600
  C        1.4260810    -0.5455830    -0.2807810
  C       -1.4261290    -0.5455610     0.2807710
  C        1.6587720    -1.4791420     0.9005390
  C        2.6214040     0.3695570    -0.5423650
  C       -1.6587760    -1.4791790    -0.9005120
  C       -2.6214500     0.3696170     0.5422190
  H        1.1885450    -1.1070370    -1.1904800
  H       -1.1886890    -1.1069770     1.1905200
  H        2.5840750    -2.0396740     0.7379460
  H        1.7616250    -0.8994820     1.8215340
  H        0.8496680    -2.2031720     1.0285220
  H        3.4965200    -0.2439880    -0.7733690
  H        2.8364310     0.9720400     0.3434690
  H        2.4263640     1.0371160    -1.3839510
  H       -2.5841960    -2.0395530    -0.7380340
  H       -1.7613990    -0.8995720    -1.8215670
  H       -0.8497680    -2.2033490    -1.0283050
  H       -3.4965670    -0.2439000     0.7732950
  H       -2.8364560     0.9719880    -0.3436930
  H       -2.4264190     1.0372780     1.3837270
units angstrom
no_reorient  #important for SAPT in psi4, default
symmetry c1  #important for SAPT in psi4, default
}

set PROPERTIES_ORIGIN ["COM"]
properties('MP2/aug-cc-pvtz', properties = ['dipole'])
--------------------------------------------------------------------------

    Molecular point group: c1
  Charge       = 0
  Multiplicity = 1
  Basis Set: AUG-CC-PVTZ
    Blend: AUG-CC-PVTZ
  Basis Set: (AUG-CC-PVTZ AUX)
    Blend: AUG-CC-PVTZ-JKFIT

    Orbital Energies [Eh]
    ---------------------

    Doubly Occupied:

       1A    -92.161425     2A    -20.545607     3A    -20.524154
       4A    -11.279966     5A    -11.278260     6A    -11.243595
       7A    -11.240042     8A    -11.232944     9A    -11.230452
      10A     -9.133182    11A     -6.817367    12A     -6.817273
      13A     -6.816668    14A     -1.442255    15A     -1.311246
      16A     -1.115013    17A     -1.092632    18A     -0.958192
      19A     -0.953828    20A     -0.919396    21A     -0.834808
      22A     -0.762231    23A     -0.704596    24A     -0.661891
      25A     -0.651288    26A     -0.645309    27A     -0.611736
      28A     -0.589046    29A     -0.579483    30A     -0.578242
      31A     -0.562255    32A     -0.554940    33A     -0.542913
      34A     -0.514965    35A     -0.514328    36A     -0.507908
      37A     -0.503321    38A     -0.483170    39A     -0.470427
      40A     -0.452535    41A     -0.407871

  @DF-RHF Final Energy:  -782.73119397804976

   => Energetics <=

    Nuclear Repulsion Energy =            640.6729733471676127
    One-Electron Energy =               -2346.3148179731765595
    Two-Electron Energy =                 922.9106506479593008
    Total Energy =                       -782.7311939780497596
  Basis Set: (AUG-CC-PVTZ AUX)
    Blend: AUG-CC-PVTZ-RI
    Molecular point group: c1

    Geometry (in Angstrom), charge = 0, multiplicity = 1:

       Center              X                  Y                   Z               Mass
    ------------   -----------------  -----------------  -----------------  -----------------
         S            0.022574011885     0.493174566388     0.040613783882    31.972071174400
         O           -0.252633488115     1.203517866388    -1.269163416118    15.994914619570
         O            0.240518511885     1.203426866388     1.247269583882    15.994914619570
         C            1.419966511885    -0.609510133612    -0.291771416118    12.000000000000
         C           -1.432243488115    -0.609488133612     0.269780583882    12.000000000000
         C            1.652657511885    -1.543069133612     0.889548583882    12.000000000000
         C            2.615289511885     0.305629866388    -0.553355416118    12.000000000000
         C           -1.664890488115    -1.543106133612    -0.911502416118    12.000000000000
         C           -2.627564488115     0.305689866388     0.531228583882    12.000000000000
         H            1.182430511885    -1.170964133612    -1.201470416118     1.007825032230
         H           -1.194803488115    -1.170904133612     1.179529583882     1.007825032230
         H            2.577960511885    -2.103601133612     0.726955583882     1.007825032230
         H            1.755510511885    -0.963409133612     1.810543583882     1.007825032230
         H            0.843553511885    -2.267099133612     1.017531583882     1.007825032230
         H            3.490405511885    -0.307915133612    -0.784359416118     1.007825032230
         H            2.830316511885     0.908112866388     0.332478583882     1.007825032230
         H            2.420249511885     0.973188866388    -1.394941416118     1.007825032230
         H           -2.590310488115    -2.103480133612    -0.749024416118     1.007825032230
         H           -1.767513488115    -0.963499133612    -1.832557416118     1.007825032230
         H           -0.855882488115    -2.267276133612    -1.039295416118     1.007825032230
         H           -3.502681488115    -0.307827133612     0.762304583882     1.007825032230
         H           -2.842570488115     0.908060866388    -0.354683416118     1.007825032230
         H           -2.432533488115     0.973350866388     1.372736583882     1.007825032230

  Basis Set: AUG-CC-PVTZ
    Blend: AUG-CC-PVTZ
  Basis Set: (AUG-CC-PVTZ AUX)
    Blend: AUG-CC-PVTZ-JKFIT
	 Reference Energy          =    -782.7311939780497596 [Eh]
	 Singles Energy            =      -0.0000000000000000 [Eh]
	 Same-Spin Energy          =      -0.4610877517470352 [Eh]
	 Opposite-Spin Energy      =      -1.4980611643312156 [Eh]
	 Correlation Energy        =      -1.9591489160782509 [Eh]
	 Total Energy              =    -784.6903428941279799 [Eh]

	 ================> DF-SCS-MP2 Energies <==================
	-----------------------------------------------------------
	 SCS Same-Spin Scale       =       0.3333333333333333 [-]
	 SCS Opposite-Spin Scale   =       1.2000000000000000 [-]
	 SCS Same-Spin Energy      =      -0.1536959172490117 [Eh]
	 SCS Opposite-Spin Energy  =      -1.7976733971974588 [Eh]
	 SCS Correlation Energy    =      -1.9513693144464705 [Eh]
	 SCS Total Energy          =    -784.6825632924961837 [Eh]
	-----------------------------------------------------------

  Dipole Moment: [D]
     X:     0.2405      Y:    -4.3508      Z:     0.4118     Total:     4.3768

*** Psi4 exiting successfully. Buy a developer a beer!
