                               Psi4 1.3.2 release

  ==> Input File <==

--------------------------------------------------------------------------
#psi4
#
memory 32 gb

molecule  {
0 1
  S       -0.1023014     0.3766550     0.0235607
  O       -0.2465190     1.2674450    -1.2581730
  O        0.2466330     1.2673540     1.2582600
  C        1.4260810    -0.5455830    -0.2807810
  C       -1.4261290    -0.5455610     0.2807710
  C        1.6587720    -1.4791420     0.9005390
  C        2.6214040     0.3695570    -0.5423650
  C       -1.6587760    -1.4791790    -0.9005120
  C       -2.6214500     0.3696170     0.5422190
  H        1.1885450    -1.1070370    -1.1904800
  H       -1.1886890    -1.1069770     1.1905200
  H        2.5840750    -2.0396740     0.7379460
  H        1.7616250    -0.8994820     1.8215340
  H        0.8496680    -2.2031720     1.0285220
  H        3.4965200    -0.2439880    -0.7733690
  H        2.8364310     0.9720400     0.3434690
  H        2.4263640     1.0371160    -1.3839510
  H       -2.5841960    -2.0395530    -0.7380340
  H       -1.7613990    -0.8995720    -1.8215670
  H       -0.8497680    -2.2033490    -1.0283050
  H       -3.4965670    -0.2439000     0.7732950
  H       -2.8364560     0.9719880    -0.3436930
  H       -2.4264190     1.0372780     1.3837270
units angstrom
no_reorient  #important for SAPT in psi4, default
symmetry c1  #important for SAPT in psi4, default
}

set PROPERTIES_ORIGIN ["COM"]
properties('MP2/aug-cc-pvtz', properties = ['dipole'])
--------------------------------------------------------------------------

    Molecular point group: c1
  Charge       = 0
  Multiplicity = 1
  Basis Set: AUG-CC-PVTZ
    Blend: AUG-CC-PVTZ
  Basis Set: (AUG-CC-PVTZ AUX)
    Blend: AUG-CC-PVTZ-JKFIT

    Orbital Energies [Eh]
    ---------------------

    Doubly Occupied:

       1A    -92.160314     2A    -20.517881     3A    -20.516632
       4A    -11.290788     5A    -11.287542     6A    -11.257709
       7A    -11.246313     8A    -11.244045     9A    -11.231784
      10A     -9.135151    11A     -6.819147    12A     -6.818587
      13A     -6.817811    14A     -1.371383    15A     -1.253265
      16A     -1.152108    17A     -1.102865    18A     -0.972547
      19A     -0.959577    20A     -0.951225    21A     -0.855597
      22A     -0.763776    23A     -0.710268    24A     -0.665011
      25A     -0.648484    26A     -0.641704    27A     -0.602385
      28A     -0.591209    29A     -0.576305    30A     -0.568212
      31A     -0.563811    32A     -0.554555    33A     -0.538447
      34A     -0.523947    35A     -0.522917    36A     -0.507777
      37A     -0.504307    38A     -0.454988    39A     -0.448849
      40A     -0.420774    41A     -0.418180

  @DF-RHF Final Energy:  -782.68459256236974

   => Energetics <=

    Nuclear Repulsion Energy =            641.1248056507261026
    One-Electron Energy =               -2347.2424438361449575
    Two-Electron Energy =                 923.4330456230491109
    Total Energy =                       -782.6845925623697440
  Basis Set: (AUG-CC-PVTZ AUX)
    Blend: AUG-CC-PVTZ-RI
    Molecular point group: c1

    Geometry (in Angstrom), charge = 0, multiplicity = 1:

       Center              X                  Y                   Z               Mass
    ------------   -----------------  -----------------  -----------------  -----------------
         S           -0.080509058523     0.351171252537     0.018544829826    31.972071174400
         O           -0.224726658523     1.241961252537    -1.263188870174    15.994914619570
         O            0.268425341477     1.241870252537     1.253244129826    15.994914619570
         C            1.447873341477    -0.571066747463    -0.285796870174    12.000000000000
         C           -1.404336658523    -0.571044747463     0.275755129826    12.000000000000
         C            1.680564341477    -1.504625747463     0.895523129826    12.000000000000
         C            2.643196341477     0.344073252537    -0.547380870174    12.000000000000
         C           -1.636983658523    -1.504662747463    -0.905527870174    12.000000000000
         C           -2.599657658523     0.344133252537     0.537203129826    12.000000000000
         H            1.210337341477    -1.132520747463    -1.195495870174     1.007825032230
         H           -1.166896658523    -1.132460747463     1.185504129826     1.007825032230
         H            2.605867341477    -2.065157747463     0.732930129826     1.007825032230
         H            1.783417341477    -0.924965747463     1.816518129826     1.007825032230
         H            0.871460341477    -2.228655747463     1.023506129826     1.007825032230
         H            3.518312341477    -0.269471747463    -0.778384870174     1.007825032230
         H            2.858223341477     0.946556252537     0.338453129826     1.007825032230
         H            2.448156341477     1.011632252537    -1.388966870174     1.007825032230
         H           -2.562403658523    -2.065036747463    -0.743049870174     1.007825032230
         H           -1.739606658523    -0.925055747463    -1.826582870174     1.007825032230
         H           -0.827975658523    -2.228832747463    -1.033320870174     1.007825032230
         H           -3.474774658523    -0.269383747463     0.768279129826     1.007825032230
         H           -2.814663658523     0.946504252537    -0.348708870174     1.007825032230
         H           -2.404626658523     1.011794252537     1.378711129826     1.007825032230

  Basis Set: AUG-CC-PVTZ
    Blend: AUG-CC-PVTZ
  Basis Set: (AUG-CC-PVTZ AUX)
    Blend: AUG-CC-PVTZ-JKFIT
	 Reference Energy          =    -782.6845925623697440 [Eh]
	 Singles Energy            =      -0.0000000000000000 [Eh]
	 Same-Spin Energy          =      -0.4655535348809380 [Eh]
	 Opposite-Spin Energy      =      -1.5056767246585423 [Eh]
	 Correlation Energy        =      -1.9712302595394804 [Eh]
	 Total Energy              =    -784.6558228219091689 [Eh]

	 ================> DF-SCS-MP2 Energies <==================
	-----------------------------------------------------------
	 SCS Same-Spin Scale       =       0.3333333333333333 [-]
	 SCS Opposite-Spin Scale   =       1.2000000000000000 [-]
	 SCS Same-Spin Energy      =      -0.1551845116269793 [Eh]
	 SCS Opposite-Spin Energy  =      -1.8068120695902508 [Eh]
	 SCS Correlation Energy    =      -1.9619965812172300 [Eh]
	 SCS Total Energy          =    -784.6465891435869935 [Eh]
	-----------------------------------------------------------

  Dipole Moment: [D]
     X:    -0.7735      Y:    -5.5789      Z:     0.0909     Total:     5.6330

*** Psi4 exiting successfully. Buy a developer a beer!
