                               Psi4 1.4a3.dev225

  ==> Input File <==

--------------------------------------------------------------------------
#psi4
#
memory 32 gb

molecule  {
0 1
  S        0.0000010    -0.5344910     0.0000050
  O        0.2465780    -1.2674340    -1.2582100
  O       -0.2465760    -1.2674230     1.2582270
  C       -1.4103274     0.5336400    -0.2776719
  C        1.4260820     0.5455700     0.2807730
  C       -1.6587340     1.4791280     0.9005660
  C       -2.6214390    -0.3695300    -0.5423140
  C        1.6587160     1.4791480    -0.9005550
  C        2.6214500    -0.3695300     0.5422790
  H       -1.1885770     1.1070300    -1.1904720
  H        1.1885950     1.1070160     1.1904860
  H       -2.5841820     2.0394700     0.7381390
  H       -1.7612990     0.8994750     1.8215980
  H       -0.8497540     2.2033300     1.0283560
  H       -3.4964690     0.2440390    -0.7735820
  H       -2.8366250    -0.9717990     0.3436230
  H       -2.4263300    -1.0372830    -1.3837320
  H        2.5841850     2.0394630    -0.7381520
  H        1.7612340     0.8995120    -1.8216040
  H        0.8497500     2.2033730    -1.0282990
  H        3.4964760     0.2440360     0.7735650
  H        2.8366350    -0.9717700    -0.3436780
  H        2.4263480    -1.0373120     1.3836770
units angstrom
no_reorient  #important for SAPT in psi4, default
symmetry c1  #important for SAPT in psi4, default
}

set PROPERTIES_ORIGIN ["COM"]
properties('MP2/aug-cc-pvtz', properties = ['dipole'])
--------------------------------------------------------------------------

    Molecular point group: c1
  Charge       = 0
  Multiplicity = 1
  Basis Set: AUG-CC-PVTZ
    Blend: AUG-CC-PVTZ
  Basis Set: (AUG-CC-PVTZ AUX)
    Blend: AUG-CC-PVTZ-JKFIT

    Orbital Energies [Eh]
    ---------------------

    Doubly Occupied:

       1A    -92.163625     2A    -20.532807     3A    -20.532777
       4A    -11.280789     5A    -11.280097     6A    -11.243377
       7A    -11.243001     8A    -11.233057     9A    -11.232773
      10A     -9.135016    11A     -6.819275    12A     -6.818861
      13A     -6.818703    14A     -1.422977    15A     -1.313798
      16A     -1.117976    17A     -1.095121    18A     -0.957699
      19A     -0.955414    20A     -0.925747    21A     -0.838993
      22A     -0.760942    23A     -0.704715    24A     -0.657743
      25A     -0.652096    26A     -0.643972    27A     -0.607832
      28A     -0.589307    29A     -0.578962    30A     -0.577506
      31A     -0.561959    32A     -0.555515    33A     -0.540250
      34A     -0.514550    35A     -0.514071    36A     -0.506515
      37A     -0.503935    38A     -0.481167    39A     -0.468511
      40A     -0.454556    41A     -0.415998

  @DF-RHF Final Energy:  -782.73587855192136

   => Energetics <=

    Nuclear Repulsion Energy =            641.0910815478383711
    One-Electron Energy =               -2347.1499493522969715
    Two-Electron Energy =                 923.3229892525373543
    Total Energy =                       -782.7358785519213598
  Basis Set: (AUG-CC-PVTZ AUX)
    Blend: AUG-CC-PVTZ-RI
    Molecular point group: c1

    Geometry (in Angstrom), charge = 0, multiplicity = 1:

       Center              X                  Y                   Z               Mass
    ------------   -----------------  -----------------  -----------------  -----------------
         S           -0.001258547096    -0.474428049303    -0.000243424246    31.972071174400
         O            0.245318452904    -1.207371049303    -1.258458424246    15.994914619570
         O           -0.247835547096    -1.207360049303     1.257978575754    15.994914619570
         C           -1.411586947096     0.593702950697    -0.277920324246    12.000000000000
         C            1.424822452904     0.605632950697     0.280524575754    12.000000000000
         C           -1.659993547096     1.539190950697     0.900317575754    12.000000000000
         C           -2.622698547096    -0.309467049303    -0.542562424246    12.000000000000
         C            1.657456452904     1.539210950697    -0.900803424246    12.000000000000
         C            2.620190452904    -0.309467049303     0.542030575754    12.000000000000
         H           -1.189836547096     1.167092950697    -1.190720424246     1.007825032230
         H            1.187335452904     1.167078950697     1.190237575754     1.007825032230
         H           -2.585441547096     2.099532950697     0.737890575754     1.007825032230
         H           -1.762558547096     0.959537950697     1.821349575754     1.007825032230
         H           -0.851013547096     2.263392950697     1.028107575754     1.007825032230
         H           -3.497728547096     0.304101950697    -0.773830424246     1.007825032230
         H           -2.837884547096    -0.911736049303     0.343374575754     1.007825032230
         H           -2.427589547096    -0.977220049303    -1.383980424246     1.007825032230
         H            2.582925452904     2.099525950697    -0.738400424246     1.007825032230
         H            1.759974452904     0.959574950697    -1.821852424246     1.007825032230
         H            0.848490452904     2.263435950697    -1.028547424246     1.007825032230
         H            3.495216452904     0.304098950697     0.773316575754     1.007825032230
         H            2.835375452904    -0.911707049303    -0.343926424246     1.007825032230
         H            2.425088452904    -0.977249049303     1.383428575754     1.007825032230

  Basis Set: AUG-CC-PVTZ
    Blend: AUG-CC-PVTZ
  Basis Set: (AUG-CC-PVTZ AUX)
    Blend: AUG-CC-PVTZ-JKFIT
	 Reference Energy          =    -782.7358785519213598 [Eh]
	 Singles Energy            =      -0.0000000000000000 [Eh]
	 Same-Spin Energy          =      -0.4615476772242301 [Eh]
	 Opposite-Spin Energy      =      -1.4986486358805924 [Eh]
	 Correlation Energy        =      -1.9601963131048223 [Eh]
	 Total Energy              =    -784.6960748650261621 [Eh]

	 ================> DF-SCS-MP2 Energies <==================
	-----------------------------------------------------------
	 SCS Same-Spin Scale       =       0.3333333333333333 [-]
	 SCS Opposite-Spin Scale   =       1.2000000000000000 [-]
	 SCS Same-Spin Energy      =      -0.1538492257414100 [Eh]
	 SCS Opposite-Spin Energy  =      -1.7983783630567107 [Eh]
	 SCS Correlation Energy    =      -1.9522275887981206 [Eh]
	 SCS Total Energy          =    -784.6881061407194693 [Eh]
	-----------------------------------------------------------

  Dipole Moment: [D]
     X:    -0.0075      Y:     4.5077      Z:    -0.0036     Total:     4.5077

*** Psi4 exiting successfully. Buy a developer a beer!
