                               Psi4 1.3.2 release

  ==> Input File <==

--------------------------------------------------------------------------
#psi4
#
memory 32 gb

molecule  {
0 1
  S       -0.0000030     0.5344770     0.0000290
  O       -0.2465190     1.2674450    -1.2581730
  O        0.2240041     1.2793676     1.2554341
  C        1.4260810    -0.5455830    -0.2807810
  C       -1.4261290    -0.5455610     0.2807710
  C        1.6587720    -1.4791420     0.9005390
  C        2.6214040     0.3695570    -0.5423650
  C       -1.6587760    -1.4791790    -0.9005120
  C       -2.6214500     0.3696170     0.5422190
  H        1.1885450    -1.1070370    -1.1904800
  H       -1.1886890    -1.1069770     1.1905200
  H        2.5840750    -2.0396740     0.7379460
  H        1.7616250    -0.8994820     1.8215340
  H        0.8496680    -2.2031720     1.0285220
  H        3.4965200    -0.2439880    -0.7733690
  H        2.8364310     0.9720400     0.3434690
  H        2.4263640     1.0371160    -1.3839510
  H       -2.5841960    -2.0395530    -0.7380340
  H       -1.7613990    -0.8995720    -1.8215670
  H       -0.8497680    -2.2033490    -1.0283050
  H       -3.4965670    -0.2439000     0.7732950
  H       -2.8364560     0.9719880    -0.3436930
  H       -2.4264190     1.0372780     1.3837270
units angstrom
no_reorient  #important for SAPT in psi4, default
symmetry c1  #important for SAPT in psi4, default
}

set PROPERTIES_ORIGIN ["COM"]
properties('MP2/aug-cc-pvtz', properties = ['dipole'])
--------------------------------------------------------------------------

    Molecular point group: c1
  Charge       = 0
  Multiplicity = 1
  Basis Set: AUG-CC-PVTZ
    Blend: AUG-CC-PVTZ
  Basis Set: (AUG-CC-PVTZ AUX)
    Blend: AUG-CC-PVTZ-JKFIT

    Orbital Energies [Eh]
    ---------------------

    Doubly Occupied:

       1A    -92.162626     2A    -20.532502     3A    -20.531820
       4A    -11.281739     5A    -11.280037     6A    -11.243746
       7A    -11.242636     8A    -11.233338     9A    -11.231992
      10A     -9.133980    11A     -6.818193    12A     -6.817779
      13A     -6.817671    14A     -1.421958    15A     -1.312616
      16A     -1.118069    17A     -1.095838    18A     -0.958319
      19A     -0.956073    20A     -0.923900    21A     -0.838136
      22A     -0.761574    23A     -0.704101    24A     -0.657206
      25A     -0.652952    26A     -0.643868    27A     -0.607893
      28A     -0.589645    29A     -0.579036    30A     -0.577151
      31A     -0.562530    32A     -0.555668    33A     -0.539755
      34A     -0.515522    35A     -0.515260    36A     -0.508088
      37A     -0.504938    38A     -0.480376    39A     -0.467223
      40A     -0.453928    41A     -0.413445

  @DF-RHF Final Energy:  -782.73623057130089

   => Energetics <=

    Nuclear Repulsion Energy =            640.6372394007165667
    One-Electron Energy =               -2346.2606919895415558
    Two-Electron Energy =                 922.8872220175239818
    Total Energy =                       -782.7362305713008936
  Basis Set: (AUG-CC-PVTZ AUX)
    Blend: AUG-CC-PVTZ-RI
    Molecular point group: c1

    Geometry (in Angstrom), charge = 0, multiplicity = 1:

       Center              X                  Y                   Z               Mass
    ------------   -----------------  -----------------  -----------------  -----------------
         S            0.002406944721     0.474089527058     0.000327646423    31.972071174400
         O           -0.244109055279     1.207057527058    -1.257874353577    15.994914619570
         O            0.226414044721     1.218980127058     1.255732746423    15.994914619570
         C            1.428490944721    -0.605970472942    -0.280482353577    12.000000000000
         C           -1.423719055279    -0.605948472942     0.281069646423    12.000000000000
         C            1.661181944721    -1.539529472942     0.900837646423    12.000000000000
         C            2.623813944721     0.309169527058    -0.542066353577    12.000000000000
         C           -1.656366055279    -1.539566472942    -0.900213353577    12.000000000000
         C           -2.619040055279     0.309229527058     0.542517646423    12.000000000000
         H            1.190954944721    -1.167424472942    -1.190181353577     1.007825032230
         H           -1.186279055279    -1.167364472942     1.190818646423     1.007825032230
         H            2.586484944721    -2.100061472942     0.738244646423     1.007825032230
         H            1.764034944721    -0.959869472942     1.821832646423     1.007825032230
         H            0.852077944721    -2.263559472942     1.028820646423     1.007825032230
         H            3.498929944721    -0.304375472942    -0.773070353577     1.007825032230
         H            2.838840944721     0.911652527058     0.343767646423     1.007825032230
         H            2.428773944721     0.976728527058    -1.383652353577     1.007825032230
         H           -2.581786055279    -2.099940472942    -0.737735353577     1.007825032230
         H           -1.758989055279    -0.959959472942    -1.821268353577     1.007825032230
         H           -0.847358055279    -2.263736472942    -1.028006353577     1.007825032230
         H           -3.494157055279    -0.304287472942     0.773593646423     1.007825032230
         H           -2.834046055279     0.911600527058    -0.343394353577     1.007825032230
         H           -2.424009055279     0.976890527058     1.384025646423     1.007825032230

  Basis Set: AUG-CC-PVTZ
    Blend: AUG-CC-PVTZ
  Basis Set: (AUG-CC-PVTZ AUX)
    Blend: AUG-CC-PVTZ-JKFIT
	 Reference Energy          =    -782.7362305713008936 [Eh]
	 Singles Energy            =      -0.0000000000000000 [Eh]
	 Same-Spin Energy          =      -0.4615441024294119 [Eh]
	 Opposite-Spin Energy      =      -1.4986327448524255 [Eh]
	 Correlation Energy        =      -1.9601768472818373 [Eh]
	 Total Energy              =    -784.6964074185826803 [Eh]

	 ================> DF-SCS-MP2 Energies <==================
	-----------------------------------------------------------
	 SCS Same-Spin Scale       =       0.3333333333333333 [-]
	 SCS Opposite-Spin Scale   =       1.2000000000000000 [-]
	 SCS Same-Spin Energy      =      -0.1538480341431373 [Eh]
	 SCS Opposite-Spin Energy  =      -1.7983592938229105 [Eh]
	 SCS Correlation Energy    =      -1.9522073279660477 [Eh]
	 SCS Total Energy          =    -784.6884378992668871 [Eh]
	-----------------------------------------------------------

  Dipole Moment: [D]
     X:     0.0729      Y:    -4.5340      Z:     0.0067     Total:     4.5346

*** Psi4 exiting successfully. Buy a developer a beer!
