                               Psi4 1.3.2 release

  ==> Input File <==

--------------------------------------------------------------------------
#psi4
#
memory 32 gb

molecule  {
0 1
  S       -0.0000030     0.5344770     0.0000290
  O       -0.2465190     1.2674450    -1.2581730
  O        0.2916585     1.2426607     1.2627612
  C        1.4260810    -0.5455830    -0.2807810
  C       -1.4261290    -0.5455610     0.2807710
  C        1.6587720    -1.4791420     0.9005390
  C        2.6214040     0.3695570    -0.5423650
  C       -1.6587760    -1.4791790    -0.9005120
  C       -2.6214500     0.3696170     0.5422190
  H        1.1885450    -1.1070370    -1.1904800
  H       -1.1886890    -1.1069770     1.1905200
  H        2.5840750    -2.0396740     0.7379460
  H        1.7616250    -0.8994820     1.8215340
  H        0.8496680    -2.2031720     1.0285220
  H        3.4965200    -0.2439880    -0.7733690
  H        2.8364310     0.9720400     0.3434690
  H        2.4263640     1.0371160    -1.3839510
  H       -2.5841960    -2.0395530    -0.7380340
  H       -1.7613990    -0.8995720    -1.8215670
  H       -0.8497680    -2.2033490    -1.0283050
  H       -3.4965670    -0.2439000     0.7732950
  H       -2.8364560     0.9719880    -0.3436930
  H       -2.4264190     1.0372780     1.3837270
units angstrom
no_reorient  #important for SAPT in psi4, default
symmetry c1  #important for SAPT in psi4, default
}

set PROPERTIES_ORIGIN ["COM"]
properties('MP2/aug-cc-pvtz', properties = ['dipole'])
--------------------------------------------------------------------------

    Molecular point group: c1
  Charge       = 0
  Multiplicity = 1
  Basis Set: AUG-CC-PVTZ
    Blend: AUG-CC-PVTZ
  Basis Set: (AUG-CC-PVTZ AUX)
    Blend: AUG-CC-PVTZ-JKFIT

    Orbital Energies [Eh]
    ---------------------

    Doubly Occupied:

       1A    -92.163053     2A    -20.534271     3A    -20.532861
       4A    -11.281763     5A    -11.278304     6A    -11.243659
       7A    -11.241397     8A    -11.233873     9A    -11.231160
      10A     -9.134347    11A     -6.818566    12A     -6.818185
      13A     -6.818008    14A     -1.422553    15A     -1.315033
      16A     -1.117119    17A     -1.095158    18A     -0.958358
      19A     -0.955248    20A     -0.923284    21A     -0.837782
      22A     -0.761297    23A     -0.703727    24A     -0.658025
      25A     -0.652496    26A     -0.643949    27A     -0.608629
      28A     -0.588980    29A     -0.578895    30A     -0.577011
      31A     -0.562333    32A     -0.554748    33A     -0.539768
      34A     -0.515119    35A     -0.514965    36A     -0.507552
      37A     -0.504262    38A     -0.482256    39A     -0.467145
      40A     -0.455808    41A     -0.412811

  @DF-RHF Final Energy:  -782.73548052012438

   => Energetics <=

    Nuclear Repulsion Energy =            640.8711634425144439
    One-Electron Energy =               -2346.7257712335499491
    Two-Electron Energy =                 923.1191272709111217
    Total Energy =                       -782.7354805201243835
  Basis Set: (AUG-CC-PVTZ AUX)
    Blend: AUG-CC-PVTZ-RI
    Molecular point group: c1

    Geometry (in Angstrom), charge = 0, multiplicity = 1:

       Center              X                  Y                   Z               Mass
    ------------   -----------------  -----------------  -----------------  -----------------
         S           -0.004803796198     0.478001821689    -0.000453290512    31.972071174400
         O           -0.251319796198     1.210969821689    -1.258655290512    15.994914619570
         O            0.286857703802     1.186185521689     1.262278909488    15.994914619570
         C            1.421280203802    -0.602058178311    -0.281263290512    12.000000000000
         C           -1.430929796198    -0.602036178311     0.280288709488    12.000000000000
         C            1.653971203802    -1.535617178311     0.900056709488    12.000000000000
         C            2.616603203802     0.313081821689    -0.542847290512    12.000000000000
         C           -1.663576796198    -1.535654178311    -0.900994290512    12.000000000000
         C           -2.626250796198     0.313141821689     0.541736709488    12.000000000000
         H            1.183744203802    -1.163512178311    -1.190962290512     1.007825032230
         H           -1.193489796198    -1.163452178311     1.190037709488     1.007825032230
         H            2.579274203802    -2.096149178311     0.737463709488     1.007825032230
         H            1.756824203802    -0.955957178311     1.821051709488     1.007825032230
         H            0.844867203802    -2.259647178311     1.028039709488     1.007825032230
         H            3.491719203802    -0.300463178311    -0.773851290512     1.007825032230
         H            2.831630203802     0.915564821689     0.342986709488     1.007825032230
         H            2.421563203802     0.980640821689    -1.384433290512     1.007825032230
         H           -2.588996796198    -2.096028178311    -0.738516290512     1.007825032230
         H           -1.766199796198    -0.956047178311    -1.822049290512     1.007825032230
         H           -0.854568796198    -2.259824178311    -1.028787290512     1.007825032230
         H           -3.501367796198    -0.300375178311     0.772812709488     1.007825032230
         H           -2.841256796198     0.915512821689    -0.344175290512     1.007825032230
         H           -2.431219796198     0.980802821689     1.383244709488     1.007825032230

  Basis Set: AUG-CC-PVTZ
    Blend: AUG-CC-PVTZ
  Basis Set: (AUG-CC-PVTZ AUX)
    Blend: AUG-CC-PVTZ-JKFIT
	 Reference Energy          =    -782.7354805201243835 [Eh]
	 Singles Energy            =      -0.0000000000000000 [Eh]
	 Same-Spin Energy          =      -0.4616894738604179 [Eh]
	 Opposite-Spin Energy      =      -1.4989173929622988 [Eh]
	 Correlation Energy        =      -1.9606068668227166 [Eh]
	 Total Energy              =    -784.6960873869470561 [Eh]

	 ================> DF-SCS-MP2 Energies <==================
	-----------------------------------------------------------
	 SCS Same-Spin Scale       =       0.3333333333333333 [-]
	 SCS Opposite-Spin Scale   =       1.2000000000000000 [-]
	 SCS Same-Spin Energy      =      -0.1538964912868060 [Eh]
	 SCS Opposite-Spin Energy  =      -1.7987008715547586 [Eh]
	 SCS Correlation Energy    =      -1.9525973628415645 [Eh]
	 SCS Total Energy          =    -784.6880778829658993 [Eh]
	-----------------------------------------------------------

  Dipole Moment: [D]
     X:    -0.1473      Y:    -4.4393      Z:    -0.0110     Total:     4.4417

*** Psi4 exiting successfully. Buy a developer a beer!
