                               Psi4 1.4a3.dev225

  ==> Input File <==

--------------------------------------------------------------------------
#psi4
#
memory 32 gb

molecule  {
0 1
  S        0.0000010    -0.5344910     0.0000050
  O        0.2549260    -1.2922483    -1.3008077
  O       -0.2465760    -1.2674230     1.2582270
  C       -1.4260780     0.5455690    -0.2807730
  C        1.4260820     0.5455700     0.2807730
  C       -1.6587340     1.4791280     0.9005660
  C       -2.6214390    -0.3695300    -0.5423140
  C        1.6587160     1.4791480    -0.9005550
  C        2.6214500    -0.3695300     0.5422790
  H       -1.1885770     1.1070300    -1.1904720
  H        1.1885950     1.1070160     1.1904860
  H       -2.5841820     2.0394700     0.7381390
  H       -1.7612990     0.8994750     1.8215980
  H       -0.8497540     2.2033300     1.0283560
  H       -3.4964690     0.2440390    -0.7735820
  H       -2.8366250    -0.9717990     0.3436230
  H       -2.4263300    -1.0372830    -1.3837320
  H        2.5841850     2.0394630    -0.7381520
  H        1.7612340     0.8995120    -1.8216040
  H        0.8497500     2.2033730    -1.0282990
  H        3.4964760     0.2440360     0.7735650
  H        2.8366350    -0.9717700    -0.3436780
  H        2.4263480    -1.0373120     1.3836770
units angstrom
no_reorient  #important for SAPT in psi4, default
symmetry c1  #important for SAPT in psi4, default
}

set PROPERTIES_ORIGIN ["COM"]
properties('MP2/aug-cc-pvtz', properties = ['dipole'])
--------------------------------------------------------------------------

    Molecular point group: c1
  Charge       = 0
  Multiplicity = 1
  Basis Set: AUG-CC-PVTZ
    Blend: AUG-CC-PVTZ
  Basis Set: (AUG-CC-PVTZ AUX)
    Blend: AUG-CC-PVTZ-JKFIT

    Orbital Energies [Eh]
    ---------------------

    Doubly Occupied:

       1A    -92.165386     2A    -20.536087     3A    -20.531679
       4A    -11.283559     5A    -11.283491     6A    -11.244762
       7A    -11.243708     8A    -11.233353     9A    -11.233310
      10A     -9.136500    11A     -6.820689    12A     -6.820285
      13A     -6.819834    14A     -1.409702    15A     -1.299208
      16A     -1.119447    17A     -1.097042    18A     -0.959069
      19A     -0.957125    20A     -0.927018    21A     -0.838944
      22A     -0.763513    23A     -0.702892    24A     -0.654925
      25A     -0.652908    26A     -0.643316    27A     -0.605011
      28A     -0.589978    29A     -0.578282    30A     -0.575696
      31A     -0.562978    32A     -0.555759    33A     -0.538644
      34A     -0.516273    35A     -0.516042    36A     -0.508456
      37A     -0.505678    38A     -0.476169    39A     -0.463999
      40A     -0.449959    41A     -0.414790

  @DF-RHF Final Energy:  -782.72895913188290

   => Energetics <=

    Nuclear Repulsion Energy =            638.3317371630682828
    One-Electron Energy =               -2341.6504543928799649
    Two-Electron Energy =                 920.5897580979287795
    Total Energy =                       -782.7289591318829025
  Basis Set: (AUG-CC-PVTZ AUX)
    Blend: AUG-CC-PVTZ-RI
    Molecular point group: c1

    Geometry (in Angstrom), charge = 0, multiplicity = 1:

       Center              X                  Y                   Z               Mass
    ------------   -----------------  -----------------  -----------------  -----------------
         S           -0.000888845515    -0.472737157342     0.004544693483    31.972071174400
         O            0.254036154485    -1.230494457342    -1.296268006517    15.994914619570
         O           -0.247465845515    -1.205669157342     1.262766693483    15.994914619570
         C           -1.426967845515     0.607322842658    -0.276233306517    12.000000000000
         C            1.425192154485     0.607323842658     0.285312693483    12.000000000000
         C           -1.659623845515     1.540881842658     0.905105693483    12.000000000000
         C           -2.622328845515    -0.307776157342    -0.537774306517    12.000000000000
         C            1.657826154485     1.540901842658    -0.896015306517    12.000000000000
         C            2.620560154485    -0.307776157342     0.546818693483    12.000000000000
         H           -1.189466845515     1.168783842658    -1.185932306517     1.007825032230
         H            1.187705154485     1.168769842658     1.195025693483     1.007825032230
         H           -2.585071845515     2.101223842658     0.742678693483     1.007825032230
         H           -1.762188845515     0.961228842658     1.826137693483     1.007825032230
         H           -0.850643845515     2.265083842658     1.032895693483     1.007825032230
         H           -3.497358845515     0.305792842658    -0.769042306517     1.007825032230
         H           -2.837514845515    -0.910045157342     0.348162693483     1.007825032230
         H           -2.427219845515    -0.975529157342    -1.379192306517     1.007825032230
         H            2.583295154485     2.101216842658    -0.733612306517     1.007825032230
         H            1.760344154485     0.961265842658    -1.817064306517     1.007825032230
         H            0.848860154485     2.265126842658    -1.023759306517     1.007825032230
         H            3.495586154485     0.305789842658     0.778104693483     1.007825032230
         H            2.835745154485    -0.910016157342    -0.339138306517     1.007825032230
         H            2.425458154485    -0.975558157342     1.388216693483     1.007825032230

  Basis Set: AUG-CC-PVTZ
    Blend: AUG-CC-PVTZ
  Basis Set: (AUG-CC-PVTZ AUX)
    Blend: AUG-CC-PVTZ-JKFIT
	 Reference Energy          =    -782.7289591318829025 [Eh]
	 Singles Energy            =      -0.0000000000000000 [Eh]
	 Same-Spin Energy          =      -0.4624441507650269 [Eh]
	 Opposite-Spin Energy      =      -1.5010374814108134 [Eh]
	 Correlation Energy        =      -1.9634816321758404 [Eh]
	 Total Energy              =    -784.6924407640586878 [Eh]

	 ================> DF-SCS-MP2 Energies <==================
	-----------------------------------------------------------
	 SCS Same-Spin Scale       =       0.3333333333333333 [-]
	 SCS Opposite-Spin Scale   =       1.2000000000000000 [-]
	 SCS Same-Spin Energy      =      -0.1541480502550089 [Eh]
	 SCS Opposite-Spin Energy  =      -1.8012449776929760 [Eh]
	 SCS Correlation Energy    =      -1.9553930279479850 [Eh]
	 SCS Total Energy          =    -784.6843521598308371 [Eh]
	-----------------------------------------------------------

  Dipole Moment: [D]
     X:    -0.0473      Y:     4.6632      Z:     0.2140     Total:     4.6683

*** Psi4 exiting successfully. Buy a developer a beer!
