                               Psi4 1.3.2 release

  ==> Input File <==

--------------------------------------------------------------------------
#psi4
#
memory 32 gb

molecule  {
0 1
  S       -0.0000030     0.5344770     0.0000290
  O       -0.2304241     1.3974482    -1.1760966
  O        0.2466330     1.2673540     1.2582600
  C        1.4260810    -0.5455830    -0.2807810
  C       -1.4261290    -0.5455610     0.2807710
  C        1.6587720    -1.4791420     0.9005390
  C        2.6214040     0.3695570    -0.5423650
  C       -1.6587760    -1.4791790    -0.9005120
  C       -2.6214500     0.3696170     0.5422190
  H        1.1885450    -1.1070370    -1.1904800
  H       -1.1886890    -1.1069770     1.1905200
  H        2.5840750    -2.0396740     0.7379460
  H        1.7616250    -0.8994820     1.8215340
  H        0.8496680    -2.2031720     1.0285220
  H        3.4965200    -0.2439880    -0.7733690
  H        2.8364310     0.9720400     0.3434690
  H        2.4263640     1.0371160    -1.3839510
  H       -2.5841960    -2.0395530    -0.7380340
  H       -1.7613990    -0.8995720    -1.8215670
  H       -0.8497680    -2.2033490    -1.0283050
  H       -3.4965670    -0.2439000     0.7732950
  H       -2.8364560     0.9719880    -0.3436930
  H       -2.4264190     1.0372780     1.3837270
units angstrom
no_reorient  #important for SAPT in psi4, default
symmetry c1  #important for SAPT in psi4, default
}

set PROPERTIES_ORIGIN ["COM"]
properties('MP2/aug-cc-pvtz', properties = ['dipole'])
--------------------------------------------------------------------------

    Molecular point group: c1
  Charge       = 0
  Multiplicity = 1
  Basis Set: AUG-CC-PVTZ
    Blend: AUG-CC-PVTZ
  Basis Set: (AUG-CC-PVTZ AUX)
    Blend: AUG-CC-PVTZ-JKFIT

    Orbital Energies [Eh]
    ---------------------

    Doubly Occupied:

       1A    -92.160985     2A    -20.530785     3A    -20.523170
       4A    -11.283586     5A    -11.283568     6A    -11.246097
       7A    -11.244859     8A    -11.233266     9A    -11.233151
      10A     -9.132588    11A     -6.816811    12A     -6.816360
      13A     -6.816222    14A     -1.420142    15A     -1.303864
      16A     -1.121094    17A     -1.097469    18A     -0.959437
      19A     -0.957653    20A     -0.926276    21A     -0.839380
      22A     -0.761351    23A     -0.704355    24A     -0.656891
      25A     -0.654105    26A     -0.643530    27A     -0.605004
      28A     -0.590617    29A     -0.579614    30A     -0.577093
      31A     -0.564115    32A     -0.557681    33A     -0.539559
      34A     -0.516877    35A     -0.516355    36A     -0.509064
      37A     -0.506825    38A     -0.473670    39A     -0.467398
      40A     -0.446004    41A     -0.415139

  @DF-RHF Final Energy:  -782.73497708891512

   => Energetics <=

    Nuclear Repulsion Energy =            640.1529006420558972
    One-Electron Energy =               -2345.3117360755641130
    Two-Electron Energy =                 922.4238583445929862
    Total Energy =                       -782.7349770889151159
  Basis Set: (AUG-CC-PVTZ AUX)
    Blend: AUG-CC-PVTZ-RI
    Molecular point group: c1

    Geometry (in Angstrom), charge = 0, multiplicity = 1:

       Center              X                  Y                   Z               Mass
    ------------   -----------------  -----------------  -----------------  -----------------
         S           -0.001720315135     0.461513960106    -0.008721410087    31.972071174400
         O           -0.232141415135     1.324485160106    -1.184847010087    15.994914619570
         O            0.244915684865     1.194390960106     1.249509589913    15.994914619570
         C            1.424363684865    -0.618546039894    -0.289531410087    12.000000000000
         C           -1.427846315135    -0.618524039894     0.272020589913    12.000000000000
         C            1.657054684865    -1.552105039894     0.891788589913    12.000000000000
         C            2.619686684865     0.296593960106    -0.551115410087    12.000000000000
         C           -1.660493315135    -1.552142039894    -0.909262410087    12.000000000000
         C           -2.623167315135     0.296653960106     0.533468589913    12.000000000000
         H            1.186827684865    -1.180000039894    -1.199230410087     1.007825032230
         H           -1.190406315135    -1.179940039894     1.181769589913     1.007825032230
         H            2.582357684865    -2.112637039894     0.729195589913     1.007825032230
         H            1.759907684865    -0.972445039894     1.812783589913     1.007825032230
         H            0.847950684865    -2.276135039894     1.019771589913     1.007825032230
         H            3.494802684865    -0.316951039894    -0.782119410087     1.007825032230
         H            2.834713684865     0.899076960106     0.334718589913     1.007825032230
         H            2.424646684865     0.964152960106    -1.392701410087     1.007825032230
         H           -2.585913315135    -2.112516039894    -0.746784410087     1.007825032230
         H           -1.763116315135    -0.972535039894    -1.830317410087     1.007825032230
         H           -0.851485315135    -2.276312039894    -1.037055410087     1.007825032230
         H           -3.498284315135    -0.316863039894     0.764544589913     1.007825032230
         H           -2.838173315135     0.899024960106    -0.352443410087     1.007825032230
         H           -2.428136315135     0.964314960106     1.374976589913     1.007825032230

  Basis Set: AUG-CC-PVTZ
    Blend: AUG-CC-PVTZ
  Basis Set: (AUG-CC-PVTZ AUX)
    Blend: AUG-CC-PVTZ-JKFIT
	 Reference Energy          =    -782.7349770889151159 [Eh]
	 Singles Energy            =      -0.0000000000000000 [Eh]
	 Same-Spin Energy          =      -0.4613246125616144 [Eh]
	 Opposite-Spin Energy      =      -1.4981313298582428 [Eh]
	 Correlation Energy        =      -1.9594559424198572 [Eh]
	 Total Energy              =    -784.6944330313349383 [Eh]

	 ================> DF-SCS-MP2 Energies <==================
	-----------------------------------------------------------
	 SCS Same-Spin Scale       =       0.3333333333333333 [-]
	 SCS Opposite-Spin Scale   =       1.2000000000000000 [-]
	 SCS Same-Spin Energy      =      -0.1537748708538715 [Eh]
	 SCS Opposite-Spin Energy  =      -1.7977575958298913 [Eh]
	 SCS Correlation Energy    =      -1.9515324666837628 [Eh]
	 SCS Total Energy          =    -784.6865095555988319 [Eh]
	-----------------------------------------------------------

  Dipole Moment: [D]
     X:    -0.0439      Y:    -4.8362      Z:    -0.1768     Total:     4.8396

*** Psi4 exiting successfully. Buy a developer a beer!
