                               Psi4 1.3.2 release

  ==> Input File <==

--------------------------------------------------------------------------
#psi4
#
memory 32 gb

molecule  {
0 1
  S       -0.0000030     0.5344770     0.0000290
  O       -0.2440197     1.2897095    -1.2454284
  O        0.2466330     1.2673540     1.2582600
  C        1.4260810    -0.5455830    -0.2807810
  C       -1.4261290    -0.5455610     0.2807710
  C        1.6587720    -1.4791420     0.9005390
  C        2.6214040     0.3695570    -0.5423650
  C       -1.6587760    -1.4791790    -0.9005120
  C       -2.6214500     0.3696170     0.5422190
  H        1.1885450    -1.1070370    -1.1904800
  H       -1.1886890    -1.1069770     1.1905200
  H        2.5840750    -2.0396740     0.7379460
  H        1.7616250    -0.8994820     1.8215340
  H        0.8496680    -2.2031720     1.0285220
  H        3.4965200    -0.2439880    -0.7733690
  H        2.8364310     0.9720400     0.3434690
  H        2.4263640     1.0371160    -1.3839510
  H       -2.5841960    -2.0395530    -0.7380340
  H       -1.7613990    -0.8995720    -1.8215670
  H       -0.8497680    -2.2033490    -1.0283050
  H       -3.4965670    -0.2439000     0.7732950
  H       -2.8364560     0.9719880    -0.3436930
  H       -2.4264190     1.0372780     1.3837270
units angstrom
no_reorient  #important for SAPT in psi4, default
symmetry c1  #important for SAPT in psi4, default
}

set PROPERTIES_ORIGIN ["COM"]
properties('MP2/aug-cc-pvtz', properties = ['dipole'])
--------------------------------------------------------------------------

    Molecular point group: c1
  Charge       = 0
  Multiplicity = 1
  Basis Set: AUG-CC-PVTZ
    Blend: AUG-CC-PVTZ
  Basis Set: (AUG-CC-PVTZ AUX)
    Blend: AUG-CC-PVTZ-JKFIT

    Orbital Energies [Eh]
    ---------------------

    Doubly Occupied:

       1A    -92.162507     2A    -20.532382     3A    -20.531114
       4A    -11.281119     5A    -11.281104     6A    -11.243522
       7A    -11.243302     8A    -11.232735     9A    -11.232710
      10A     -9.133875    11A     -6.818092    12A     -6.817663
      13A     -6.817568    14A     -1.421794    15A     -1.311927
      16A     -1.118296    17A     -1.095985    18A     -0.958257
      19A     -0.956393    20A     -0.924126    21A     -0.838260
      22A     -0.761450    23A     -0.704057    24A     -0.657380
      25A     -0.652983    26A     -0.643868    27A     -0.607653
      28A     -0.589602    29A     -0.579103    30A     -0.577153
      31A     -0.562674    32A     -0.555846    33A     -0.539751
      34A     -0.515574    35A     -0.515308    36A     -0.508187
      37A     -0.505142    38A     -0.479873    39A     -0.467282
      40A     -0.453341    41A     -0.413618

  @DF-RHF Final Energy:  -782.73633925494369

   => Energetics <=

    Nuclear Repulsion Energy =            640.6019547485960857
    One-Electron Energy =               -2346.1914388757786583
    Two-Electron Energy =                 922.8531448722387722
    Total Energy =                       -782.7363392549436867
  Basis Set: (AUG-CC-PVTZ AUX)
    Blend: AUG-CC-PVTZ-RI
    Molecular point group: c1

    Geometry (in Angstrom), charge = 0, multiplicity = 1:

       Center              X                  Y                   Z               Mass
    ------------   -----------------  -----------------  -----------------  -----------------
         S           -0.000271268964     0.472996965686    -0.001331888529    31.972071174400
         O           -0.244287968964     1.228229465686    -1.246789288529    15.994914619570
         O            0.246364731036     1.205873965686     1.256899111471    15.994914619570
         C            1.425812731036    -0.607063034314    -0.282141888529    12.000000000000
         C           -1.426397268964    -0.607041034314     0.279410111471    12.000000000000
         C            1.658503731036    -1.540622034314     0.899178111471    12.000000000000
         C            2.621135731036     0.308076965686    -0.543725888529    12.000000000000
         C           -1.659044268964    -1.540659034314    -0.901872888529    12.000000000000
         C           -2.621718268964     0.308136965686     0.540858111471    12.000000000000
         H            1.188276731036    -1.168517034314    -1.191840888529     1.007825032230
         H           -1.188957268964    -1.168457034314     1.189159111471     1.007825032230
         H            2.583806731036    -2.101154034314     0.736585111471     1.007825032230
         H            1.761356731036    -0.960962034314     1.820173111471     1.007825032230
         H            0.849399731036    -2.264652034314     1.027161111471     1.007825032230
         H            3.496251731036    -0.305468034314    -0.774729888529     1.007825032230
         H            2.836162731036     0.910559965686     0.342108111471     1.007825032230
         H            2.426095731036     0.975635965686    -1.385311888529     1.007825032230
         H           -2.584464268964    -2.101033034314    -0.739394888529     1.007825032230
         H           -1.761667268964    -0.961052034314    -1.822927888529     1.007825032230
         H           -0.850036268964    -2.264829034314    -1.029665888529     1.007825032230
         H           -3.496835268964    -0.305380034314     0.771934111471     1.007825032230
         H           -2.836724268964     0.910507965686    -0.345053888529     1.007825032230
         H           -2.426687268964     0.975797965686     1.382366111471     1.007825032230

  Basis Set: AUG-CC-PVTZ
    Blend: AUG-CC-PVTZ
  Basis Set: (AUG-CC-PVTZ AUX)
    Blend: AUG-CC-PVTZ-JKFIT
	 Reference Energy          =    -782.7363392549436867 [Eh]
	 Singles Energy            =      -0.0000000000000000 [Eh]
	 Same-Spin Energy          =      -0.4615207194360766 [Eh]
	 Opposite-Spin Energy      =      -1.4985753631891474 [Eh]
	 Correlation Energy        =      -1.9600960826252241 [Eh]
	 Total Energy              =    -784.6964353375689143 [Eh]

	 ================> DF-SCS-MP2 Energies <==================
	-----------------------------------------------------------
	 SCS Same-Spin Scale       =       0.3333333333333333 [-]
	 SCS Opposite-Spin Scale   =       1.2000000000000000 [-]
	 SCS Same-Spin Energy      =      -0.1538402398120255 [Eh]
	 SCS Opposite-Spin Energy  =      -1.7982904358269769 [Eh]
	 SCS Correlation Energy    =      -1.9521306756390024 [Eh]
	 SCS Total Energy          =    -784.6884699305826416 [Eh]
	-----------------------------------------------------------

  Dipole Moment: [D]
     X:    -0.0074      Y:    -4.5605      Z:    -0.0276     Total:     4.5606

*** Psi4 exiting successfully. Buy a developer a beer!
