                               Psi4 1.3.2 release

  ==> Input File <==

--------------------------------------------------------------------------
#psi4
#
memory 32 gb

molecule  {
0 1
  S       -0.0000030     0.5344770     0.0000290
  O       -0.2465190     1.2674450    -1.2581730
  O        0.2466330     1.2673540     1.2582600
  C        1.5048341    -0.6052275    -0.2962883
  C       -1.4261290    -0.5455610     0.2807710
  C        1.6587720    -1.4791420     0.9005390
  C        2.6214040     0.3695570    -0.5423650
  C       -1.6587760    -1.4791790    -0.9005120
  C       -2.6214500     0.3696170     0.5422190
  H        1.1885450    -1.1070370    -1.1904800
  H       -1.1886890    -1.1069770     1.1905200
  H        2.5840750    -2.0396740     0.7379460
  H        1.7616250    -0.8994820     1.8215340
  H        0.8496680    -2.2031720     1.0285220
  H        3.4965200    -0.2439880    -0.7733690
  H        2.8364310     0.9720400     0.3434690
  H        2.4263640     1.0371160    -1.3839510
  H       -2.5841960    -2.0395530    -0.7380340
  H       -1.7613990    -0.8995720    -1.8215670
  H       -0.8497680    -2.2033490    -1.0283050
  H       -3.4965670    -0.2439000     0.7732950
  H       -2.8364560     0.9719880    -0.3436930
  H       -2.4264190     1.0372780     1.3837270
units angstrom
no_reorient  #important for SAPT in psi4, default
symmetry c1  #important for SAPT in psi4, default
}

set PROPERTIES_ORIGIN ["COM"]
properties('MP2/aug-cc-pvtz', properties = ['dipole'])
--------------------------------------------------------------------------

    Molecular point group: c1
  Charge       = 0
  Multiplicity = 1
  Basis Set: AUG-CC-PVTZ
    Blend: AUG-CC-PVTZ
  Basis Set: (AUG-CC-PVTZ AUX)
    Blend: AUG-CC-PVTZ-JKFIT

    Orbital Energies [Eh]
    ---------------------

    Doubly Occupied:

       1A    -92.156398     2A    -20.531030     3A    -20.530948
       4A    -11.284808     5A    -11.278923     6A    -11.242470
       7A    -11.242370     8A    -11.231985     9A    -11.231334
      10A     -9.127852    11A     -6.811870    12A     -6.811466
      13A     -6.811444    14A     -1.417574    15A     -1.310805
      16A     -1.117698    17A     -1.098340    18A     -0.963659
      19A     -0.955999    20A     -0.914402    21A     -0.833835
      22A     -0.763360    23A     -0.699755    24A     -0.658104
      25A     -0.655501    26A     -0.642998    27A     -0.608672
      28A     -0.590729    29A     -0.579522    30A     -0.575002
      31A     -0.565244    32A     -0.555121    33A     -0.538039
      34A     -0.524523    35A     -0.520709    36A     -0.509646
      37A     -0.506402    38A     -0.479209    39A     -0.460838
      40A     -0.453578    41A     -0.396206

  @DF-RHF Final Energy:  -782.72878932591311

   => Energetics <=

    Nuclear Repulsion Energy =            638.8509931582779018
    One-Electron Energy =               -2342.7828330496058697
    Two-Electron Energy =                 921.2030505654147419
    Total Energy =                       -782.7287893259131124
  Basis Set: (AUG-CC-PVTZ AUX)
    Blend: AUG-CC-PVTZ-RI
    Molecular point group: c1

    Geometry (in Angstrom), charge = 0, multiplicity = 1:

       Center              X                  Y                   Z               Mass
    ------------   -----------------  -----------------  -----------------  -----------------
         S           -0.006302136959     0.480139248714     0.001266449706    31.972071174400
         O           -0.252818136959     1.213107248714    -1.256935550294    15.994914619570
         O            0.240333863041     1.213016248714     1.259497449706    15.994914619570
         C            1.498534963041    -0.659565251286    -0.295050850294    12.000000000000
         C           -1.432428136959    -0.599898751286     0.282008449706    12.000000000000
         C            1.652472863041    -1.533479751286     0.901776449706    12.000000000000
         C            2.615104863041     0.315219248714    -0.541127550294    12.000000000000
         C           -1.665075136959    -1.533516751286    -0.899274550294    12.000000000000
         C           -2.627749136959     0.315279248714     0.543456449706    12.000000000000
         H            1.182245863041    -1.161374751286    -1.189242550294     1.007825032230
         H           -1.194988136959    -1.161314751286     1.191757449706     1.007825032230
         H            2.577775863041    -2.094011751286     0.739183449706     1.007825032230
         H            1.755325863041    -0.953819751286     1.822771449706     1.007825032230
         H            0.843368863041    -2.257509751286     1.029759449706     1.007825032230
         H            3.490220863041    -0.298325751286    -0.772131550294     1.007825032230
         H            2.830131863041     0.917702248714     0.344706449706     1.007825032230
         H            2.420064863041     0.982778248714    -1.382713550294     1.007825032230
         H           -2.590495136959    -2.093890751286    -0.736796550294     1.007825032230
         H           -1.767698136959    -0.953909751286    -1.820329550294     1.007825032230
         H           -0.856067136959    -2.257686751286    -1.027067550294     1.007825032230
         H           -3.502866136959    -0.298237751286     0.774532449706     1.007825032230
         H           -2.842755136959     0.917650248714    -0.342455550294     1.007825032230
         H           -2.432718136959     0.982940248714     1.384964449706     1.007825032230

  Basis Set: AUG-CC-PVTZ
    Blend: AUG-CC-PVTZ
  Basis Set: (AUG-CC-PVTZ AUX)
    Blend: AUG-CC-PVTZ-JKFIT
	 Reference Energy          =    -782.7287893259131124 [Eh]
	 Singles Energy            =      -0.0000000000000000 [Eh]
	 Same-Spin Energy          =      -0.4621960455496785 [Eh]
	 Opposite-Spin Energy      =      -1.4997418364926078 [Eh]
	 Correlation Energy        =      -1.9619378820422864 [Eh]
	 Total Energy              =    -784.6907272079554332 [Eh]

	 ================> DF-SCS-MP2 Energies <==================
	-----------------------------------------------------------
	 SCS Same-Spin Scale       =       0.3333333333333333 [-]
	 SCS Opposite-Spin Scale   =       1.2000000000000000 [-]
	 SCS Same-Spin Energy      =      -0.1540653485165595 [Eh]
	 SCS Opposite-Spin Energy  =      -1.7996902037911293 [Eh]
	 SCS Correlation Energy    =      -1.9537555523076888 [Eh]
	 SCS Total Energy          =    -784.6825448782208241 [Eh]
	-----------------------------------------------------------

  Dipole Moment: [D]
     X:     0.0119      Y:    -4.5008      Z:     0.0173     Total:     4.5009

*** Psi4 exiting successfully. Buy a developer a beer!
