                               Psi4 1.3.2 release

  ==> Input File <==

--------------------------------------------------------------------------
#psi4
#
memory 32 gb

molecule  {
0 1
  S       -0.0000030     0.5344770     0.0000290
  O       -0.2632110     1.3170755    -1.3433680
  O        0.2466330     1.2673540     1.2582600
  C        1.4260810    -0.5455830    -0.2807810
  C       -1.4261290    -0.5455610     0.2807710
  C        1.6587720    -1.4791420     0.9005390
  C        2.6214040     0.3695570    -0.5423650
  C       -1.6587760    -1.4791790    -0.9005120
  C       -2.6214500     0.3696170     0.5422190
  H        1.1885450    -1.1070370    -1.1904800
  H       -1.1886890    -1.1069770     1.1905200
  H        2.5840750    -2.0396740     0.7379460
  H        1.7616250    -0.8994820     1.8215340
  H        0.8496680    -2.2031720     1.0285220
  H        3.4965200    -0.2439880    -0.7733690
  H        2.8364310     0.9720400     0.3434690
  H        2.4263640     1.0371160    -1.3839510
  H       -2.5841960    -2.0395530    -0.7380340
  H       -1.7613990    -0.8995720    -1.8215670
  H       -0.8497680    -2.2033490    -1.0283050
  H       -3.4965670    -0.2439000     0.7732950
  H       -2.8364560     0.9719880    -0.3436930
  H       -2.4264190     1.0372780     1.3837270
units angstrom
no_reorient  #important for SAPT in psi4, default
symmetry c1  #important for SAPT in psi4, default
}

set PROPERTIES_ORIGIN ["COM"]
properties('MP2/aug-cc-pvtz', properties = ['dipole'])
--------------------------------------------------------------------------

    Molecular point group: c1
  Charge       = 0
  Multiplicity = 1
  Basis Set: AUG-CC-PVTZ
    Blend: AUG-CC-PVTZ
  Basis Set: (AUG-CC-PVTZ AUX)
    Blend: AUG-CC-PVTZ-JKFIT

    Orbital Energies [Eh]
    ---------------------

    Doubly Occupied:

       1A    -92.166698     2A    -20.539109     3A    -20.531171
       4A    -11.286198     5A    -11.286071     6A    -11.246358
       7A    -11.244407     8A    -11.234041     9A    -11.233956
      10A     -9.138016    11A     -6.822111    12A     -6.821728
      13A     -6.821051    14A     -1.402340    15A     -1.282389
      16A     -1.121011    17A     -1.098296    18A     -0.960075
      19A     -0.958038    20A     -0.930196    21A     -0.839835
      22A     -0.765515    23A     -0.702319    24A     -0.655285
      25A     -0.651122    26A     -0.643187    27A     -0.602623
      28A     -0.590586    29A     -0.577457    30A     -0.574348
      31A     -0.563536    32A     -0.556061    33A     -0.538145
      34A     -0.517184    35A     -0.516942    36A     -0.508940
      37A     -0.506494    38A     -0.471300    39A     -0.460319
      40A     -0.444954    41A     -0.415989

  @DF-RHF Final Energy:  -782.71870165555367

   => Energetics <=

    Nuclear Repulsion Energy =            636.0606571218376075
    One-Electron Energy =               -2337.1079179215876138
    Two-Electron Energy =                 918.3285591441962197
    Total Energy =                       -782.7187016555536729
  Basis Set: (AUG-CC-PVTZ AUX)
    Blend: AUG-CC-PVTZ-RI
    Molecular point group: c1

    Geometry (in Angstrom), charge = 0, multiplicity = 1:

       Center              X                  Y                   Z               Mass
    ------------   -----------------  -----------------  -----------------  -----------------
         S            0.001774178075     0.470080242812     0.009106709424    31.972071174400
         O           -0.261433821924     1.252678742812    -1.334290290576    15.994914619570
         O            0.248410178076     1.202957242812     1.267337709424    15.994914619570
         C            1.427858178075    -0.609979757188    -0.271703290576    12.000000000000
         C           -1.424351821925    -0.609957757188     0.289848709424    12.000000000000
         C            1.660549178075    -1.543538757188     0.909616709424    12.000000000000
         C            2.623181178075     0.305160242812    -0.533287290576    12.000000000000
         C           -1.656998821925    -1.543575757188    -0.891434290576    12.000000000000
         C           -2.619672821924     0.305220242812     0.551296709424    12.000000000000
         H            1.190322178075    -1.171433757188    -1.181402290576     1.007825032230
         H           -1.186911821925    -1.171373757188     1.199597709424     1.007825032230
         H            2.585852178075    -2.104070757188     0.747023709424     1.007825032230
         H            1.763402178075    -0.963878757188     1.830611709424     1.007825032230
         H            0.851445178075    -2.267568757188     1.037599709424     1.007825032230
         H            3.498297178076    -0.308384757188    -0.764291290576     1.007825032230
         H            2.838208178075     0.907643242812     0.352546709424     1.007825032230
         H            2.428141178075     0.972719242812    -1.374873290576     1.007825032230
         H           -2.582418821925    -2.103949757188    -0.728956290576     1.007825032230
         H           -1.759621821925    -0.963968757188    -1.812489290576     1.007825032230
         H           -0.847990821925    -2.267745757188    -1.019227290576     1.007825032230
         H           -3.494789821925    -0.308296757188     0.782372709424     1.007825032230
         H           -2.834678821925     0.907591242812    -0.334615290576     1.007825032230
         H           -2.424641821925     0.972881242812     1.392804709424     1.007825032230

  Basis Set: AUG-CC-PVTZ
    Blend: AUG-CC-PVTZ
  Basis Set: (AUG-CC-PVTZ AUX)
    Blend: AUG-CC-PVTZ-JKFIT
	 Reference Energy          =    -782.7187016555536729 [Eh]
	 Singles Energy            =      -0.0000000000000000 [Eh]
	 Same-Spin Energy          =      -0.4630938237618545 [Eh]
	 Opposite-Spin Energy      =      -1.5030872207845594 [Eh]
	 Correlation Energy        =      -1.9661810445464138 [Eh]
	 Total Energy              =    -784.6848827001000473 [Eh]

	 ================> DF-SCS-MP2 Energies <==================
	-----------------------------------------------------------
	 SCS Same-Spin Scale       =       0.3333333333333333 [-]
	 SCS Opposite-Spin Scale   =       1.2000000000000000 [-]
	 SCS Same-Spin Energy      =      -0.1543646079206182 [Eh]
	 SCS Opposite-Spin Energy  =      -1.8037046649414712 [Eh]
	 SCS Correlation Energy    =      -1.9580692728620894 [Eh]
	 SCS Total Energy          =    -784.6767709284157490 [Eh]
	-----------------------------------------------------------

  Dipole Moment: [D]
     X:     0.0943      Y:    -4.8236      Z:     0.4310     Total:     4.8437

*** Psi4 exiting successfully. Buy a developer a beer!
