                               Psi4 1.3.2 release

  ==> Input File <==

--------------------------------------------------------------------------
#psi4
#
memory 32 gb

molecule  {
0 1
  S        0.1179199     0.6804657    -0.0265793
  O       -0.2465190     1.2674450    -1.2581730
  O        0.2466330     1.2673540     1.2582600
  C        1.4260810    -0.5455830    -0.2807810
  C       -1.4261290    -0.5455610     0.2807710
  C        1.6587720    -1.4791420     0.9005390
  C        2.6214040     0.3695570    -0.5423650
  C       -1.6587760    -1.4791790    -0.9005120
  C       -2.6214500     0.3696170     0.5422190
  H        1.1885450    -1.1070370    -1.1904800
  H       -1.1886890    -1.1069770     1.1905200
  H        2.5840750    -2.0396740     0.7379460
  H        1.7616250    -0.8994820     1.8215340
  H        0.8496680    -2.2031720     1.0285220
  H        3.4965200    -0.2439880    -0.7733690
  H        2.8364310     0.9720400     0.3434690
  H        2.4263640     1.0371160    -1.3839510
  H       -2.5841960    -2.0395530    -0.7380340
  H       -1.7613990    -0.8995720    -1.8215670
  H       -0.8497680    -2.2033490    -1.0283050
  H       -3.4965670    -0.2439000     0.7732950
  H       -2.8364560     0.9719880    -0.3436930
  H       -2.4264190     1.0372780     1.3837270
units angstrom
no_reorient  #important for SAPT in psi4, default
symmetry c1  #important for SAPT in psi4, default
}

set PROPERTIES_ORIGIN ["COM"]
properties('MP2/aug-cc-pvtz', properties = ['dipole'])
--------------------------------------------------------------------------

    Molecular point group: c1
  Charge       = 0
  Multiplicity = 1
  Basis Set: AUG-CC-PVTZ
    Blend: AUG-CC-PVTZ
  Basis Set: (AUG-CC-PVTZ AUX)
    Blend: AUG-CC-PVTZ-JKFIT

    Orbital Energies [Eh]
    ---------------------

    Doubly Occupied:

       1A    -92.162099     2A    -20.549648     3A    -20.548305
       4A    -11.280432     5A    -11.259607     6A    -11.243680
       7A    -11.236601     8A    -11.227725     9A    -11.218059
      10A     -9.133776    11A     -6.818291    12A     -6.818003
      13A     -6.817319    14A     -1.467740    15A     -1.364647
      16A     -1.111975    17A     -1.070626    18A     -0.961076
      19A     -0.940582    20A     -0.902438    21A     -0.814415
      22A     -0.765244    23A     -0.704130    24A     -0.670176
      25A     -0.657416    26A     -0.642161    27A     -0.618259
      28A     -0.589638    29A     -0.581254    30A     -0.575135
      31A     -0.561131    32A     -0.550318    33A     -0.540876
      34A     -0.517214    35A     -0.514924    36A     -0.509263
      37A     -0.498620    38A     -0.491305    39A     -0.481909
      40A     -0.475257    41A     -0.374010

  @DF-RHF Final Energy:  -782.70823373757116

   => Energetics <=

    Nuclear Repulsion Energy =            639.8552634206598668
    One-Electron Energy =               -2344.5964320767238860
    Two-Electron Energy =                 922.0329349184928560
    Total Energy =                       -782.7082337375711631
  Basis Set: (AUG-CC-PVTZ AUX)
    Blend: AUG-CC-PVTZ-RI
    Molecular point group: c1

    Geometry (in Angstrom), charge = 0, multiplicity = 1:

       Center              X                  Y                   Z               Mass
    ------------   -----------------  -----------------  -----------------  -----------------
         S            0.092795049452     0.590256401688    -0.020913060823    31.972071174400
         O           -0.271643850548     1.177235701688    -1.252506760823    15.994914619570
         O            0.221508149452     1.177144701688     1.263926239177    15.994914619570
         C            1.400956149452    -0.635792298312    -0.275114760823    12.000000000000
         C           -1.451253850548    -0.635770298312     0.286437239177    12.000000000000
         C            1.633647149452    -1.569351298312     0.906205239177    12.000000000000
         C            2.596279149452     0.279347701688    -0.536698760823    12.000000000000
         C           -1.683900850548    -1.569388298312    -0.894845760823    12.000000000000
         C           -2.646574850548     0.279407701688     0.547885239177    12.000000000000
         H            1.163420149452    -1.197246298312    -1.184813760823     1.007825032230
         H           -1.213813850548    -1.197186298312     1.196186239177     1.007825032230
         H            2.558950149452    -2.129883298312     0.743612239177     1.007825032230
         H            1.736500149452    -0.989691298312     1.827200239177     1.007825032230
         H            0.824543149452    -2.293381298312     1.034188239177     1.007825032230
         H            3.471395149452    -0.334197298312    -0.767702760823     1.007825032230
         H            2.811306149452     0.881830701688     0.349135239177     1.007825032230
         H            2.401239149452     0.946906701688    -1.378284760823     1.007825032230
         H           -2.609320850548    -2.129762298312    -0.732367760823     1.007825032230
         H           -1.786523850548    -0.989781298312    -1.815900760823     1.007825032230
         H           -0.874892850548    -2.293558298312    -1.022638760823     1.007825032230
         H           -3.521691850548    -0.334109298312     0.778961239177     1.007825032230
         H           -2.861580850548     0.881778701688    -0.338026760823     1.007825032230
         H           -2.451543850548     0.947068701688     1.389393239177     1.007825032230

  Basis Set: AUG-CC-PVTZ
    Blend: AUG-CC-PVTZ
  Basis Set: (AUG-CC-PVTZ AUX)
    Blend: AUG-CC-PVTZ-JKFIT
	 Reference Energy          =    -782.7082337375711631 [Eh]
	 Singles Energy            =      -0.0000000000000000 [Eh]
	 Same-Spin Energy          =      -0.4606051396614007 [Eh]
	 Opposite-Spin Energy      =      -1.4981317405224774 [Eh]
	 Correlation Energy        =      -1.9587368801838783 [Eh]
	 Total Energy              =    -784.6669706177550552 [Eh]

	 ================> DF-SCS-MP2 Energies <==================
	-----------------------------------------------------------
	 SCS Same-Spin Scale       =       0.3333333333333333 [-]
	 SCS Opposite-Spin Scale   =       1.2000000000000000 [-]
	 SCS Same-Spin Energy      =      -0.1535350465538002 [Eh]
	 SCS Opposite-Spin Energy  =      -1.7977580886269728 [Eh]
	 SCS Correlation Energy    =      -1.9512931351807730 [Eh]
	 SCS Total Energy          =    -784.6595268727519397 [Eh]
	-----------------------------------------------------------

  Dipole Moment: [D]
     X:     1.0620      Y:    -3.4382      Z:    -0.1237     Total:     3.6006

*** Psi4 exiting successfully. Buy a developer a beer!
