                               Psi4 1.3.2 release

  ==> Input File <==

--------------------------------------------------------------------------
#psi4
#
memory 32 gb

molecule  {
0 1
  S       -0.0358975     0.4831016     0.0082282
  O       -0.2465190     1.2674450    -1.2581730
  O        0.2466330     1.2673540     1.2582600
  C        1.4260810    -0.5455830    -0.2807810
  C       -1.4261290    -0.5455610     0.2807710
  C        1.6587720    -1.4791420     0.9005390
  C        2.6214040     0.3695570    -0.5423650
  C       -1.6587760    -1.4791790    -0.9005120
  C       -2.6214500     0.3696170     0.5422190
  H        1.1885450    -1.1070370    -1.1904800
  H       -1.1886890    -1.1069770     1.1905200
  H        2.5840750    -2.0396740     0.7379460
  H        1.7616250    -0.8994820     1.8215340
  H        0.8496680    -2.2031720     1.0285220
  H        3.4965200    -0.2439880    -0.7733690
  H        2.8364310     0.9720400     0.3434690
  H        2.4263640     1.0371160    -1.3839510
  H       -2.5841960    -2.0395530    -0.7380340
  H       -1.7613990    -0.8995720    -1.8215670
  H       -0.8497680    -2.2033490    -1.0283050
  H       -3.4965670    -0.2439000     0.7732950
  H       -2.8364560     0.9719880    -0.3436930
  H       -2.4264190     1.0372780     1.3837270
units angstrom
no_reorient  #important for SAPT in psi4, default
symmetry c1  #important for SAPT in psi4, default
}

set PROPERTIES_ORIGIN ["COM"]
properties('MP2/aug-cc-pvtz', properties = ['dipole'])
--------------------------------------------------------------------------

    Molecular point group: c1
  Charge       = 0
  Multiplicity = 1
  Basis Set: AUG-CC-PVTZ
    Blend: AUG-CC-PVTZ
  Basis Set: (AUG-CC-PVTZ AUX)
    Blend: AUG-CC-PVTZ-JKFIT

    Orbital Energies [Eh]
    ---------------------

    Doubly Occupied:

       1A    -92.163141     2A    -20.527749     3A    -20.527300
       4A    -11.285021     5A    -11.282416     6A    -11.247865
       7A    -11.243221     8A    -11.237224     9A    -11.232127
      10A     -9.135075    11A     -6.819228    12A     -6.818849
      13A     -6.818439    14A     -1.405187    15A     -1.293954
      16A     -1.126841    17A     -1.099521    18A     -0.962427
      19A     -0.956537    20A     -0.933419    21A     -0.844643
      22A     -0.761587    23A     -0.705661    24A     -0.656588
      25A     -0.652592    26A     -0.643667    27A     -0.602997
      28A     -0.591210    29A     -0.577243    30A     -0.575657
      31A     -0.563988    32A     -0.555751    33A     -0.538383
      34A     -0.518304    35A     -0.517974    36A     -0.508143
      37A     -0.506207    38A     -0.470500    39A     -0.463726
      40A     -0.443204    41A     -0.419038

  @DF-RHF Final Energy:  -782.72838299400178

   => Energetics <=

    Nuclear Repulsion Energy =            640.8630702953153104
    One-Electron Energy =               -2346.7176927326167970
    Two-Electron Energy =                 923.1262394432997098
    Total Energy =                       -782.7283829940017768
  Basis Set: (AUG-CC-PVTZ AUX)
    Blend: AUG-CC-PVTZ-RI
    Molecular point group: c1

    Geometry (in Angstrom), charge = 0, multiplicity = 1:

       Center              X                  Y                   Z               Mass
    ------------   -----------------  -----------------  -----------------  -----------------
         S           -0.028252221171     0.434939866472     0.006478852395    31.972071174400
         O           -0.238873721171     1.219283266472    -1.259922347605    15.994914619570
         O            0.254278278829     1.219192266472     1.256510652395    15.994914619570
         C            1.433726278829    -0.593744733528    -0.282530347605    12.000000000000
         C           -1.418483721171    -0.593722733528     0.279021652395    12.000000000000
         C            1.666417278829    -1.527303733528     0.898789652395    12.000000000000
         C            2.629049278829     0.321395266472    -0.544114347605    12.000000000000
         C           -1.651130721171    -1.527340733528    -0.902261347605    12.000000000000
         C           -2.613804721171     0.321455266472     0.540469652395    12.000000000000
         H            1.196190278829    -1.155198733528    -1.192229347605     1.007825032230
         H           -1.181043721171    -1.155138733528     1.188770652395     1.007825032230
         H            2.591720278829    -2.087835733528     0.736196652395     1.007825032230
         H            1.769270278829    -0.947643733528     1.819784652395     1.007825032230
         H            0.857313278829    -2.251333733528     1.026772652395     1.007825032230
         H            3.504165278829    -0.292149733528    -0.775118347605     1.007825032230
         H            2.844076278829     0.923878266472     0.341719652395     1.007825032230
         H            2.434009278829     0.988954266472    -1.385700347605     1.007825032230
         H           -2.576550721171    -2.087714733528    -0.739783347605     1.007825032230
         H           -1.753753721171    -0.947733733528    -1.823316347605     1.007825032230
         H           -0.842122721171    -2.251510733528    -1.030054347605     1.007825032230
         H           -3.488921721171    -0.292061733528     0.771545652395     1.007825032230
         H           -2.828810721171     0.923826266472    -0.345442347605     1.007825032230
         H           -2.418773721171     0.989116266472     1.381977652395     1.007825032230

  Basis Set: AUG-CC-PVTZ
    Blend: AUG-CC-PVTZ
  Basis Set: (AUG-CC-PVTZ AUX)
    Blend: AUG-CC-PVTZ-JKFIT
	 Reference Energy          =    -782.7283829940017768 [Eh]
	 Singles Energy            =      -0.0000000000000000 [Eh]
	 Same-Spin Energy          =      -0.4626805285196620 [Eh]
	 Opposite-Spin Energy      =      -1.5004890138303884 [Eh]
	 Correlation Energy        =      -1.9631695423500504 [Eh]
	 Total Energy              =    -784.6915525363518782 [Eh]

	 ================> DF-SCS-MP2 Energies <==================
	-----------------------------------------------------------
	 SCS Same-Spin Scale       =       0.3333333333333333 [-]
	 SCS Opposite-Spin Scale   =       1.2000000000000000 [-]
	 SCS Same-Spin Energy      =      -0.1542268428398873 [Eh]
	 SCS Opposite-Spin Energy  =      -1.8005868165964660 [Eh]
	 SCS Correlation Energy    =      -1.9548136594363534 [Eh]
	 SCS Total Energy          =    -784.6831966534381309 [Eh]
	-----------------------------------------------------------

  Dipole Moment: [D]
     X:    -0.2810      Y:    -4.8568      Z:     0.0336     Total:     4.8651

*** Psi4 exiting successfully. Buy a developer a beer!
