                               Psi4 1.4a3.dev225

  ==> Input File <==

--------------------------------------------------------------------------
#psi4
#
memory 32 gb

molecule  {
0 1
  S        0.0000010    -0.5344910     0.0000050
  O        0.2499172    -1.2773597    -1.2752491
  O       -0.2465760    -1.2674230     1.2582270
  C       -1.4260780     0.5455690    -0.2807730
  C        1.4260820     0.5455700     0.2807730
  C       -1.6587340     1.4791280     0.9005660
  C       -2.6214390    -0.3695300    -0.5423140
  C        1.6587160     1.4791480    -0.9005550
  C        2.6214500    -0.3695300     0.5422790
  H       -1.1885770     1.1070300    -1.1904720
  H        1.1885950     1.1070160     1.1904860
  H       -2.5841820     2.0394700     0.7381390
  H       -1.7612990     0.8994750     1.8215980
  H       -0.8497540     2.2033300     1.0283560
  H       -3.4964690     0.2440390    -0.7735820
  H       -2.8366250    -0.9717990     0.3436230
  H       -2.4263300    -1.0372830    -1.3837320
  H        2.5841850     2.0394630    -0.7381520
  H        1.7612340     0.8995120    -1.8216040
  H        0.8497500     2.2033730    -1.0282990
  H        3.4964760     0.2440360     0.7735650
  H        2.8366350    -0.9717700    -0.3436780
  H        2.4263480    -1.0373120     1.3836770
units angstrom
no_reorient  #important for SAPT in psi4, default
symmetry c1  #important for SAPT in psi4, default
}

set PROPERTIES_ORIGIN ["COM"]
properties('MP2/aug-cc-pvtz', properties = ['dipole'])
--------------------------------------------------------------------------

    Molecular point group: c1
  Charge       = 0
  Multiplicity = 1
  Basis Set: AUG-CC-PVTZ
    Blend: AUG-CC-PVTZ
  Basis Set: (AUG-CC-PVTZ AUX)
    Blend: AUG-CC-PVTZ-JKFIT

    Orbital Energies [Eh]
    ---------------------

    Doubly Occupied:

       1A    -92.163979     2A    -20.534066     3A    -20.532213
       4A    -11.281824     5A    -11.281793     6A    -11.243711
       7A    -11.243272     8A    -11.232921     9A    -11.232902
      10A     -9.135166    11A     -6.819380    12A     -6.818968
      13A     -6.818708    14A     -1.416437    15A     -1.308176
      16A     -1.118424    17A     -1.096234    18A     -0.958446
      19A     -0.956529    20A     -0.925036    21A     -0.838395
      22A     -0.762292    23A     -0.703469    24A     -0.656098
      25A     -0.653030    26A     -0.643616    27A     -0.606814
      28A     -0.589620    29A     -0.578699    30A     -0.576556
      31A     -0.562629    32A     -0.555568    33A     -0.539236
      34A     -0.515709    35A     -0.515463    36A     -0.508180
      37A     -0.505155    38A     -0.479130    39A     -0.465944
      40A     -0.452842    41A     -0.413924

  @DF-RHF Final Energy:  -782.73372465519049

   => Energetics <=

    Nuclear Repulsion Energy =            639.7441171707673675
    One-Electron Energy =               -2344.4745800297741880
    Two-Electron Energy =                 921.9967382038163350
    Total Energy =                       -782.7337246551904855
  Basis Set: (AUG-CC-PVTZ AUX)
    Blend: AUG-CC-PVTZ-RI
    Molecular point group: c1

    Geometry (in Angstrom), charge = 0, multiplicity = 1:

       Center              X                  Y                   Z               Mass
    ------------   -----------------  -----------------  -----------------  -----------------
         S           -0.000354997618    -0.474324014032     0.001820606907    31.972071174400
         O            0.249561202382    -1.217192714032    -1.273433493093    15.994914619570
         O           -0.246931997618    -1.207256014032     1.260042606907    15.994914619570
         C           -1.426433997618     0.605735985968    -0.278957393093    12.000000000000
         C            1.425726002382     0.605736985968     0.282588606907    12.000000000000
         C           -1.659089997618     1.539294985968     0.902381606907    12.000000000000
         C           -2.621794997618    -0.309363014032    -0.540498393093    12.000000000000
         C            1.658360002382     1.539314985968    -0.898739393093    12.000000000000
         C            2.621094002382    -0.309363014032     0.544094606907    12.000000000000
         H           -1.188932997618     1.167196985968    -1.188656393093     1.007825032230
         H            1.188239002382     1.167182985968     1.192301606907     1.007825032230
         H           -2.584537997618     2.099636985968     0.739954606907     1.007825032230
         H           -1.761654997618     0.959641985968     1.823413606907     1.007825032230
         H           -0.850109997618     2.263496985968     1.030171606907     1.007825032230
         H           -3.496824997618     0.304205985968    -0.771766393093     1.007825032230
         H           -2.836980997618    -0.911632014032     0.345438606907     1.007825032230
         H           -2.426685997618    -0.977116014032    -1.381916393093     1.007825032230
         H            2.583829002382     2.099629985968    -0.736336393093     1.007825032230
         H            1.760878002382     0.959678985968    -1.819788393093     1.007825032230
         H            0.849394002382     2.263539985968    -1.026483393093     1.007825032230
         H            3.496120002382     0.304202985968     0.775380606907     1.007825032230
         H            2.836279002382    -0.911603014032    -0.341862393093     1.007825032230
         H            2.425992002382    -0.977145014032     1.385492606907     1.007825032230

  Basis Set: AUG-CC-PVTZ
    Blend: AUG-CC-PVTZ
  Basis Set: (AUG-CC-PVTZ AUX)
    Blend: AUG-CC-PVTZ-JKFIT
	 Reference Energy          =    -782.7337246551904855 [Eh]
	 Singles Energy            =      -0.0000000000000000 [Eh]
	 Same-Spin Energy          =      -0.4619493022550216 [Eh]
	 Opposite-Spin Energy      =      -1.4996693788011921 [Eh]
	 Correlation Energy        =      -1.9616186810562137 [Eh]
	 Total Energy              =    -784.6953433362466512 [Eh]

	 ================> DF-SCS-MP2 Energies <==================
	-----------------------------------------------------------
	 SCS Same-Spin Scale       =       0.3333333333333333 [-]
	 SCS Opposite-Spin Scale   =       1.2000000000000000 [-]
	 SCS Same-Spin Energy      =      -0.1539831007516739 [Eh]
	 SCS Opposite-Spin Energy  =      -1.7996032545614304 [Eh]
	 SCS Correlation Energy    =      -1.9535863553131043 [Eh]
	 SCS Total Energy          =    -784.6873110105035494 [Eh]
	-----------------------------------------------------------

  Dipole Moment: [D]
     X:    -0.0189      Y:     4.5674      Z:     0.0854     Total:     4.5682

*** Psi4 exiting successfully. Buy a developer a beer!
