                               Psi4 1.4a3.dev225

  ==> Input File <==

--------------------------------------------------------------------------
#psi4
#
memory 32 gb

molecule  {
0 1
  S        0.0000010    -0.5344910     0.0000050
  O        0.2382300    -1.2426197    -1.2156123
  O       -0.2465760    -1.2674230     1.2582270
  C       -1.4260780     0.5455690    -0.2807730
  C        1.4260820     0.5455700     0.2807730
  C       -1.6587340     1.4791280     0.9005660
  C       -2.6214390    -0.3695300    -0.5423140
  C        1.6587160     1.4791480    -0.9005550
  C        2.6214500    -0.3695300     0.5422790
  H       -1.1885770     1.1070300    -1.1904720
  H        1.1885950     1.1070160     1.1904860
  H       -2.5841820     2.0394700     0.7381390
  H       -1.7612990     0.8994750     1.8215980
  H       -0.8497540     2.2033300     1.0283560
  H       -3.4964690     0.2440390    -0.7735820
  H       -2.8366250    -0.9717990     0.3436230
  H       -2.4263300    -1.0372830    -1.3837320
  H        2.5841850     2.0394630    -0.7381520
  H        1.7612340     0.8995120    -1.8216040
  H        0.8497500     2.2033730    -1.0282990
  H        3.4964760     0.2440360     0.7735650
  H        2.8366350    -0.9717700    -0.3436780
  H        2.4263480    -1.0373120     1.3836770
units angstrom
no_reorient  #important for SAPT in psi4, default
symmetry c1  #important for SAPT in psi4, default
}

set PROPERTIES_ORIGIN ["COM"]
properties('MP2/aug-cc-pvtz', properties = ['dipole'])
--------------------------------------------------------------------------

    Molecular point group: c1
  Charge       = 0
  Multiplicity = 1
  Basis Set: AUG-CC-PVTZ
    Blend: AUG-CC-PVTZ
  Basis Set: (AUG-CC-PVTZ AUX)
    Blend: AUG-CC-PVTZ-JKFIT

    Orbital Energies [Eh]
    ---------------------

    Doubly Occupied:

       1A    -92.158841     2A    -20.533899     3A    -20.528864
       4A    -11.277467     5A    -11.277385     6A    -11.242228
       7A    -11.241046     8A    -11.231928     9A    -11.231878
      10A     -9.130928    11A     -6.815143    12A     -6.815046
      13A     -6.814605    14A     -1.441141    15A     -1.323496
      16A     -1.115852    17A     -1.094242    18A     -0.956996
      19A     -0.955008    20A     -0.920283    21A     -0.837177
      22A     -0.759514    23A     -0.705906    24A     -0.662096
      25A     -0.651854    26A     -0.645420    27A     -0.611704
      28A     -0.588964    29A     -0.579564    30A     -0.578673
      31A     -0.561881    32A     -0.555108    33A     -0.541834
      34A     -0.514352    35A     -0.514044    36A     -0.507676
      37A     -0.503898    38A     -0.485223    39A     -0.470464
      40A     -0.457880    41A     -0.411437

  @DF-RHF Final Energy:  -782.73871825009621

   => Energetics <=

    Nuclear Repulsion Energy =            643.1989083937776286
    One-Electron Energy =               -2351.3733658942837792
    Two-Electron Energy =                 925.4357392504099380
    Total Energy =                       -782.7387182500962126
  Basis Set: (AUG-CC-PVTZ AUX)
    Blend: AUG-CC-PVTZ-RI
    Molecular point group: c1

    Geometry (in Angstrom), charge = 0, multiplicity = 1:

       Center              X                  Y                   Z               Mass
    ------------   -----------------  -----------------  -----------------  -----------------
         S            0.000890647473    -0.478026672537    -0.004535602210    31.972071174400
         O            0.239119647473    -1.186155372537    -1.220152902210    15.994914619570
         O           -0.245686352527    -1.210958672537     1.253686397790    15.994914619570
         C           -1.425188352527     0.602033327463    -0.285313602210    12.000000000000
         C            1.426971647473     0.602034327463     0.276232397790    12.000000000000
         C           -1.657844352527     1.535592327463     0.896025397790    12.000000000000
         C           -2.620549352527    -0.313065672537    -0.546854602210    12.000000000000
         C            1.659605647473     1.535612327463    -0.905095602210    12.000000000000
         C            2.622339647473    -0.313065672537     0.537738397790    12.000000000000
         H           -1.187687352527     1.163494327463    -1.195012602210     1.007825032230
         H            1.189484647473     1.163480327463     1.185945397790     1.007825032230
         H           -2.583292352527     2.095934327463     0.733598397790     1.007825032230
         H           -1.760409352527     0.955939327463     1.817057397790     1.007825032230
         H           -0.848864352527     2.259794327463     1.023815397790     1.007825032230
         H           -3.495579352527     0.300503327463    -0.778122602210     1.007825032230
         H           -2.835735352527    -0.915334672537     0.339082397790     1.007825032230
         H           -2.425440352527    -0.980818672537    -1.388272602210     1.007825032230
         H            2.585074647473     2.095927327463    -0.742692602210     1.007825032230
         H            1.762123647473     0.955976327463    -1.826144602210     1.007825032230
         H            0.850639647473     2.259837327463    -1.032839602210     1.007825032230
         H            3.497365647473     0.300500327463     0.769024397790     1.007825032230
         H            2.837524647473    -0.915305672537    -0.348218602210     1.007825032230
         H            2.427237647473    -0.980847672537     1.379136397790     1.007825032230

  Basis Set: AUG-CC-PVTZ
    Blend: AUG-CC-PVTZ
  Basis Set: (AUG-CC-PVTZ AUX)
    Blend: AUG-CC-PVTZ-JKFIT
	 Reference Energy          =    -782.7387182500962126 [Eh]
	 Singles Energy            =      -0.0000000000000000 [Eh]
	 Same-Spin Energy          =      -0.4605737733476044 [Eh]
	 Opposite-Spin Energy      =      -1.4962040436293043 [Eh]
	 Correlation Energy        =      -1.9567778169769086 [Eh]
	 Total Energy              =    -784.6954960670731225 [Eh]

	 ================> DF-SCS-MP2 Energies <==================
	-----------------------------------------------------------
	 SCS Same-Spin Scale       =       0.3333333333333333 [-]
	 SCS Opposite-Spin Scale   =       1.2000000000000000 [-]
	 SCS Same-Spin Energy      =      -0.1535245911158681 [Eh]
	 SCS Opposite-Spin Energy  =      -1.7954448523551652 [Eh]
	 SCS Correlation Energy    =      -1.9489694434710332 [Eh]
	 SCS Total Energy          =    -784.6876876935672271 [Eh]
	-----------------------------------------------------------

  Dipole Moment: [D]
     X:     0.0476      Y:     4.3426      Z:    -0.2134     Total:     4.3481

*** Psi4 exiting successfully. Buy a developer a beer!
