                               Psi4 1.3.2 release

  ==> Input File <==

--------------------------------------------------------------------------
#psi4
#
memory 32 gb

molecule  {
0 1
  S       -0.0000030     0.5344770     0.0000290
  O       -0.2465190     1.2674450    -1.2581730
  O        0.1557358     1.3140329     1.2446660
  C        1.4260810    -0.5455830    -0.2807810
  C       -1.4261290    -0.5455610     0.2807710
  C        1.6587720    -1.4791420     0.9005390
  C        2.6214040     0.3695570    -0.5423650
  C       -1.6587760    -1.4791790    -0.9005120
  C       -2.6214500     0.3696170     0.5422190
  H        1.1885450    -1.1070370    -1.1904800
  H       -1.1886890    -1.1069770     1.1905200
  H        2.5840750    -2.0396740     0.7379460
  H        1.7616250    -0.8994820     1.8215340
  H        0.8496680    -2.2031720     1.0285220
  H        3.4965200    -0.2439880    -0.7733690
  H        2.8364310     0.9720400     0.3434690
  H        2.4263640     1.0371160    -1.3839510
  H       -2.5841960    -2.0395530    -0.7380340
  H       -1.7613990    -0.8995720    -1.8215670
  H       -0.8497680    -2.2033490    -1.0283050
  H       -3.4965670    -0.2439000     0.7732950
  H       -2.8364560     0.9719880    -0.3436930
  H       -2.4264190     1.0372780     1.3837270
units angstrom
no_reorient  #important for SAPT in psi4, default
symmetry c1  #important for SAPT in psi4, default
}

set PROPERTIES_ORIGIN ["COM"]
properties('MP2/aug-cc-pvtz', properties = ['dipole'])
--------------------------------------------------------------------------

    Molecular point group: c1
  Charge       = 0
  Multiplicity = 1
  Basis Set: AUG-CC-PVTZ
    Blend: AUG-CC-PVTZ
  Basis Set: (AUG-CC-PVTZ AUX)
    Blend: AUG-CC-PVTZ-JKFIT

    Orbital Energies [Eh]
    ---------------------

    Doubly Occupied:

       1A    -92.162123     2A    -20.531961     3A    -20.529322
       4A    -11.285088     5A    -11.278323     6A    -11.245997
       7A    -11.241586     8A    -11.235423     9A    -11.230038
      10A     -9.133569    11A     -6.817783    12A     -6.817329
      13A     -6.817271    14A     -1.421439    15A     -1.310095
      16A     -1.119382    17A     -1.095958    18A     -0.960103
      19A     -0.954961    20A     -0.924581    21A     -0.838392
      22A     -0.761864    23A     -0.704389    24A     -0.656501
      25A     -0.653759    26A     -0.643333    27A     -0.607132
      28A     -0.590534    29A     -0.579506    30A     -0.576870
      31A     -0.563355    32A     -0.555842    33A     -0.539486
      34A     -0.516449    35A     -0.516324    36A     -0.507742
      37A     -0.504917    38A     -0.478189    39A     -0.467261
      40A     -0.451775    41A     -0.413721

  @DF-RHF Final Energy:  -782.73556968975208

   => Energetics <=

    Nuclear Repulsion Energy =            640.4724440613699699
    One-Electron Energy =               -2345.9366827392250343
    Two-Electron Energy =                 922.7286689881029815
    Total Energy =                       -782.7355696897520829
  Basis Set: (AUG-CC-PVTZ AUX)
    Blend: AUG-CC-PVTZ-RI
    Molecular point group: c1

    Geometry (in Angstrom), charge = 0, multiplicity = 1:

       Center              X                  Y                   Z               Mass
    ------------   -----------------  -----------------  -----------------  -----------------
         S            0.009683116328     0.470394830228     0.001475332003    31.972071174400
         O           -0.236832883672     1.203362830228    -1.256726667997    15.994914619570
         O            0.165421916328     1.249950730228     1.246112332003    15.994914619570
         C            1.435767116328    -0.609665169772    -0.279334667997    12.000000000000
         C           -1.416442883672    -0.609643169772     0.282217332003    12.000000000000
         C            1.668458116328    -1.543224169772     0.901985332003    12.000000000000
         C            2.631090116328     0.305474830228    -0.540918667997    12.000000000000
         C           -1.649089883672    -1.543261169772    -0.899065667997    12.000000000000
         C           -2.611763883672     0.305534830228     0.543665332003    12.000000000000
         H            1.198231116328    -1.171119169772    -1.189033667997     1.007825032230
         H           -1.179002883672    -1.171059169772     1.191966332003     1.007825032230
         H            2.593761116328    -2.103756169772     0.739392332003     1.007825032230
         H            1.771311116328    -0.963564169772     1.822980332003     1.007825032230
         H            0.859354116328    -2.267254169772     1.029968332003     1.007825032230
         H            3.506206116328    -0.308070169772    -0.771922667997     1.007825032230
         H            2.846117116328     0.907957830228     0.344915332003     1.007825032230
         H            2.436050116328     0.973033830228    -1.382504667997     1.007825032230
         H           -2.574509883672    -2.103635169772    -0.736587667997     1.007825032230
         H           -1.751712883672    -0.963654169772    -1.820120667997     1.007825032230
         H           -0.840081883672    -2.267431169772    -1.026858667997     1.007825032230
         H           -3.486880883672    -0.307982169772     0.774741332003     1.007825032230
         H           -2.826769883672     0.907905830228    -0.342246667997     1.007825032230
         H           -2.416732883672     0.973195830228     1.385173332003     1.007825032230

  Basis Set: AUG-CC-PVTZ
    Blend: AUG-CC-PVTZ
  Basis Set: (AUG-CC-PVTZ AUX)
    Blend: AUG-CC-PVTZ-JKFIT
	 Reference Energy          =    -782.7355696897520829 [Eh]
	 Singles Energy            =      -0.0000000000000000 [Eh]
	 Same-Spin Energy          =      -0.4614792134140837 [Eh]
	 Opposite-Spin Energy      =      -1.4984941145863717 [Eh]
	 Correlation Energy        =      -1.9599733280004554 [Eh]
	 Total Energy              =    -784.6955430177525841 [Eh]

	 ================> DF-SCS-MP2 Energies <==================
	-----------------------------------------------------------
	 SCS Same-Spin Scale       =       0.3333333333333333 [-]
	 SCS Opposite-Spin Scale   =       1.2000000000000000 [-]
	 SCS Same-Spin Energy      =      -0.1538264044713612 [Eh]
	 SCS Opposite-Spin Energy  =      -1.7981929375036461 [Eh]
	 SCS Correlation Energy    =      -1.9520193419750074 [Eh]
	 SCS Total Energy          =    -784.6875890317270432 [Eh]
	-----------------------------------------------------------

  Dipole Moment: [D]
     X:     0.2921      Y:    -4.6212      Z:     0.0324     Total:     4.6306

*** Psi4 exiting successfully. Buy a developer a beer!
