                               Psi4 1.4a3.dev225

  ==> Input File <==

--------------------------------------------------------------------------
#psi4
#
memory 32 gb

molecule  {
0 1
  S        0.0000010    -0.5344910     0.0000050
  O        0.2465780    -1.2674340    -1.2582100
  O       -0.2465760    -1.2674230     1.2582270
  C       -1.3867014     0.5157466    -0.2730202
  C        1.4260820     0.5455700     0.2807730
  C       -1.6587340     1.4791280     0.9005660
  C       -2.6214390    -0.3695300    -0.5423140
  C        1.6587160     1.4791480    -0.9005550
  C        2.6214500    -0.3695300     0.5422790
  H       -1.1885770     1.1070300    -1.1904720
  H        1.1885950     1.1070160     1.1904860
  H       -2.5841820     2.0394700     0.7381390
  H       -1.7612990     0.8994750     1.8215980
  H       -0.8497540     2.2033300     1.0283560
  H       -3.4964690     0.2440390    -0.7735820
  H       -2.8366250    -0.9717990     0.3436230
  H       -2.4263300    -1.0372830    -1.3837320
  H        2.5841850     2.0394630    -0.7381520
  H        1.7612340     0.8995120    -1.8216040
  H        0.8497500     2.2033730    -1.0282990
  H        3.4964760     0.2440360     0.7735650
  H        2.8366350    -0.9717700    -0.3436780
  H        2.4263480    -1.0373120     1.3836770
units angstrom
no_reorient  #important for SAPT in psi4, default
symmetry c1  #important for SAPT in psi4, default
}

set PROPERTIES_ORIGIN ["COM"]
properties('MP2/aug-cc-pvtz', properties = ['dipole'])
--------------------------------------------------------------------------

    Molecular point group: c1
  Charge       = 0
  Multiplicity = 1
  Basis Set: AUG-CC-PVTZ
    Blend: AUG-CC-PVTZ
  Basis Set: (AUG-CC-PVTZ AUX)
    Blend: AUG-CC-PVTZ-JKFIT

    Orbital Energies [Eh]
    ---------------------

    Doubly Occupied:

       1A    -92.164608     2A    -20.532939     3A    -20.532855
       4A    -11.280960     5A    -11.279504     6A    -11.244155
       7A    -11.242988     8A    -11.233897     9A    -11.232921
      10A     -9.136152    11A     -6.820485    12A     -6.820034
      13A     -6.819839    14A     -1.424184    15A     -1.314252
      16A     -1.118500    17A     -1.094343    18A     -0.957556
      19A     -0.954067    20A     -0.928965    21A     -0.840470
      22A     -0.760040    23A     -0.705713    24A     -0.658106
      25A     -0.651324    26A     -0.643908    27A     -0.607265
      28A     -0.589223    29A     -0.579159    30A     -0.577910
      31A     -0.561369    32A     -0.555654    33A     -0.540975
      34A     -0.513766    35A     -0.513139    36A     -0.503696
      37A     -0.502195    38A     -0.481166    39A     -0.470419
      40A     -0.454340    41A     -0.419588

  @DF-RHF Final Energy:  -782.73424200624731

   => Energetics <=

    Nuclear Repulsion Energy =            641.6754974188321512
    One-Electron Energy =               -2348.2942244556866171
    Two-Electron Energy =                 923.8844850306072658
    Total Energy =                       -782.7342420062473138
  Basis Set: (AUG-CC-PVTZ AUX)
    Blend: AUG-CC-PVTZ-RI
    Molecular point group: c1

    Geometry (in Angstrom), charge = 0, multiplicity = 1:

       Center              X                  Y                   Z               Mass
    ------------   -----------------  -----------------  -----------------  -----------------
         S           -0.003147727206    -0.472997258844    -0.000615383067    31.972071174400
         O            0.243429272794    -1.205940258844    -1.258830383067    15.994914619570
         O           -0.249724727206    -1.205929258844     1.257606616933    15.994914619570
         C           -1.389850127206     0.577240341156    -0.273640583067    12.000000000000
         C            1.422933272794     0.607063741156     0.280152616933    12.000000000000
         C           -1.661882727206     1.540621741156     0.899945616933    12.000000000000
         C           -2.624587727206    -0.308036258844    -0.542934383067    12.000000000000
         C            1.655567272794     1.540641741156    -0.901175383067    12.000000000000
         C            2.618301272794    -0.308036258844     0.541658616933    12.000000000000
         H           -1.191725727206     1.168523741156    -1.191092383067     1.007825032230
         H            1.185446272794     1.168509741156     1.189865616933     1.007825032230
         H           -2.587330727206     2.100963741156     0.737518616933     1.007825032230
         H           -1.764447727206     0.960968741156     1.820977616933     1.007825032230
         H           -0.852902727206     2.264823741156     1.027735616933     1.007825032230
         H           -3.499617727206     0.305532741156    -0.774202383067     1.007825032230
         H           -2.839773727206    -0.910305258844     0.343002616933     1.007825032230
         H           -2.429478727206    -0.975789258844    -1.384352383067     1.007825032230
         H            2.581036272794     2.100956741156    -0.738772383067     1.007825032230
         H            1.758085272794     0.961005741156    -1.822224383067     1.007825032230
         H            0.846601272794     2.264866741156    -1.028919383067     1.007825032230
         H            3.493327272794     0.305529741156     0.772944616933     1.007825032230
         H            2.833486272794    -0.910276258844    -0.344298383067     1.007825032230
         H            2.423199272794    -0.975818258844     1.383056616933     1.007825032230

  Basis Set: AUG-CC-PVTZ
    Blend: AUG-CC-PVTZ
  Basis Set: (AUG-CC-PVTZ AUX)
    Blend: AUG-CC-PVTZ-JKFIT
	 Reference Energy          =    -782.7342420062473138 [Eh]
	 Singles Energy            =      -0.0000000000000000 [Eh]
	 Same-Spin Energy          =      -0.4615545052934754 [Eh]
	 Opposite-Spin Energy      =      -1.4986531050061154 [Eh]
	 Correlation Energy        =      -1.9602076102995907 [Eh]
	 Total Energy              =    -784.6944496165468763 [Eh]

	 ================> DF-SCS-MP2 Energies <==================
	-----------------------------------------------------------
	 SCS Same-Spin Scale       =       0.3333333333333333 [-]
	 SCS Opposite-Spin Scale   =       1.2000000000000000 [-]
	 SCS Same-Spin Energy      =      -0.1538515017644918 [Eh]
	 SCS Opposite-Spin Energy  =      -1.7983837260073383 [Eh]
	 SCS Correlation Energy    =      -1.9522352277718300 [Eh]
	 SCS Total Energy          =    -784.6864772340190939 [Eh]
	-----------------------------------------------------------

  Dipole Moment: [D]
     X:    -0.0257      Y:     4.5167      Z:    -0.0092     Total:     4.5168

*** Psi4 exiting successfully. Buy a developer a beer!
