                               Psi4 1.3.2 release

  ==> Input File <==

--------------------------------------------------------------------------
#psi4
#
memory 32 gb

molecule  {
0 1
  S       -0.0000030     0.5344770     0.0000290
  O       -0.2298270     1.2178145    -1.1729780
  O        0.2466330     1.2673540     1.2582600
  C        1.4260810    -0.5455830    -0.2807810
  C       -1.4261290    -0.5455610     0.2807710
  C        1.6587720    -1.4791420     0.9005390
  C        2.6214040     0.3695570    -0.5423650
  C       -1.6587760    -1.4791790    -0.9005120
  C       -2.6214500     0.3696170     0.5422190
  H        1.1885450    -1.1070370    -1.1904800
  H       -1.1886890    -1.1069770     1.1905200
  H        2.5840750    -2.0396740     0.7379460
  H        1.7616250    -0.8994820     1.8215340
  H        0.8496680    -2.2031720     1.0285220
  H        3.4965200    -0.2439880    -0.7733690
  H        2.8364310     0.9720400     0.3434690
  H        2.4263640     1.0371160    -1.3839510
  H       -2.5841960    -2.0395530    -0.7380340
  H       -1.7613990    -0.8995720    -1.8215670
  H       -0.8497680    -2.2033490    -1.0283050
  H       -3.4965670    -0.2439000     0.7732950
  H       -2.8364560     0.9719880    -0.3436930
  H       -2.4264190     1.0372780     1.3837270
units angstrom
no_reorient  #important for SAPT in psi4, default
symmetry c1  #important for SAPT in psi4, default
}

set PROPERTIES_ORIGIN ["COM"]
properties('MP2/aug-cc-pvtz', properties = ['dipole'])
--------------------------------------------------------------------------

    Molecular point group: c1
  Charge       = 0
  Multiplicity = 1
  Basis Set: AUG-CC-PVTZ
    Blend: AUG-CC-PVTZ
  Basis Set: (AUG-CC-PVTZ AUX)
    Blend: AUG-CC-PVTZ-JKFIT

    Orbital Energies [Eh]
    ---------------------

    Doubly Occupied:

       1A    -92.153545     2A    -20.535295     3A    -20.524833
       4A    -11.274113     5A    -11.273946     6A    -11.241478
       7A    -11.239004     8A    -11.231225     9A    -11.231126
      10A     -9.127071    11A     -6.811885    12A     -6.810984
      13A     -6.810515    14A     -1.466683    15A     -1.329289
      16A     -1.113909    17A     -1.092779    18A     -0.956000
      19A     -0.953830    20A     -0.916856    21A     -0.836478
      22A     -0.757718    23A     -0.709043    24A     -0.668322
      25A     -0.651377    26A     -0.647807    27A     -0.615276
      28A     -0.588906    29A     -0.581079    30A     -0.579295
      31A     -0.561557    32A     -0.554743    33A     -0.544764
      34A     -0.513358    35A     -0.512987    36A     -0.507519
      37A     -0.502979    38A     -0.488102    39A     -0.473918
      40A     -0.459372    41A     -0.409289

  @DF-RHF Final Energy:  -782.73471690357724

   => Energetics <=

    Nuclear Repulsion Energy =            645.8162112592827953
    One-Electron Energy =               -2356.5853431245773209
    Two-Electron Energy =                 928.0344149617174025
    Total Energy =                       -782.7347169035772367
  Basis Set: (AUG-CC-PVTZ AUX)
    Blend: AUG-CC-PVTZ-RI
    Molecular point group: c1

    Geometry (in Angstrom), charge = 0, multiplicity = 1:

       Center              X                  Y                   Z               Mass
    ------------   -----------------  -----------------  -----------------  -----------------
         S           -0.001783955244     0.480659678214    -0.009053796697    31.972071174400
         O           -0.231607955244     1.163997178214    -1.182060796697    15.994914619570
         O            0.244852044756     1.213536678214     1.249177203303    15.994914619570
         C            1.424300044756    -0.599400321786    -0.289863796697    12.000000000000
         C           -1.427909955244    -0.599378321786     0.271688203303    12.000000000000
         C            1.656991044756    -1.532959321786     0.891456203303    12.000000000000
         C            2.619623044756     0.315739678214    -0.551447796697    12.000000000000
         C           -1.660556955244    -1.532996321786    -0.909594796697    12.000000000000
         C           -2.623230955244     0.315799678214     0.533136203303    12.000000000000
         H            1.186764044756    -1.160854321786    -1.199562796697     1.007825032230
         H           -1.190469955244    -1.160794321786     1.181437203303     1.007825032230
         H            2.582294044756    -2.093491321786     0.728863203303     1.007825032230
         H            1.759844044756    -0.953299321786     1.812451203303     1.007825032230
         H            0.847887044756    -2.256989321786     1.019439203303     1.007825032230
         H            3.494739044756    -0.297805321786    -0.782451796697     1.007825032230
         H            2.834650044756     0.918222678214     0.334386203303     1.007825032230
         H            2.424583044756     0.983298678214    -1.393033796697     1.007825032230
         H           -2.585976955244    -2.093370321786    -0.747116796697     1.007825032230
         H           -1.763179955244    -0.953389321786    -1.830649796697     1.007825032230
         H           -0.851548955244    -2.257166321786    -1.037387796697     1.007825032230
         H           -3.498347955244    -0.297717321786     0.764212203303     1.007825032230
         H           -2.838236955244     0.918170678214    -0.352775796697     1.007825032230
         H           -2.428199955244     0.983460678214     1.374644203303     1.007825032230

  Basis Set: AUG-CC-PVTZ
    Blend: AUG-CC-PVTZ
  Basis Set: (AUG-CC-PVTZ AUX)
    Blend: AUG-CC-PVTZ-JKFIT
	 Reference Energy          =    -782.7347169035772367 [Eh]
	 Singles Energy            =      -0.0000000000000000 [Eh]
	 Same-Spin Energy          =      -0.4594668336808566 [Eh]
	 Opposite-Spin Energy      =      -1.4935907128882144 [Eh]
	 Correlation Energy        =      -1.9530575465690709 [Eh]
	 Total Energy              =    -784.6877744501463212 [Eh]

	 ================> DF-SCS-MP2 Energies <==================
	-----------------------------------------------------------
	 SCS Same-Spin Scale       =       0.3333333333333333 [-]
	 SCS Opposite-Spin Scale   =       1.2000000000000000 [-]
	 SCS Same-Spin Energy      =      -0.1531556112269522 [Eh]
	 SCS Opposite-Spin Energy  =      -1.7923088554658573 [Eh]
	 SCS Correlation Energy    =      -1.9454644666928094 [Eh]
	 SCS Total Energy          =    -784.6801813702700201 [Eh]
	-----------------------------------------------------------

  Dipole Moment: [D]
     X:    -0.0960      Y:    -4.1794      Z:    -0.4276     Total:     4.2023

*** Psi4 exiting successfully. Buy a developer a beer!
