                               Psi4 1.3.2 release

  ==> Input File <==

--------------------------------------------------------------------------
#psi4
#
memory 32 gb

molecule  {
0 1
  S       -0.0000030     0.5344770     0.0000290
  O       -0.2465190     1.2674450    -1.2581730
  O        0.2013070     1.2911544     1.2522258
  C        1.4260810    -0.5455830    -0.2807810
  C       -1.4261290    -0.5455610     0.2807710
  C        1.6587720    -1.4791420     0.9005390
  C        2.6214040     0.3695570    -0.5423650
  C       -1.6587760    -1.4791790    -0.9005120
  C       -2.6214500     0.3696170     0.5422190
  H        1.1885450    -1.1070370    -1.1904800
  H       -1.1886890    -1.1069770     1.1905200
  H        2.5840750    -2.0396740     0.7379460
  H        1.7616250    -0.8994820     1.8215340
  H        0.8496680    -2.2031720     1.0285220
  H        3.4965200    -0.2439880    -0.7733690
  H        2.8364310     0.9720400     0.3434690
  H        2.4263640     1.0371160    -1.3839510
  H       -2.5841960    -2.0395530    -0.7380340
  H       -1.7613990    -0.8995720    -1.8215670
  H       -0.8497680    -2.2033490    -1.0283050
  H       -3.4965670    -0.2439000     0.7732950
  H       -2.8364560     0.9719880    -0.3436930
  H       -2.4264190     1.0372780     1.3837270
units angstrom
no_reorient  #important for SAPT in psi4, default
symmetry c1  #important for SAPT in psi4, default
}

set PROPERTIES_ORIGIN ["COM"]
properties('MP2/aug-cc-pvtz', properties = ['dipole'])
--------------------------------------------------------------------------

    Molecular point group: c1
  Charge       = 0
  Multiplicity = 1
  Basis Set: AUG-CC-PVTZ
    Blend: AUG-CC-PVTZ
  Basis Set: (AUG-CC-PVTZ AUX)
    Blend: AUG-CC-PVTZ-JKFIT

    Orbital Energies [Eh]
    ---------------------

    Doubly Occupied:

       1A    -92.162466     2A    -20.532341     3A    -20.530993
       4A    -11.282866     5A    -11.279464     6A    -11.244507
       7A    -11.242289     8A    -11.234044     9A    -11.231349
      10A     -9.133848    11A     -6.818060    12A     -6.817633
      13A     -6.817545    14A     -1.421776    15A     -1.311788
      16A     -1.118471    17A     -1.095936    18A     -0.958840
      19A     -0.955788    20A     -0.924120    21A     -0.838232
      22A     -0.761670    23A     -0.704206    24A     -0.656958
      25A     -0.653189    26A     -0.643734    27A     -0.607642
      28A     -0.589919    29A     -0.579173    30A     -0.577087
      31A     -0.562733    32A     -0.555811    33A     -0.539692
      34A     -0.515777    35A     -0.515544    36A     -0.508061
      37A     -0.505000    38A     -0.479680    39A     -0.467241
      40A     -0.453239    41A     -0.413574

  @DF-RHF Final Energy:  -782.73616433459745

   => Energetics <=

    Nuclear Repulsion Energy =            640.5746889159668171
    One-Electron Energy =               -2346.1371324842721151
    Two-Electron Energy =                 922.8262792337078508
    Total Energy =                       -782.7361643345974471
  Basis Set: (AUG-CC-PVTZ AUX)
    Blend: AUG-CC-PVTZ-RI
    Molecular point group: c1

    Geometry (in Angstrom), charge = 0, multiplicity = 1:

       Center              X                  Y                   Z               Mass
    ------------   -----------------  -----------------  -----------------  -----------------
         S            0.004826046919     0.472833266400     0.000669593438    31.972071174400
         O           -0.241689953081     1.205801266400    -1.257532406562    15.994914619570
         O            0.206136046919     1.229510666400     1.252866393438    15.994914619570
         C            1.430910046919    -0.607226733600    -0.280140406562    12.000000000000
         C           -1.421299953081    -0.607204733600     0.281411593438    12.000000000000
         C            1.663601046919    -1.540785733600     0.901179593438    12.000000000000
         C            2.626233046919     0.307913266400    -0.541724406562    12.000000000000
         C           -1.653946953081    -1.540822733600    -0.899871406562    12.000000000000
         C           -2.616620953081     0.307973266400     0.542859593438    12.000000000000
         H            1.193374046919    -1.168680733600    -1.189839406562     1.007825032230
         H           -1.183859953081    -1.168620733600     1.191160593438     1.007825032230
         H            2.588904046919    -2.101317733600     0.738586593438     1.007825032230
         H            1.766454046919    -0.961125733600     1.822174593438     1.007825032230
         H            0.854497046919    -2.264815733600     1.029162593438     1.007825032230
         H            3.501349046919    -0.305631733600    -0.772728406562     1.007825032230
         H            2.841260046919     0.910396266400     0.344109593438     1.007825032230
         H            2.431193046919     0.975472266400    -1.383310406562     1.007825032230
         H           -2.579366953081    -2.101196733600    -0.737393406562     1.007825032230
         H           -1.756569953081    -0.961215733600    -1.820926406562     1.007825032230
         H           -0.844938953081    -2.264992733600    -1.027664406562     1.007825032230
         H           -3.491737953081    -0.305543733600     0.773935593438     1.007825032230
         H           -2.831626953081     0.910344266400    -0.343052406562     1.007825032230
         H           -2.421589953081     0.975634266400     1.384367593438     1.007825032230

  Basis Set: AUG-CC-PVTZ
    Blend: AUG-CC-PVTZ
  Basis Set: (AUG-CC-PVTZ AUX)
    Blend: AUG-CC-PVTZ-JKFIT
	 Reference Energy          =    -782.7361643345974471 [Eh]
	 Singles Energy            =      -0.0000000000000000 [Eh]
	 Same-Spin Energy          =      -0.4615136122308534 [Eh]
	 Opposite-Spin Energy      =      -1.4985703825141989 [Eh]
	 Correlation Energy        =      -1.9600839947450523 [Eh]
	 Total Energy              =    -784.6962483293425521 [Eh]

	 ================> DF-SCS-MP2 Energies <==================
	-----------------------------------------------------------
	 SCS Same-Spin Scale       =       0.3333333333333333 [-]
	 SCS Opposite-Spin Scale   =       1.2000000000000000 [-]
	 SCS Same-Spin Energy      =      -0.1538378707436178 [Eh]
	 SCS Opposite-Spin Energy  =      -1.7982844590170386 [Eh]
	 SCS Correlation Energy    =      -1.9521223297606562 [Eh]
	 SCS Total Energy          =    -784.6882866643580883 [Eh]
	-----------------------------------------------------------

  Dipole Moment: [D]
     X:     0.1462      Y:    -4.5639      Z:     0.0144     Total:     4.5663

*** Psi4 exiting successfully. Buy a developer a beer!
