                               Psi4 1.3.2 release

  ==> Input File <==

--------------------------------------------------------------------------
#psi4
#
memory 32 gb

molecule  {
0 1
  S       -0.0000030     0.5344770     0.0000290
  O       -0.2557581     1.1762231    -1.3052816
  O        0.2466330     1.2673540     1.2582600
  C        1.4260810    -0.5455830    -0.2807810
  C       -1.4261290    -0.5455610     0.2807710
  C        1.6587720    -1.4791420     0.9005390
  C        2.6214040     0.3695570    -0.5423650
  C       -1.6587760    -1.4791790    -0.9005120
  C       -2.6214500     0.3696170     0.5422190
  H        1.1885450    -1.1070370    -1.1904800
  H       -1.1886890    -1.1069770     1.1905200
  H        2.5840750    -2.0396740     0.7379460
  H        1.7616250    -0.8994820     1.8215340
  H        0.8496680    -2.2031720     1.0285220
  H        3.4965200    -0.2439880    -0.7733690
  H        2.8364310     0.9720400     0.3434690
  H        2.4263640     1.0371160    -1.3839510
  H       -2.5841960    -2.0395530    -0.7380340
  H       -1.7613990    -0.8995720    -1.8215670
  H       -0.8497680    -2.2033490    -1.0283050
  H       -3.4965670    -0.2439000     0.7732950
  H       -2.8364560     0.9719880    -0.3436930
  H       -2.4264190     1.0372780     1.3837270
units angstrom
no_reorient  #important for SAPT in psi4, default
symmetry c1  #important for SAPT in psi4, default
}

set PROPERTIES_ORIGIN ["COM"]
properties('MP2/aug-cc-pvtz', properties = ['dipole'])
--------------------------------------------------------------------------

    Molecular point group: c1
  Charge       = 0
  Multiplicity = 1
  Basis Set: AUG-CC-PVTZ
    Blend: AUG-CC-PVTZ
  Basis Set: (AUG-CC-PVTZ AUX)
    Blend: AUG-CC-PVTZ-JKFIT

    Orbital Energies [Eh]
    ---------------------

    Doubly Occupied:

       1A    -92.163741     2A    -20.538553     3A    -20.533493
       4A    -11.278566     5A    -11.278544     6A    -11.241607
       7A    -11.240727     8A    -11.232271     9A    -11.232192
      10A     -9.134954    11A     -6.819146    12A     -6.818866
      13A     -6.818581    14A     -1.423621    15A     -1.319130
      16A     -1.115266    17A     -1.094418    18A     -0.957136
      19A     -0.954910    20A     -0.921903    21A     -0.837089
      22A     -0.761637    23A     -0.703663    24A     -0.657774
      25A     -0.651855    26A     -0.644326    27A     -0.609920
      28A     -0.588561    29A     -0.578180    30A     -0.577164
      31A     -0.561355    32A     -0.553710    33A     -0.539935
      34A     -0.514420    35A     -0.513961    36A     -0.507322
      37A     -0.503411    38A     -0.485390    39A     -0.466801
      40A     -0.458690    41A     -0.411787

  @DF-RHF Final Energy:  -782.73379086772388

   => Energetics <=

    Nuclear Repulsion Energy =            641.1818049466636467
    One-Electron Energy =               -2347.3420388865338282
    Two-Electron Energy =                 923.4264430721461849
    Total Energy =                       -782.7337908677238829
  Basis Set: (AUG-CC-PVTZ AUX)
    Blend: AUG-CC-PVTZ-RI
    Molecular point group: c1

    Geometry (in Angstrom), charge = 0, multiplicity = 1:

       Center              X                  Y                   Z               Mass
    ------------   -----------------  -----------------  -----------------  -----------------
         S            0.000979833125     0.485092572599     0.005047384932    31.972071174400
         O           -0.254775266875     1.126838672599    -1.300263215068    15.994914619570
         O            0.247615833125     1.217969572599     1.263278384932    15.994914619570
         C            1.427063833125    -0.594967427401    -0.275762615068    12.000000000000
         C           -1.425146166875    -0.594945427401     0.285789384932    12.000000000000
         C            1.659754833125    -1.528526427401     0.905557384932    12.000000000000
         C            2.622386833125     0.320172572599    -0.537346615068    12.000000000000
         C           -1.657793166875    -1.528563427401    -0.895493615068    12.000000000000
         C           -2.620467166875     0.320232572599     0.547237384932    12.000000000000
         H            1.189527833125    -1.156421427401    -1.185461615068     1.007825032230
         H           -1.187706166875    -1.156361427401     1.195538384932     1.007825032230
         H            2.585057833125    -2.089058427401     0.742964384932     1.007825032230
         H            1.762607833125    -0.948866427401     1.826552384932     1.007825032230
         H            0.850650833125    -2.252556427401     1.033540384932     1.007825032230
         H            3.497502833125    -0.293372427401    -0.768350615068     1.007825032230
         H            2.837413833125     0.922655572599     0.348487384932     1.007825032230
         H            2.427346833125     0.987731572599    -1.378932615068     1.007825032230
         H           -2.583213166875    -2.088937427401    -0.733015615068     1.007825032230
         H           -1.760416166875    -0.948956427401    -1.816548615068     1.007825032230
         H           -0.848785166875    -2.252733427401    -1.023286615068     1.007825032230
         H           -3.495584166875    -0.293284427401     0.778313384932     1.007825032230
         H           -2.835473166875     0.922603572599    -0.338674615068     1.007825032230
         H           -2.425436166875     0.987893572599     1.388745384932     1.007825032230

  Basis Set: AUG-CC-PVTZ
    Blend: AUG-CC-PVTZ
  Basis Set: (AUG-CC-PVTZ AUX)
    Blend: AUG-CC-PVTZ-JKFIT
	 Reference Energy          =    -782.7337908677238829 [Eh]
	 Singles Energy            =      -0.0000000000000000 [Eh]
	 Same-Spin Energy          =      -0.4619122269011274 [Eh]
	 Opposite-Spin Energy      =      -1.4994122512361818 [Eh]
	 Correlation Energy        =      -1.9613244781373091 [Eh]
	 Total Energy              =    -784.6951153458611543 [Eh]

	 ================> DF-SCS-MP2 Energies <==================
	-----------------------------------------------------------
	 SCS Same-Spin Scale       =       0.3333333333333333 [-]
	 SCS Opposite-Spin Scale   =       1.2000000000000000 [-]
	 SCS Same-Spin Energy      =      -0.1539707423003758 [Eh]
	 SCS Opposite-Spin Energy  =      -1.7992947014834182 [Eh]
	 SCS Correlation Energy    =      -1.9532654437837940 [Eh]
	 SCS Total Energy          =    -784.6870563115077175 [Eh]
	-----------------------------------------------------------

  Dipole Moment: [D]
     X:     0.0266      Y:    -4.2681      Z:     0.1009     Total:     4.2694

*** Psi4 exiting successfully. Buy a developer a beer!
