                               Psi4 1.3.2 release

  ==> Input File <==

--------------------------------------------------------------------------
#psi4
#
memory 32 gb

molecule  {
0 1
  S       -0.0000030     0.5344770     0.0000290
  O       -0.2465190     1.2674450    -1.2581730
  O        0.2466330     1.2673540     1.2582600
  C        1.5835873    -0.6648721    -0.3117955
  C       -1.4261290    -0.5455610     0.2807710
  C        1.6587720    -1.4791420     0.9005390
  C        2.6214040     0.3695570    -0.5423650
  C       -1.6587760    -1.4791790    -0.9005120
  C       -2.6214500     0.3696170     0.5422190
  H        1.1885450    -1.1070370    -1.1904800
  H       -1.1886890    -1.1069770     1.1905200
  H        2.5840750    -2.0396740     0.7379460
  H        1.7616250    -0.8994820     1.8215340
  H        0.8496680    -2.2031720     1.0285220
  H        3.4965200    -0.2439880    -0.7733690
  H        2.8364310     0.9720400     0.3434690
  H        2.4263640     1.0371160    -1.3839510
  H       -2.5841960    -2.0395530    -0.7380340
  H       -1.7613990    -0.8995720    -1.8215670
  H       -0.8497680    -2.2033490    -1.0283050
  H       -3.4965670    -0.2439000     0.7732950
  H       -2.8364560     0.9719880    -0.3436930
  H       -2.4264190     1.0372780     1.3837270
units angstrom
no_reorient  #important for SAPT in psi4, default
symmetry c1  #important for SAPT in psi4, default
}

set PROPERTIES_ORIGIN ["COM"]
properties('MP2/aug-cc-pvtz', properties = ['dipole'])
--------------------------------------------------------------------------

    Molecular point group: c1
  Charge       = 0
  Multiplicity = 1
  Basis Set: AUG-CC-PVTZ
    Blend: AUG-CC-PVTZ
  Basis Set: (AUG-CC-PVTZ AUX)
    Blend: AUG-CC-PVTZ-JKFIT

    Orbital Energies [Eh]
    ---------------------

    Doubly Occupied:

       1A    -92.146835     2A    -20.528180     3A    -20.527650
       4A    -11.292184     5A    -11.276015     6A    -11.244001
       7A    -11.241343     8A    -11.233737     9A    -11.229167
      10A     -9.118991    11A     -6.802818    12A     -6.802485
      13A     -6.802319    14A     -1.412254    15A     -1.306966
      16A     -1.120863    17A     -1.099205    18A     -0.971274
      19A     -0.954362    20A     -0.906360    21A     -0.831121
      22A     -0.763709    23A     -0.694993    24A     -0.665693
      25A     -0.653189    26A     -0.640865    27A     -0.607447
      28A     -0.595528    29A     -0.580184    30A     -0.572390
      31A     -0.568793    32A     -0.554723    33A     -0.538613
      34A     -0.531472    35A     -0.525732    36A     -0.508151
      37A     -0.505354    38A     -0.475957    39A     -0.455042
      40A     -0.451010    41A     -0.375220

  @DF-RHF Final Energy:  -782.70993653298808

   => Energetics <=

    Nuclear Repulsion Energy =            637.0607100922692325
    One-Electron Energy =               -2339.3169019396282238
    Two-Electron Energy =                 919.5462553143707964
    Total Energy =                       -782.7099365329880811
  Basis Set: (AUG-CC-PVTZ AUX)
    Blend: AUG-CC-PVTZ-RI
    Molecular point group: c1

    Geometry (in Angstrom), charge = 0, multiplicity = 1:

       Center              X                  Y                   Z               Mass
    ------------   -----------------  -----------------  -----------------  -----------------
         S           -0.012599393329     0.484908544912     0.002506435053    31.972071174400
         O           -0.259115393329     1.217876544912    -1.255695564947    15.994914619570
         O            0.234036606671     1.217785544912     1.260737435053    15.994914619570
         C            1.570990906671    -0.714440555088    -0.309318064947    12.000000000000
         C           -1.438725393329    -0.595129455088     0.283248435053    12.000000000000
         C            1.646175606671    -1.528710455088     0.903016435053    12.000000000000
         C            2.608807606671     0.319988544912    -0.539887564947    12.000000000000
         C           -1.671372393329    -1.528747455088    -0.898034564947    12.000000000000
         C           -2.634046393329     0.320048544912     0.544696435053    12.000000000000
         H            1.175948606671    -1.156605455088    -1.188002564947     1.007825032230
         H           -1.201285393329    -1.156545455088     1.192997435053     1.007825032230
         H            2.571478606671    -2.089242455088     0.740423435053     1.007825032230
         H            1.749028606671    -0.949050455088     1.824011435053     1.007825032230
         H            0.837071606671    -2.252740455088     1.030999435053     1.007825032230
         H            3.483923606671    -0.293556455088    -0.770891564947     1.007825032230
         H            2.823834606671     0.922471544912     0.345946435053     1.007825032230
         H            2.413767606671     0.987547544912    -1.381473564947     1.007825032230
         H           -2.596792393329    -2.089121455088    -0.735556564947     1.007825032230
         H           -1.773995393329    -0.949140455088    -1.819089564947     1.007825032230
         H           -0.862364393329    -2.252917455088    -1.025827564947     1.007825032230
         H           -3.509163393329    -0.293468455088     0.775772435053     1.007825032230
         H           -2.849052393329     0.922419544912    -0.341215564947     1.007825032230
         H           -2.439015393329     0.987709544912     1.386204435053     1.007825032230

  Basis Set: AUG-CC-PVTZ
    Blend: AUG-CC-PVTZ
  Basis Set: (AUG-CC-PVTZ AUX)
    Blend: AUG-CC-PVTZ-JKFIT
	 Reference Energy          =    -782.7099365329880811 [Eh]
	 Singles Energy            =      -0.0000000000000000 [Eh]
	 Same-Spin Energy          =      -0.4633782121889266 [Eh]
	 Opposite-Spin Energy      =      -1.5017391552366646 [Eh]
	 Correlation Energy        =      -1.9651173674255911 [Eh]
	 Total Energy              =    -784.6750539004136726 [Eh]

	 ================> DF-SCS-MP2 Energies <==================
	-----------------------------------------------------------
	 SCS Same-Spin Scale       =       0.3333333333333333 [-]
	 SCS Opposite-Spin Scale   =       1.2000000000000000 [-]
	 SCS Same-Spin Energy      =      -0.1544594040629755 [Eh]
	 SCS Opposite-Spin Energy  =      -1.8020869862839974 [Eh]
	 SCS Correlation Energy    =      -1.9565463903469729 [Eh]
	 SCS Total Energy          =    -784.6664829233350247 [Eh]
	-----------------------------------------------------------

  Dipole Moment: [D]
     X:     0.0874      Y:    -4.5217      Z:     0.0352     Total:     4.5227

*** Psi4 exiting successfully. Buy a developer a beer!
