                               Psi4 1.3.2 release

  ==> Input File <==

--------------------------------------------------------------------------
#psi4
#
memory 32 gb

molecule  {
0 1
  S       -0.0000030     0.5344770     0.0000290
  O       -0.2489432     1.2449572    -1.2705343
  O        0.2466330     1.2673540     1.2582600
  C        1.4260810    -0.5455830    -0.2807810
  C       -1.4261290    -0.5455610     0.2807710
  C        1.6587720    -1.4791420     0.9005390
  C        2.6214040     0.3695570    -0.5423650
  C       -1.6587760    -1.4791790    -0.9005120
  C       -2.6214500     0.3696170     0.5422190
  H        1.1885450    -1.1070370    -1.1904800
  H       -1.1886890    -1.1069770     1.1905200
  H        2.5840750    -2.0396740     0.7379460
  H        1.7616250    -0.8994820     1.8215340
  H        0.8496680    -2.2031720     1.0285220
  H        3.4965200    -0.2439880    -0.7733690
  H        2.8364310     0.9720400     0.3434690
  H        2.4263640     1.0371160    -1.3839510
  H       -2.5841960    -2.0395530    -0.7380340
  H       -1.7613990    -0.8995720    -1.8215670
  H       -0.8497680    -2.2033490    -1.0283050
  H       -3.4965670    -0.2439000     0.7732950
  H       -2.8364560     0.9719880    -0.3436930
  H       -2.4264190     1.0372780     1.3837270
units angstrom
no_reorient  #important for SAPT in psi4, default
symmetry c1  #important for SAPT in psi4, default
}

set PROPERTIES_ORIGIN ["COM"]
properties('MP2/aug-cc-pvtz', properties = ['dipole'])
--------------------------------------------------------------------------

    Molecular point group: c1
  Charge       = 0
  Multiplicity = 1
  Basis Set: AUG-CC-PVTZ
    Blend: AUG-CC-PVTZ
  Basis Set: (AUG-CC-PVTZ AUX)
    Blend: AUG-CC-PVTZ-JKFIT

    Orbital Energies [Eh]
    ---------------------

    Doubly Occupied:

       1A    -92.163035     2A    -20.534151     3A    -20.532884
       4A    -11.280107     5A    -11.280091     6A    -11.242640
       7A    -11.242429     8A    -11.232534     9A    -11.232519
      10A     -9.134332    11A     -6.818541    12A     -6.818169
      13A     -6.818001    14A     -1.422508    15A     -1.314906
      16A     -1.117112    17A     -1.095367    18A     -0.957802
      19A     -0.955825    20A     -0.923244    21A     -0.837796
      22A     -0.761514    23A     -0.703911    24A     -0.657550
      25A     -0.652526    26A     -0.644037    27A     -0.608613
      28A     -0.589188    29A     -0.578755    30A     -0.577181
      31A     -0.562130    32A     -0.555020    33A     -0.539827
      34A     -0.515086    35A     -0.514810    36A     -0.507838
      37A     -0.504449    38A     -0.482175    39A     -0.467105
      40A     -0.455753    41A     -0.412921

  @DF-RHF Final Energy:  -782.73578558775671

   => Energetics <=

    Nuclear Repulsion Energy =            640.8182078990645323
    One-Electron Energy =               -2346.6192248573847792
    Two-Electron Energy =                 923.0652313705636516
    Total Energy =                       -782.7357855877567090
  Basis Set: (AUG-CC-PVTZ AUX)
    Blend: AUG-CC-PVTZ-RI
    Molecular point group: c1

    Geometry (in Angstrom), charge = 0, multiplicity = 1:

       Center              X                  Y                   Z               Mass
    ------------   -----------------  -----------------  -----------------  -----------------
         S            0.000253487488     0.477766755099     0.001343948378    31.972071174400
         O           -0.248686712512     1.188246955099    -1.269219351622    15.994914619570
         O            0.246889487488     1.210643755099     1.259574948378    15.994914619570
         C            1.426337487488    -0.602293244901    -0.279466051622    12.000000000000
         C           -1.425872512512    -0.602271244901     0.282085948378    12.000000000000
         C            1.659028487488    -1.535852244901     0.901853948378    12.000000000000
         C            2.621660487488     0.312846755099    -0.541050051622    12.000000000000
         C           -1.658519512512    -1.535889244901    -0.899197051622    12.000000000000
         C           -2.621193512512     0.312906755099     0.543533948378    12.000000000000
         H            1.188801487488    -1.163747244901    -1.189165051622     1.007825032230
         H           -1.188432512512    -1.163687244901     1.191834948378     1.007825032230
         H            2.584331487488    -2.096384244901     0.739260948378     1.007825032230
         H            1.761881487488    -0.956192244901     1.822848948378     1.007825032230
         H            0.849924487488    -2.259882244901     1.029836948378     1.007825032230
         H            3.496776487488    -0.300698244901    -0.772054051622     1.007825032230
         H            2.836687487488     0.915329755099     0.344783948378     1.007825032230
         H            2.426620487488     0.980405755099    -1.382636051622     1.007825032230
         H           -2.583939512512    -2.096263244901    -0.736719051622     1.007825032230
         H           -1.761142512512    -0.956282244901    -1.820252051622     1.007825032230
         H           -0.849511512512    -2.260059244901    -1.026990051622     1.007825032230
         H           -3.496310512512    -0.300610244901     0.774609948378     1.007825032230
         H           -2.836199512512     0.915277755099    -0.342378051622     1.007825032230
         H           -2.426162512512     0.980567755099     1.385041948378     1.007825032230

  Basis Set: AUG-CC-PVTZ
    Blend: AUG-CC-PVTZ
  Basis Set: (AUG-CC-PVTZ AUX)
    Blend: AUG-CC-PVTZ-JKFIT
	 Reference Energy          =    -782.7357855877567090 [Eh]
	 Singles Energy            =      -0.0000000000000000 [Eh]
	 Same-Spin Energy          =      -0.4616540998117624 [Eh]
	 Opposite-Spin Energy      =      -1.4988629508556623 [Eh]
	 Correlation Energy        =      -1.9605170506674248 [Eh]
	 Total Energy              =    -784.6963026384241857 [Eh]

	 ================> DF-SCS-MP2 Energies <==================
	-----------------------------------------------------------
	 SCS Same-Spin Scale       =       0.3333333333333333 [-]
	 SCS Opposite-Spin Scale   =       1.2000000000000000 [-]
	 SCS Same-Spin Energy      =      -0.1538846999372541 [Eh]
	 SCS Opposite-Spin Energy  =      -1.7986355410267947 [Eh]
	 SCS Correlation Energy    =      -1.9525202409640487 [Eh]
	 SCS Total Energy          =    -784.6883058287207859 [Eh]
	-----------------------------------------------------------

  Dipole Moment: [D]
     X:     0.0065      Y:    -4.4453      Z:     0.0264     Total:     4.4454

*** Psi4 exiting successfully. Buy a developer a beer!
