                               Psi4 1.3.2 release

  ==> Input File <==

--------------------------------------------------------------------------
#psi4
#
memory 32 gb

molecule  {
0 1
  S       -0.0000030     0.5344770     0.0000290
  O       -0.2465190     1.2674450    -1.2581730
  O        0.1099748     1.3359616     1.2355899
  C        1.4260810    -0.5455830    -0.2807810
  C       -1.4261290    -0.5455610     0.2807710
  C        1.6587720    -1.4791420     0.9005390
  C        2.6214040     0.3695570    -0.5423650
  C       -1.6587760    -1.4791790    -0.9005120
  C       -2.6214500     0.3696170     0.5422190
  H        1.1885450    -1.1070370    -1.1904800
  H       -1.1886890    -1.1069770     1.1905200
  H        2.5840750    -2.0396740     0.7379460
  H        1.7616250    -0.8994820     1.8215340
  H        0.8496680    -2.2031720     1.0285220
  H        3.4965200    -0.2439880    -0.7733690
  H        2.8364310     0.9720400     0.3434690
  H        2.4263640     1.0371160    -1.3839510
  H       -2.5841960    -2.0395530    -0.7380340
  H       -1.7613990    -0.8995720    -1.8215670
  H       -0.8497680    -2.2033490    -1.0283050
  H       -3.4965670    -0.2439000     0.7732950
  H       -2.8364560     0.9719880    -0.3436930
  H       -2.4264190     1.0372780     1.3837270
units angstrom
no_reorient  #important for SAPT in psi4, default
symmetry c1  #important for SAPT in psi4, default
}

set PROPERTIES_ORIGIN ["COM"]
properties('MP2/aug-cc-pvtz', properties = ['dipole'])
--------------------------------------------------------------------------

    Molecular point group: c1
  Charge       = 0
  Multiplicity = 1
  Basis Set: AUG-CC-PVTZ
    Blend: AUG-CC-PVTZ
  Basis Set: (AUG-CC-PVTZ AUX)
    Blend: AUG-CC-PVTZ-JKFIT

    Orbital Energies [Eh]
    ---------------------

    Doubly Occupied:

       1A    -92.161748     2A    -20.531506     3A    -20.527633
       4A    -11.287267     5A    -11.277188     6A    -11.247440
       7A    -11.240872     8A    -11.236759     9A    -11.228695
      10A     -9.133271    11A     -6.817489    12A     -6.817019
      13A     -6.816958    14A     -1.421138    15A     -1.308351
      16A     -1.120411    17A     -1.095776    18A     -0.961425
      19A     -0.954024    20A     -0.925065    21A     -0.838510
      22A     -0.762061    23A     -0.704537    24A     -0.656112
      25A     -0.654408    26A     -0.642785    27A     -0.606613
      28A     -0.591221    29A     -0.579872    30A     -0.576585
      31A     -0.564205    32A     -0.555588    33A     -0.539183
      34A     -0.517406    35A     -0.517153    36A     -0.507161
      37A     -0.504610    38A     -0.476571    39A     -0.467256
      40A     -0.450204    41A     -0.413727

  @DF-RHF Final Energy:  -782.73436895055636

   => Energetics <=

    Nuclear Repulsion Energy =            640.4003749647853283
    One-Electron Energy =               -2345.7978775779815805
    Two-Electron Energy =                 922.6631336626397797
    Total Energy =                       -782.7343689505563589
  Basis Set: (AUG-CC-PVTZ AUX)
    Blend: AUG-CC-PVTZ-RI
    Molecular point group: c1

    Geometry (in Angstrom), charge = 0, multiplicity = 1:

       Center              X                  Y                   Z               Mass
    ------------   -----------------  -----------------  -----------------  -----------------
         S            0.014560414999     0.468057625636     0.002442680848    31.972071174400
         O           -0.231955585001     1.201025625636    -1.255759319152    15.994914619570
         O            0.124538214999     1.269542225636     1.238003580848    15.994914619570
         C            1.440644414999    -0.612002374364    -0.278367319152    12.000000000000
         C           -1.411565585001    -0.611980374364     0.283184680848    12.000000000000
         C            1.673335414999    -1.545561374364     0.902952680848    12.000000000000
         C            2.635967414999     0.303137625636    -0.539951319152    12.000000000000
         C           -1.644212585001    -1.545598374364    -0.898098319152    12.000000000000
         C           -2.606886585001     0.303197625636     0.544632680848    12.000000000000
         H            1.203108414999    -1.173456374364    -1.188066319152     1.007825032230
         H           -1.174125585001    -1.173396374364     1.192933680848     1.007825032230
         H            2.598638414999    -2.106093374364     0.740359680848     1.007825032230
         H            1.776188414999    -0.965901374364     1.823947680848     1.007825032230
         H            0.864231414999    -2.269591374364     1.030935680848     1.007825032230
         H            3.511083414999    -0.310407374364    -0.770955319152     1.007825032230
         H            2.850994414999     0.905620625636     0.345882680848     1.007825032230
         H            2.440927414999     0.970696625636    -1.381537319152     1.007825032230
         H           -2.569632585001    -2.105972374364    -0.735620319152     1.007825032230
         H           -1.746835585001    -0.965991374364    -1.819153319152     1.007825032230
         H           -0.835204585001    -2.269768374364    -1.025891319152     1.007825032230
         H           -3.482003585001    -0.310319374364     0.775708680848     1.007825032230
         H           -2.821892585001     0.905568625636    -0.341279319152     1.007825032230
         H           -2.411855585001     0.970858625636     1.386140680848     1.007825032230

  Basis Set: AUG-CC-PVTZ
    Blend: AUG-CC-PVTZ
  Basis Set: (AUG-CC-PVTZ AUX)
    Blend: AUG-CC-PVTZ-JKFIT
	 Reference Energy          =    -782.7343689505563589 [Eh]
	 Singles Energy            =      -0.0000000000000000 [Eh]
	 Same-Spin Energy          =      -0.4614799954509877 [Eh]
	 Opposite-Spin Energy      =      -1.4984824568538226 [Eh]
	 Correlation Energy        =      -1.9599624523048103 [Eh]
	 Total Energy              =    -784.6943314028611667 [Eh]

	 ================> DF-SCS-MP2 Energies <==================
	-----------------------------------------------------------
	 SCS Same-Spin Scale       =       0.3333333333333333 [-]
	 SCS Opposite-Spin Scale   =       1.2000000000000000 [-]
	 SCS Same-Spin Energy      =      -0.1538266651503292 [Eh]
	 SCS Opposite-Spin Energy  =      -1.7981789482245871 [Eh]
	 SCS Correlation Energy    =      -1.9520056133749164 [Eh]
	 SCS Total Energy          =    -784.6863745639312810 [Eh]
	-----------------------------------------------------------

  Dipole Moment: [D]
     X:     0.4373      Y:    -4.6750      Z:     0.0539     Total:     4.6957

*** Psi4 exiting successfully. Buy a developer a beer!
