                               Psi4 1.3.2 release

  ==> Input File <==

--------------------------------------------------------------------------
#psi4
#
memory 32 gb

molecule  {
0 1
  S        0.0376290     0.5845365    -0.0085123
  O       -0.2465190     1.2674450    -1.2581730
  O        0.2466330     1.2673540     1.2582600
  C        1.4260810    -0.5455830    -0.2807810
  C       -1.4261290    -0.5455610     0.2807710
  C        1.6587720    -1.4791420     0.9005390
  C        2.6214040     0.3695570    -0.5423650
  C       -1.6587760    -1.4791790    -0.9005120
  C       -2.6214500     0.3696170     0.5422190
  H        1.1885450    -1.1070370    -1.1904800
  H       -1.1886890    -1.1069770     1.1905200
  H        2.5840750    -2.0396740     0.7379460
  H        1.7616250    -0.8994820     1.8215340
  H        0.8496680    -2.2031720     1.0285220
  H        3.4965200    -0.2439880    -0.7733690
  H        2.8364310     0.9720400     0.3434690
  H        2.4263640     1.0371160    -1.3839510
  H       -2.5841960    -2.0395530    -0.7380340
  H       -1.7613990    -0.8995720    -1.8215670
  H       -0.8497680    -2.2033490    -1.0283050
  H       -3.4965670    -0.2439000     0.7732950
  H       -2.8364560     0.9719880    -0.3436930
  H       -2.4264190     1.0372780     1.3837270
units angstrom
no_reorient  #important for SAPT in psi4, default
symmetry c1  #important for SAPT in psi4, default
}

set PROPERTIES_ORIGIN ["COM"]
properties('MP2/aug-cc-pvtz', properties = ['dipole'])
--------------------------------------------------------------------------

    Molecular point group: c1
  Charge       = 0
  Multiplicity = 1
  Basis Set: AUG-CC-PVTZ
    Blend: AUG-CC-PVTZ
  Basis Set: (AUG-CC-PVTZ AUX)
    Blend: AUG-CC-PVTZ-JKFIT

    Orbital Energies [Eh]
    ---------------------

    Doubly Occupied:

       1A    -92.162067     2A    -20.538070     3A    -20.537612
       4A    -11.279545     5A    -11.274999     6A    -11.242924
       7A    -11.238048     8A    -11.233464     9A    -11.227945
      10A     -9.133226    11A     -6.817472    12A     -6.817208
      13A     -6.817008    14A     -1.438429    15A     -1.331882
      16A     -1.112817    17A     -1.088934    18A     -0.958034
      19A     -0.951643    20A     -0.915003    21A     -0.830668
      22A     -0.762069    23A     -0.703000    24A     -0.662130
      25A     -0.650958    26A     -0.644154    27A     -0.613555
      28A     -0.588169    29A     -0.578979    30A     -0.578362
      31A     -0.561655    32A     -0.553878    33A     -0.541293
      34A     -0.513941    35A     -0.513800    36A     -0.505920
      37A     -0.501760    38A     -0.490992    39A     -0.470374
      40A     -0.465382    41A     -0.403470

  @DF-RHF Final Energy:  -782.73493817266296

   => Energetics <=

    Nuclear Repulsion Energy =            640.5043334762536915
    One-Electron Energy =               -2345.9768661085363419
    Two-Electron Energy =                 922.7375944596197996
    Total Energy =                       -782.7349381726629645
  Basis Set: (AUG-CC-PVTZ AUX)
    Blend: AUG-CC-PVTZ-RI
    Molecular point group: c1

    Geometry (in Angstrom), charge = 0, multiplicity = 1:

       Center              X                  Y                   Z               Mass
    ------------   -----------------  -----------------  -----------------  -----------------
         S            0.029609777169     0.514764501337    -0.006695156747    31.972071174400
         O           -0.254538222831     1.197673001337    -1.256355856747    15.994914619570
         O            0.238613777169     1.197582001337     1.260077143253    15.994914619570
         C            1.418061777169    -0.615354998663    -0.278963856747    12.000000000000
         C           -1.434148222831    -0.615332998663     0.282588143253    12.000000000000
         C            1.650752777169    -1.548913998663     0.902356143253    12.000000000000
         C            2.613384777169     0.299785001337    -0.540547856747    12.000000000000
         C           -1.666795222831    -1.548950998663    -0.898694856747    12.000000000000
         C           -2.629469222831     0.299845001337     0.544036143253    12.000000000000
         H            1.180525777169    -1.176808998663    -1.188662856747     1.007825032230
         H           -1.196708222831    -1.176748998663     1.192337143253     1.007825032230
         H            2.576055777169    -2.109445998663     0.739763143253     1.007825032230
         H            1.753605777169    -0.969253998663     1.823351143253     1.007825032230
         H            0.841648777169    -2.272943998663     1.030339143253     1.007825032230
         H            3.488500777169    -0.313759998663    -0.771551856747     1.007825032230
         H            2.828411777169     0.902268001337     0.345286143253     1.007825032230
         H            2.418344777169     0.967344001337    -1.382133856747     1.007825032230
         H           -2.592215222831    -2.109324998663    -0.736216856747     1.007825032230
         H           -1.769418222831    -0.969343998663    -1.819749856747     1.007825032230
         H           -0.857787222831    -2.273120998663    -1.026487856747     1.007825032230
         H           -3.504586222831    -0.313671998663     0.775112143253     1.007825032230
         H           -2.844475222831     0.902216001337    -0.341875856747     1.007825032230
         H           -2.434438222831     0.967506001337     1.385544143253     1.007825032230

  Basis Set: AUG-CC-PVTZ
    Blend: AUG-CC-PVTZ
  Basis Set: (AUG-CC-PVTZ AUX)
    Blend: AUG-CC-PVTZ-JKFIT
	 Reference Energy          =    -782.7349381726629645 [Eh]
	 Singles Energy            =      -0.0000000000000000 [Eh]
	 Same-Spin Energy          =      -0.4608325560402342 [Eh]
	 Opposite-Spin Energy      =      -1.4976625173182914 [Eh]
	 Correlation Energy        =      -1.9584950733585256 [Eh]
	 Total Energy              =    -784.6934332460215273 [Eh]

	 ================> DF-SCS-MP2 Energies <==================
	-----------------------------------------------------------
	 SCS Same-Spin Scale       =       0.3333333333333333 [-]
	 SCS Opposite-Spin Scale   =       1.2000000000000000 [-]
	 SCS Same-Spin Energy      =      -0.1536108520134114 [Eh]
	 SCS Opposite-Spin Energy  =      -1.7971950207819496 [Eh]
	 SCS Correlation Energy    =      -1.9508058727953610 [Eh]
	 SCS Total Energy          =    -784.6857440454583639 [Eh]
	-----------------------------------------------------------

  Dipole Moment: [D]
     X:     0.3128      Y:    -4.1502      Z:    -0.0375     Total:     4.1621

*** Psi4 exiting successfully. Buy a developer a beer!
