                               Psi4 1.4a3.dev225

  ==> Input File <==

--------------------------------------------------------------------------
#psi4
#
memory 32 gb

molecule  {
0 1
  S        0.0000010    -0.5344910     0.0000050
  O        0.2432388    -1.2575083    -1.2411709
  O       -0.2465760    -1.2674230     1.2582270
  C       -1.4260780     0.5455690    -0.2807730
  C        1.4260820     0.5455700     0.2807730
  C       -1.6587340     1.4791280     0.9005660
  C       -2.6214390    -0.3695300    -0.5423140
  C        1.6587160     1.4791480    -0.9005550
  C        2.6214500    -0.3695300     0.5422790
  H       -1.1885770     1.1070300    -1.1904720
  H        1.1885950     1.1070160     1.1904860
  H       -2.5841820     2.0394700     0.7381390
  H       -1.7612990     0.8994750     1.8215980
  H       -0.8497540     2.2033300     1.0283560
  H       -3.4964690     0.2440390    -0.7735820
  H       -2.8366250    -0.9717990     0.3436230
  H       -2.4263300    -1.0372830    -1.3837320
  H        2.5841850     2.0394630    -0.7381520
  H        1.7612340     0.8995120    -1.8216040
  H        0.8497500     2.2033730    -1.0282990
  H        3.4964760     0.2440360     0.7735650
  H        2.8366350    -0.9717700    -0.3436780
  H        2.4263480    -1.0373120     1.3836770
units angstrom
no_reorient  #important for SAPT in psi4, default
symmetry c1  #important for SAPT in psi4, default
}

set PROPERTIES_ORIGIN ["COM"]
properties('MP2/aug-cc-pvtz', properties = ['dipole'])
--------------------------------------------------------------------------

    Molecular point group: c1
  Charge       = 0
  Multiplicity = 1
  Basis Set: AUG-CC-PVTZ
    Blend: AUG-CC-PVTZ
  Basis Set: (AUG-CC-PVTZ AUX)
    Blend: AUG-CC-PVTZ-JKFIT

    Orbital Energies [Eh]
    ---------------------

    Doubly Occupied:

       1A    -92.161365     2A    -20.533120     3A    -20.531167
       4A    -11.279380     5A    -11.279347     6A    -11.242679
       7A    -11.242220     8A    -11.232348     9A    -11.232329
      10A     -9.132926    11A     -6.817125    12A     -6.816835
      13A     -6.816661    14A     -1.428918    15A     -1.317997
      16A     -1.116980    17A     -1.095110    18A     -0.957613
      19A     -0.955681    20A     -0.922334    21A     -0.837678
      22A     -0.760681    23A     -0.704636    24A     -0.659128
      25A     -0.652403    26A     -0.644418    27A     -0.609536
      28A     -0.589196    29A     -0.579152    30A     -0.577799
      31A     -0.562178    32A     -0.555309    33A     -0.540492
      34A     -0.514939    35A     -0.514661    36A     -0.507858
      37A     -0.504440    38A     -0.482833    39A     -0.468474
      40A     -0.456110    41A     -0.412582

  @DF-RHF Final Energy:  -782.73782173191819

   => Energetics <=

    Nuclear Repulsion Energy =            641.6898069515369798
    One-Electron Energy =               -2348.3619878549670830
    Two-Electron Energy =                 923.9343591715120283
    Total Energy =                       -782.7378217319181886
  Basis Set: (AUG-CC-PVTZ AUX)
    Blend: AUG-CC-PVTZ-RI
    Molecular point group: c1

    Geometry (in Angstrom), charge = 0, multiplicity = 1:

       Center              X                  Y                   Z               Mass
    ------------   -----------------  -----------------  -----------------  -----------------
         S            0.000356799577    -0.476439815847    -0.001811515634    31.972071174400
         O            0.243594599577    -1.199457115847    -1.242987415634    15.994914619570
         O           -0.246220200423    -1.209371815847     1.256410484366    15.994914619570
         C           -1.425722200423     0.603620184153    -0.282589515634    12.000000000000
         C            1.426437799577     0.603621184153     0.278956484366    12.000000000000
         C           -1.658378200423     1.537179184153     0.898749484366    12.000000000000
         C           -2.621083200423    -0.311478815847    -0.544130515634    12.000000000000
         C            1.659071799577     1.537199184153    -0.902371515634    12.000000000000
         C            2.621805799577    -0.311478815847     0.540462484366    12.000000000000
         H           -1.188221200423     1.165081184153    -1.192288515634     1.007825032230
         H            1.188950799577     1.165067184153     1.188669484366     1.007825032230
         H           -2.583826200423     2.097521184153     0.736322484366     1.007825032230
         H           -1.760943200423     0.957526184153     1.819781484366     1.007825032230
         H           -0.849398200423     2.261381184153     1.026539484366     1.007825032230
         H           -3.496113200423     0.302090184153    -0.775398515634     1.007825032230
         H           -2.836269200423    -0.913747815847     0.341806484366     1.007825032230
         H           -2.425974200423    -0.979231815847    -1.385548515634     1.007825032230
         H            2.584540799577     2.097514184153    -0.739968515634     1.007825032230
         H            1.761589799577     0.957563184153    -1.823420515634     1.007825032230
         H            0.850105799577     2.261424184153    -1.030115515634     1.007825032230
         H            3.496831799577     0.302087184153     0.771748484366     1.007825032230
         H            2.836990799577    -0.913718815847    -0.345494515634     1.007825032230
         H            2.426703799577    -0.979260815847     1.381860484366     1.007825032230

  Basis Set: AUG-CC-PVTZ
    Blend: AUG-CC-PVTZ
  Basis Set: (AUG-CC-PVTZ AUX)
    Blend: AUG-CC-PVTZ-JKFIT
	 Reference Energy          =    -782.7378217319181886 [Eh]
	 Singles Energy            =      -0.0000000000000000 [Eh]
	 Same-Spin Energy          =      -0.4611947041459173 [Eh]
	 Opposite-Spin Energy      =      -1.4977263939567480 [Eh]
	 Correlation Energy        =      -1.9589210981026652 [Eh]
	 Total Energy              =    -784.6967428300208667 [Eh]

	 ================> DF-SCS-MP2 Energies <==================
	-----------------------------------------------------------
	 SCS Same-Spin Scale       =       0.3333333333333333 [-]
	 SCS Opposite-Spin Scale   =       1.2000000000000000 [-]
	 SCS Same-Spin Energy      =      -0.1537315680486391 [Eh]
	 SCS Opposite-Spin Energy  =      -1.7972716727480975 [Eh]
	 SCS Correlation Energy    =      -1.9510032407967366 [Eh]
	 SCS Total Energy          =    -784.6888249727148832 [Eh]
	-----------------------------------------------------------

  Dipole Moment: [D]
     X:     0.0190      Y:     4.4393      Z:    -0.0854     Total:     4.4401

*** Psi4 exiting successfully. Buy a developer a beer!
