                               Psi4 1.3.2 release

  ==> Input File <==

--------------------------------------------------------------------------
#psi4
#
memory 32 gb

molecule  {
0 1
  S       -0.0521407     0.4853090    -0.1040845
  O       -0.2465190     1.2674450    -1.2581730
  O        0.2466330     1.2673540     1.2582600
  C        1.4260810    -0.5455830    -0.2807810
  C       -1.4261290    -0.5455610     0.2807710
  C        1.6587720    -1.4791420     0.9005390
  C        2.6214040     0.3695570    -0.5423650
  C       -1.6587760    -1.4791790    -0.9005120
  C       -2.6214500     0.3696170     0.5422190
  H        1.1885450    -1.1070370    -1.1904800
  H       -1.1886890    -1.1069770     1.1905200
  H        2.5840750    -2.0396740     0.7379460
  H        1.7616250    -0.8994820     1.8215340
  H        0.8496680    -2.2031720     1.0285220
  H        3.4965200    -0.2439880    -0.7733690
  H        2.8364310     0.9720400     0.3434690
  H        2.4263640     1.0371160    -1.3839510
  H       -2.5841960    -2.0395530    -0.7380340
  H       -1.7613990    -0.8995720    -1.8215670
  H       -0.8497680    -2.2033490    -1.0283050
  H       -3.4965670    -0.2439000     0.7732950
  H       -2.8364560     0.9719880    -0.3436930
  H       -2.4264190     1.0372780     1.3837270
units angstrom
no_reorient  #important for SAPT in psi4, default
symmetry c1  #important for SAPT in psi4, default
}

set PROPERTIES_ORIGIN ["COM"]
properties('MP2/aug-cc-pvtz', properties = ['dipole'])
--------------------------------------------------------------------------

    Molecular point group: c1
  Charge       = 0
  Multiplicity = 1
  Basis Set: AUG-CC-PVTZ
    Blend: AUG-CC-PVTZ
  Basis Set: (AUG-CC-PVTZ AUX)
    Blend: AUG-CC-PVTZ-JKFIT

    Orbital Energies [Eh]
    ---------------------

    Doubly Occupied:

       1A    -92.159609     2A    -20.548487     3A    -20.506727
       4A    -11.284439     5A    -11.282636     6A    -11.248455
       7A    -11.242128     8A    -11.236423     9A    -11.232292
      10A     -9.133181    11A     -6.817285    12A     -6.817016
      13A     -6.816302    14A     -1.442446    15A     -1.266790
      16A     -1.125254    17A     -1.098453    18A     -0.962869
      19A     -0.955497    20A     -0.931828    21A     -0.844325
      22A     -0.763346    23A     -0.708244    24A     -0.660419
      25A     -0.655119    26A     -0.646402    27A     -0.608105
      28A     -0.591833    29A     -0.580632    30A     -0.576125
      31A     -0.564605    32A     -0.556147    33A     -0.544837
      34A     -0.519413    35A     -0.518414    36A     -0.509749
      37A     -0.506125    38A     -0.471363    39A     -0.458198
      40A     -0.428838    41A     -0.410483

  @DF-RHF Final Energy:  -782.71179536739282

   => Energetics <=

    Nuclear Repulsion Energy =            640.9956788963776262
    One-Electron Energy =               -2346.9532783906429358
    Two-Electron Energy =                 923.2458041268723719
    Total Energy =                       -782.7117953673928241
  Basis Set: (AUG-CC-PVTZ AUX)
    Blend: AUG-CC-PVTZ-RI
    Molecular point group: c1

    Geometry (in Angstrom), charge = 0, multiplicity = 1:

       Center              X                  Y                   Z               Mass
    ------------   -----------------  -----------------  -----------------  -----------------
         S           -0.041034877919     0.436676989484    -0.081906114399    31.972071174400
         O           -0.235413177919     1.218812989484    -1.235994614399    15.994914619570
         O            0.257738822081     1.218721989484     1.280438385601    15.994914619570
         C            1.437186822081    -0.594215010516    -0.258602614399    12.000000000000
         C           -1.415023177919    -0.594193010516     0.302949385601    12.000000000000
         C            1.669877822081    -1.527774010516     0.922717385601    12.000000000000
         C            2.632509822081     0.320924989484    -0.520186614399    12.000000000000
         C           -1.647670177919    -1.527811010516    -0.878333614399    12.000000000000
         C           -2.610344177919     0.320984989484     0.564397385601    12.000000000000
         H            1.199650822081    -1.155669010516    -1.168301614399     1.007825032230
         H           -1.177583177919    -1.155609010516     1.212698385601     1.007825032230
         H            2.595180822081    -2.088306010516     0.760124385601     1.007825032230
         H            1.772730822081    -0.948114010516     1.843712385601     1.007825032230
         H            0.860773822081    -2.251804010516     1.050700385601     1.007825032230
         H            3.507625822081    -0.292620010516    -0.751190614399     1.007825032230
         H            2.847536822081     0.923407989484     0.365647385601     1.007825032230
         H            2.437469822081     0.988483989484    -1.361772614399     1.007825032230
         H           -2.573090177919    -2.088185010516    -0.715855614399     1.007825032230
         H           -1.750293177919    -0.948204010516    -1.799388614399     1.007825032230
         H           -0.838662177919    -2.251981010516    -1.006126614399     1.007825032230
         H           -3.485461177919    -0.292532010516     0.795473385601     1.007825032230
         H           -2.825350177919     0.923355989484    -0.321514614399     1.007825032230
         H           -2.415313177919     0.988645989484     1.405905385601     1.007825032230

  Basis Set: AUG-CC-PVTZ
    Blend: AUG-CC-PVTZ
  Basis Set: (AUG-CC-PVTZ AUX)
    Blend: AUG-CC-PVTZ-JKFIT
	 Reference Energy          =    -782.7117953673928241 [Eh]
	 Singles Energy            =      -0.0000000000000000 [Eh]
	 Same-Spin Energy          =      -0.4621914554244903 [Eh]
	 Opposite-Spin Energy      =      -1.5001251332962882 [Eh]
	 Correlation Energy        =      -1.9623165887207785 [Eh]
	 Total Energy              =    -784.6741119561136202 [Eh]

	 ================> DF-SCS-MP2 Energies <==================
	-----------------------------------------------------------
	 SCS Same-Spin Scale       =       0.3333333333333333 [-]
	 SCS Opposite-Spin Scale   =       1.2000000000000000 [-]
	 SCS Same-Spin Energy      =      -0.1540638184748301 [Eh]
	 SCS Opposite-Spin Energy  =      -1.8001501599555456 [Eh]
	 SCS Correlation Energy    =      -1.9542139784303756 [Eh]
	 SCS Total Energy          =    -784.6660093458232268 [Eh]
	-----------------------------------------------------------

  Dipole Moment: [D]
     X:    -0.4319      Y:    -4.8650      Z:    -0.8366     Total:     4.9553

*** Psi4 exiting successfully. Buy a developer a beer!
