                               Psi4 1.3.2 release

  ==> Input File <==

--------------------------------------------------------------------------
#psi4
#
memory 32 gb

molecule  {
0 1
  S       -1.0885200     0.0000000    -0.0741290
  C        1.3250500     0.0000000    -0.1840330
  C        0.3437375     1.1603729     0.0473315
  C        0.3432180    -1.1342250     0.1513900
  H        1.5467150     0.0000000    -1.2542590
  H        2.2680760     0.0000000     0.3724170
  H        0.4197390     1.4673530     1.1897290
  H        0.3465650     2.0011350    -0.5120140
  H        0.3465650    -2.0011350    -0.5120140
  H        0.4197390    -1.4673530     1.1897290
units angstrom
no_reorient  #important for SAPT in psi4, default
symmetry c1  #important for SAPT in psi4, default
}

set PROPERTIES_ORIGIN ["COM"]
properties('MP2/aug-cc-pvtz', properties = ['dipole'])
--------------------------------------------------------------------------

    Molecular point group: c1
  Charge       = 0
  Multiplicity = 1
  Basis Set: AUG-CC-PVTZ
    Blend: AUG-CC-PVTZ
  Basis Set: (AUG-CC-PVTZ AUX)
    Blend: AUG-CC-PVTZ-JKFIT

    Orbital Energies [Eh]
    ---------------------

    Doubly Occupied:

       1A    -91.943091     2A    -11.260803     3A    -11.259611
       4A    -11.242638     5A     -8.943162     6A     -6.623952
       7A     -6.623631     8A     -6.622332     9A     -1.130929
      10A     -0.924628    11A     -0.905269    12A     -0.761205
      13A     -0.660001    14A     -0.624141    15A     -0.558044
      16A     -0.520243    17A     -0.497455    18A     -0.468172
      19A     -0.407441    20A     -0.333910

  @DF-RHF Final Energy:  -514.64599313877000

   => Energetics <=

    Nuclear Repulsion Energy =            164.4877917386133674
    One-Electron Energy =               -1033.6462530562894244
    Two-Electron Energy =                 354.5124681789059764
    Total Energy =                       -514.6459931387701090
  Basis Set: (AUG-CC-PVTZ AUX)
    Blend: AUG-CC-PVTZ-RI
    Molecular point group: c1

    Geometry (in Angstrom), charge = 0, multiplicity = 1:

       Center              X                  Y                   Z               Mass
    ------------   -----------------  -----------------  -----------------  -----------------
         S           -1.017336535968    -0.004239110356    -0.050938990311    31.972071174400
         C            1.396233464032    -0.004239110356    -0.160842990311    12.000000000000
         C            0.414920964032     1.156133789644     0.070521509689    12.000000000000
         C            0.414401464032    -1.138464110356     0.174580009689    12.000000000000
         H            1.617898464032    -0.004239110356    -1.231068990311     1.007825032230
         H            2.339259464032    -0.004239110356     0.395607009689     1.007825032230
         H            0.490922464032     1.463113889644     1.212919009689     1.007825032230
         H            0.417748464032     1.996895889644    -0.488823990311     1.007825032230
         H            0.417748464032    -2.005374110356    -0.488823990311     1.007825032230
         H            0.490922464032    -1.471592110356     1.212919009689     1.007825032230

  Basis Set: AUG-CC-PVTZ
    Blend: AUG-CC-PVTZ
  Basis Set: (AUG-CC-PVTZ AUX)
    Blend: AUG-CC-PVTZ-JKFIT
	 Reference Energy          =    -514.6459931387699953 [Eh]
	 Singles Energy            =      -0.0000000000000000 [Eh]
	 Same-Spin Energy          =      -0.1809549903603181 [Eh]
	 Opposite-Spin Energy      =      -0.6170909185806728 [Eh]
	 Correlation Energy        =      -0.7980459089409909 [Eh]
	 Total Energy              =    -515.4440390477109304 [Eh]

	 ================> DF-SCS-MP2 Energies <==================
	-----------------------------------------------------------
	 SCS Same-Spin Scale       =       0.3333333333333333 [-]
	 SCS Opposite-Spin Scale   =       1.2000000000000000 [-]
	 SCS Same-Spin Energy      =      -0.0603183301201060 [Eh]
	 SCS Opposite-Spin Energy  =      -0.7405091022968073 [Eh]
	 SCS Correlation Energy    =      -0.8008274324169133 [Eh]
	 SCS Total Energy          =    -515.4468205711868904 [Eh]
	-----------------------------------------------------------

  Dipole Moment: [D]
     X:     1.9338      Y:    -0.0068      Z:     0.1832     Total:     1.9425

*** Psi4 exiting successfully. Buy a developer a beer!
