                               Psi4 1.3.2 release

  ==> Input File <==

--------------------------------------------------------------------------
#psi4
#
memory 32 gb

molecule  {
0 1
  S       -1.0885200     0.0000000    -0.0741290
  C        1.3250500     0.0000000    -0.1840330
  C        0.4204806     1.2038377     0.1249948
  C        0.3432180    -1.1342250     0.1513900
  H        1.5467150     0.0000000    -1.2542590
  H        2.2680760     0.0000000     0.3724170
  H        0.4197390     1.4673530     1.1897290
  H        0.3465650     2.0011350    -0.5120140
  H        0.3465650    -2.0011350    -0.5120140
  H        0.4197390    -1.4673530     1.1897290
units angstrom
no_reorient  #important for SAPT in psi4, default
symmetry c1  #important for SAPT in psi4, default
}

set PROPERTIES_ORIGIN ["COM"]
properties('MP2/aug-cc-pvtz', properties = ['dipole'])
--------------------------------------------------------------------------

    Molecular point group: c1
  Charge       = 0
  Multiplicity = 1
  Basis Set: AUG-CC-PVTZ
    Blend: AUG-CC-PVTZ
  Basis Set: (AUG-CC-PVTZ AUX)
    Blend: AUG-CC-PVTZ-JKFIT

    Orbital Energies [Eh]
    ---------------------

    Doubly Occupied:

       1A    -91.940198     2A    -11.262240     3A    -11.258445
       4A    -11.244235     5A     -8.939511     6A     -6.620235
       7A     -6.619835     8A     -6.618624     9A     -1.123092
      10A     -0.928767    11A     -0.897656    12A     -0.764522
      13A     -0.664705    14A     -0.616539    15A     -0.575760
      16A     -0.519716    17A     -0.506398    18A     -0.459383
      19A     -0.393685    20A     -0.335009

  @DF-RHF Final Energy:  -514.65036924709034

   => Energetics <=

    Nuclear Repulsion Energy =            163.1798374000930494
    One-Electron Energy =               -1031.0833042769472740
    Two-Electron Energy =                 353.2530976297638858
    Total Energy =                       -514.6503692470903388
  Basis Set: (AUG-CC-PVTZ AUX)
    Blend: AUG-CC-PVTZ-RI
    Molecular point group: c1

    Geometry (in Angstrom), charge = 0, multiplicity = 1:

       Center              X                  Y                   Z               Mass
    ------------   -----------------  -----------------  -----------------  -----------------
         S           -1.029778164930    -0.011285645022    -0.063529802547    31.972071174400
         C            1.383791835070    -0.011285645022    -0.173433802547    12.000000000000
         C            0.479222435070     1.192552054978     0.135593997453    12.000000000000
         C            0.401959835070    -1.145510645022     0.161989197453    12.000000000000
         H            1.605456835070    -0.011285645022    -1.243659802547     1.007825032230
         H            2.326817835070    -0.011285645022     0.383016197453     1.007825032230
         H            0.478480835070     1.456067354978     1.200328197453     1.007825032230
         H            0.405306835070     1.989849354978    -0.501414802547     1.007825032230
         H            0.405306835070    -2.012420645022    -0.501414802547     1.007825032230
         H            0.478480835070    -1.478638645022     1.200328197453     1.007825032230

  Basis Set: AUG-CC-PVTZ
    Blend: AUG-CC-PVTZ
  Basis Set: (AUG-CC-PVTZ AUX)
    Blend: AUG-CC-PVTZ-JKFIT
	 Reference Energy          =    -514.6503692470903388 [Eh]
	 Singles Energy            =      -0.0000000000000000 [Eh]
	 Same-Spin Energy          =      -0.1806728834802487 [Eh]
	 Opposite-Spin Energy      =      -0.6170694042851737 [Eh]
	 Correlation Energy        =      -0.7977422877654223 [Eh]
	 Total Energy              =    -515.4481115348557978 [Eh]

	 ================> DF-SCS-MP2 Energies <==================
	-----------------------------------------------------------
	 SCS Same-Spin Scale       =       0.3333333333333333 [-]
	 SCS Opposite-Spin Scale   =       1.2000000000000000 [-]
	 SCS Same-Spin Energy      =      -0.0602242944934162 [Eh]
	 SCS Opposite-Spin Energy  =      -0.7404832851422084 [Eh]
	 SCS Correlation Energy    =      -0.8007075796356247 [Eh]
	 SCS Total Energy          =    -515.4510768267259664 [Eh]
	-----------------------------------------------------------

  Dipole Moment: [D]
     X:     2.0184      Y:     0.0920      Z:     0.2408     Total:     2.0348

*** Psi4 exiting successfully. Buy a developer a beer!
