                               Psi4 1.3.2 release

  ==> Input File <==

--------------------------------------------------------------------------
#psi4
#
memory 32 gb

molecule  {
0 1
  S       -1.0811101    -0.0027076    -0.1052664
  C        1.3250500     0.0000000    -0.1840330
  C        0.3432180     1.1342250     0.1513900
  C        0.3432180    -1.1342250     0.1513900
  H        1.5467150     0.0000000    -1.2542590
  H        2.2680760     0.0000000     0.3724170
  H        0.4197390     1.4673530     1.1897290
  H        0.3465650     2.0011350    -0.5120140
  H        0.3465650    -2.0011350    -0.5120140
  H        0.4197390    -1.4673530     1.1897290
units angstrom
no_reorient  #important for SAPT in psi4, default
symmetry c1  #important for SAPT in psi4, default
}

set PROPERTIES_ORIGIN ["COM"]
properties('MP2/aug-cc-pvtz', properties = ['dipole'])
--------------------------------------------------------------------------

    Molecular point group: c1
  Charge       = 0
  Multiplicity = 1
  Basis Set: AUG-CC-PVTZ
    Blend: AUG-CC-PVTZ
  Basis Set: (AUG-CC-PVTZ AUX)
    Blend: AUG-CC-PVTZ-JKFIT

    Orbital Energies [Eh]
    ---------------------

    Doubly Occupied:

       1A    -91.942053     2A    -11.258990     3A    -11.258664
       4A    -11.241002     5A     -8.942406     6A     -6.623196
       7A     -6.622874     8A     -6.621566     9A     -1.132938
      10A     -0.920796    11A     -0.904719    12A     -0.759687
      13A     -0.655571    14A     -0.621893    15A     -0.566879
      16A     -0.512743    17A     -0.505867    18A     -0.463049
      19A     -0.409930    20A     -0.336122

  @DF-RHF Final Energy:  -514.65774867357095

   => Energetics <=

    Nuclear Repulsion Energy =            164.8331181109641932
    One-Electron Energy =               -1034.3798438205433285
    Two-Electron Energy =                 354.8889770360082139
    Total Energy =                       -514.6577486735709499
  Basis Set: (AUG-CC-PVTZ AUX)
    Blend: AUG-CC-PVTZ-RI
    Molecular point group: c1

    Geometry (in Angstrom), charge = 0, multiplicity = 1:

       Center              X                  Y                   Z               Mass
    ------------   -----------------  -----------------  -----------------  -----------------
         S           -1.013043076120    -0.001538068462    -0.085496792612    31.972071174400
         C            1.393117023880     0.001169531538    -0.164263392612    12.000000000000
         C            0.411285023880     1.135394531538     0.171159607388    12.000000000000
         C            0.411285023880    -1.133055468462     0.171159607388    12.000000000000
         H            1.614782023880     0.001169531538    -1.234489392612     1.007825032230
         H            2.336143023880     0.001169531538     0.392186607388     1.007825032230
         H            0.487806023880     1.468522531538     1.209498607388     1.007825032230
         H            0.414632023880     2.002304531538    -0.492244392612     1.007825032230
         H            0.414632023880    -1.999965468462    -0.492244392612     1.007825032230
         H            0.487806023880    -1.466183468462     1.209498607388     1.007825032230

  Basis Set: AUG-CC-PVTZ
    Blend: AUG-CC-PVTZ
  Basis Set: (AUG-CC-PVTZ AUX)
    Blend: AUG-CC-PVTZ-JKFIT
	 Reference Energy          =    -514.6577486735709499 [Eh]
	 Singles Energy            =      -0.0000000000000000 [Eh]
	 Same-Spin Energy          =      -0.1810169380011898 [Eh]
	 Opposite-Spin Energy      =      -0.6166594544551157 [Eh]
	 Correlation Energy        =      -0.7976763924563055 [Eh]
	 Total Energy              =    -515.4554250660272601 [Eh]

	 ================> DF-SCS-MP2 Energies <==================
	-----------------------------------------------------------
	 SCS Same-Spin Scale       =       0.3333333333333333 [-]
	 SCS Opposite-Spin Scale   =       1.2000000000000000 [-]
	 SCS Same-Spin Energy      =      -0.0603389793337299 [Eh]
	 SCS Opposite-Spin Energy  =      -0.7399913453461389 [Eh]
	 SCS Correlation Energy    =      -0.8003303246798688 [Eh]
	 SCS Total Energy          =    -515.4580789982508122 [Eh]
	-----------------------------------------------------------

  Dipole Moment: [D]
     X:     1.9232      Y:     0.0027      Z:     0.2699     Total:     1.9421

*** Psi4 exiting successfully. Buy a developer a beer!
