                               Psi4 1.3.2 release

  ==> Input File <==

--------------------------------------------------------------------------
#psi4
#
memory 32 gb

molecule  {
0 1
  S       -1.0885200     0.0000000    -0.0741290
  C        1.3250500     0.0000000    -0.1840330
  C        0.3432180     1.1342250     0.1513900
  C        0.3432180    -1.1342250     0.1513900
  H        1.5467150     0.0000000    -1.2542590
  H        2.2680760     0.0000000     0.3724170
  H        0.4191904     1.4491549     1.1954326
  H        0.3465650     2.0011350    -0.5120140
  H        0.3465650    -2.0011350    -0.5120140
  H        0.4197390    -1.4673530     1.1897290
units angstrom
no_reorient  #important for SAPT in psi4, default
symmetry c1  #important for SAPT in psi4, default
}

set PROPERTIES_ORIGIN ["COM"]
properties('MP2/aug-cc-pvtz', properties = ['dipole'])
--------------------------------------------------------------------------

    Molecular point group: c1
  Charge       = 0
  Multiplicity = 1
  Basis Set: AUG-CC-PVTZ
    Blend: AUG-CC-PVTZ
  Basis Set: (AUG-CC-PVTZ AUX)
    Blend: AUG-CC-PVTZ-JKFIT

    Orbital Energies [Eh]
    ---------------------

    Doubly Occupied:

       1A    -91.941717     2A    -11.259059     3A    -11.258940
       4A    -11.241020     5A     -8.942050     6A     -6.622844
       7A     -6.622515     8A     -6.621212     9A     -1.132328
      10A     -0.920531    11A     -0.905185    12A     -0.758642
      13A     -0.656353    14A     -0.621698    15A     -0.567304
      16A     -0.512954    17A     -0.506334    18A     -0.461981
      19A     -0.409781    20A     -0.335907

  @DF-RHF Final Energy:  -514.65791362317236

   => Energetics <=

    Nuclear Repulsion Energy =            164.7160565703474333
    One-Electron Energy =               -1034.1512322521632541
    Two-Electron Energy =                 354.7772620586435437
    Total Energy =                       -514.6579136231723623
  Basis Set: (AUG-CC-PVTZ AUX)
    Blend: AUG-CC-PVTZ-RI
    Molecular point group: c1

    Geometry (in Angstrom), charge = 0, multiplicity = 1:

       Center              X                  Y                   Z               Mass
    ------------   -----------------  -----------------  -----------------  -----------------
         S           -1.017244844769     0.000247780913    -0.067886664134    31.972071174400
         C            1.396325155231     0.000247780913    -0.177790664134    12.000000000000
         C            0.414493155231     1.134472780913     0.157632335866    12.000000000000
         C            0.414493155231    -1.133977219087     0.157632335866    12.000000000000
         H            1.617990155231     0.000247780913    -1.248016664134     1.007825032230
         H            2.339351155231     0.000247780913     0.378659335866     1.007825032230
         H            0.490465555231     1.449402680913     1.201674935866     1.007825032230
         H            0.417840155231     2.001382780913    -0.505771664134     1.007825032230
         H            0.417840155231    -2.000887219087    -0.505771664134     1.007825032230
         H            0.491014155231    -1.467105219087     1.195971335866     1.007825032230

  Basis Set: AUG-CC-PVTZ
    Blend: AUG-CC-PVTZ
  Basis Set: (AUG-CC-PVTZ AUX)
    Blend: AUG-CC-PVTZ-JKFIT
	 Reference Energy          =    -514.6579136231723623 [Eh]
	 Singles Energy            =      -0.0000000000000000 [Eh]
	 Same-Spin Energy          =      -0.1809652189975521 [Eh]
	 Opposite-Spin Energy      =      -0.6166565772284668 [Eh]
	 Correlation Energy        =      -0.7976217962260189 [Eh]
	 Total Energy              =    -515.4555354193984158 [Eh]

	 ================> DF-SCS-MP2 Energies <==================
	-----------------------------------------------------------
	 SCS Same-Spin Scale       =       0.3333333333333333 [-]
	 SCS Opposite-Spin Scale   =       1.2000000000000000 [-]
	 SCS Same-Spin Energy      =      -0.0603217396658507 [Eh]
	 SCS Opposite-Spin Energy  =      -0.7399878926741601 [Eh]
	 SCS Correlation Energy    =      -0.8003096323400108 [Eh]
	 SCS Total Energy          =    -515.4582232555123937 [Eh]
	-----------------------------------------------------------

  Dipole Moment: [D]
     X:     1.9396      Y:    -0.0014      Z:     0.2498     Total:     1.9556

*** Psi4 exiting successfully. Buy a developer a beer!
