                               Psi4 1.3.2 release

  ==> Input File <==

--------------------------------------------------------------------------
#psi4
#
memory 32 gb

molecule  {
0 1
  S       -1.0885200     0.0000000    -0.0741290
  C        1.3250500     0.0000000    -0.1840330
  C        0.2364042     1.0195585     0.1878808
  C        0.3432180    -1.1342250     0.1513900
  H        1.5467150     0.0000000    -1.2542590
  H        2.2680760     0.0000000     0.3724170
  H        0.4197390     1.4673530     1.1897290
  H        0.3465650     2.0011350    -0.5120140
  H        0.3465650    -2.0011350    -0.5120140
  H        0.4197390    -1.4673530     1.1897290
units angstrom
no_reorient  #important for SAPT in psi4, default
symmetry c1  #important for SAPT in psi4, default
}

set PROPERTIES_ORIGIN ["COM"]
properties('MP2/aug-cc-pvtz', properties = ['dipole'])
--------------------------------------------------------------------------

    Molecular point group: c1
  Charge       = 0
  Multiplicity = 1
  Basis Set: AUG-CC-PVTZ
    Blend: AUG-CC-PVTZ
  Basis Set: (AUG-CC-PVTZ AUX)
    Blend: AUG-CC-PVTZ-JKFIT

    Orbital Energies [Eh]
    ---------------------

    Doubly Occupied:

       1A    -91.942411     2A    -11.261497     3A    -11.261292
       4A    -11.238978     5A     -8.945534     6A     -6.626666
       7A     -6.625995     8A     -6.624615     9A     -1.153652
      10A     -0.928468    11A     -0.904083    12A     -0.751194
      13A     -0.647238    14A     -0.632826    15A     -0.550455
      16A     -0.524889    17A     -0.505118    18A     -0.457444
      19A     -0.418719    20A     -0.333990

  @DF-RHF Final Energy:  -514.63335018078669

   => Energetics <=

    Nuclear Repulsion Energy =            167.2484427893473082
    One-Electron Energy =               -1039.0934566051755610
    Two-Electron Energy =                 357.2116636350415888
    Total Energy =                       -514.6333501807866924
  Basis Set: (AUG-CC-PVTZ AUX)
    Blend: AUG-CC-PVTZ-RI
    Molecular point group: c1

    Geometry (in Angstrom), charge = 0, multiplicity = 1:

       Center              X                  Y                   Z               Mass
    ------------   -----------------  -----------------  -----------------  -----------------
         S           -0.999935608798     0.018589789146    -0.073724911670    31.972071174400
         C            1.413634391202     0.018589789146    -0.183628911670    12.000000000000
         C            0.324988591202     1.038148289146     0.188284888330    12.000000000000
         C            0.431802391202    -1.115635210854     0.151794088330    12.000000000000
         H            1.635299391202     0.018589789146    -1.253854911670     1.007825032230
         H            2.356660391202     0.018589789146     0.372821088330     1.007825032230
         H            0.508323391202     1.485942789146     1.190133088330     1.007825032230
         H            0.435149391202     2.019724789146    -0.511609911670     1.007825032230
         H            0.435149391202    -1.982545210854    -0.511609911670     1.007825032230
         H            0.508323391202    -1.448763210854     1.190133088330     1.007825032230

  Basis Set: AUG-CC-PVTZ
    Blend: AUG-CC-PVTZ
  Basis Set: (AUG-CC-PVTZ AUX)
    Blend: AUG-CC-PVTZ-JKFIT
	 Reference Energy          =    -514.6333501807866924 [Eh]
	 Singles Energy            =      -0.0000000000000000 [Eh]
	 Same-Spin Energy          =      -0.1826127053985401 [Eh]
	 Opposite-Spin Energy      =      -0.6183264176815060 [Eh]
	 Correlation Energy        =      -0.8009391230800460 [Eh]
	 Total Energy              =    -515.4342893038667626 [Eh]

	 ================> DF-SCS-MP2 Energies <==================
	-----------------------------------------------------------
	 SCS Same-Spin Scale       =       0.3333333333333333 [-]
	 SCS Opposite-Spin Scale   =       1.2000000000000000 [-]
	 SCS Same-Spin Energy      =      -0.0608709017995134 [Eh]
	 SCS Opposite-Spin Energy  =      -0.7419917012178071 [Eh]
	 SCS Correlation Energy    =      -0.8028626030173205 [Eh]
	 SCS Total Energy          =    -515.4362127838039669 [Eh]
	-----------------------------------------------------------

  Dipole Moment: [D]
     X:     1.8026      Y:    -0.2335      Z:     0.2629     Total:     1.8365

*** Psi4 exiting successfully. Buy a developer a beer!
