                               Psi4 1.3.2 release

  ==> Input File <==

--------------------------------------------------------------------------
#psi4
#
memory 32 gb

molecule  {
0 1
  S       -1.0473885    -0.0473175    -0.0881300
  C        1.3250500     0.0000000    -0.1840330
  C        0.3432180     1.1342250     0.1513900
  C        0.3432180    -1.1342250     0.1513900
  H        1.5467150     0.0000000    -1.2542590
  H        2.2680760     0.0000000     0.3724170
  H        0.4197390     1.4673530     1.1897290
  H        0.3465650     2.0011350    -0.5120140
  H        0.3465650    -2.0011350    -0.5120140
  H        0.4197390    -1.4673530     1.1897290
units angstrom
no_reorient  #important for SAPT in psi4, default
symmetry c1  #important for SAPT in psi4, default
}

set PROPERTIES_ORIGIN ["COM"]
properties('MP2/aug-cc-pvtz', properties = ['dipole'])
--------------------------------------------------------------------------

    Molecular point group: c1
  Charge       = 0
  Multiplicity = 1
  Basis Set: AUG-CC-PVTZ
    Blend: AUG-CC-PVTZ
  Basis Set: (AUG-CC-PVTZ AUX)
    Blend: AUG-CC-PVTZ-JKFIT

    Orbital Energies [Eh]
    ---------------------

    Doubly Occupied:

       1A    -91.940049     2A    -11.258890     3A    -11.253176
       4A    -11.240951     5A     -8.941414     6A     -6.622265
       7A     -6.621957     8A     -6.620587     9A     -1.140353
      10A     -0.924959    11A     -0.904531    12A     -0.758079
      13A     -0.657041    14A     -0.622709    15A     -0.567006
      16A     -0.515552    17A     -0.506556    18A     -0.470164
      19A     -0.408279    20A     -0.334426

  @DF-RHF Final Energy:  -514.65666568771030

   => Energetics <=

    Nuclear Repulsion Energy =            166.1709926471349945
    One-Electron Energy =               -1037.0374222797117909
    Two-Electron Energy =                 356.2097639448664950
    Total Energy =                       -514.6566656877103014
  Basis Set: (AUG-CC-PVTZ AUX)
    Blend: AUG-CC-PVTZ-RI
    Molecular point group: c1

    Geometry (in Angstrom), charge = 0, multiplicity = 1:

       Center              X                  Y                   Z               Mass
    ------------   -----------------  -----------------  -----------------  -----------------
         S           -0.993887318458    -0.026878990414    -0.075762357544    31.972071174400
         C            1.378551181542     0.020438509586    -0.171665357544    12.000000000000
         C            0.396719181542     1.154663509586     0.163757642456    12.000000000000
         C            0.396719181542    -1.113786490414     0.163757642456    12.000000000000
         H            1.600216181542     0.020438509586    -1.241891357544     1.007825032230
         H            2.321577181542     0.020438509586     0.384784642456     1.007825032230
         H            0.473240181542     1.487791509586     1.202096642456     1.007825032230
         H            0.400066181542     2.021573509586    -0.499646357544     1.007825032230
         H            0.400066181542    -1.980696490414    -0.499646357544     1.007825032230
         H            0.473240181542    -1.446914490414     1.202096642456     1.007825032230

  Basis Set: AUG-CC-PVTZ
    Blend: AUG-CC-PVTZ
  Basis Set: (AUG-CC-PVTZ AUX)
    Blend: AUG-CC-PVTZ-JKFIT
	 Reference Energy          =    -514.6566656877103014 [Eh]
	 Singles Energy            =      -0.0000000000000000 [Eh]
	 Same-Spin Energy          =      -0.1812999822317178 [Eh]
	 Opposite-Spin Energy      =      -0.6163716688838781 [Eh]
	 Correlation Energy        =      -0.7976716511155959 [Eh]
	 Total Energy              =    -515.4543373388258942 [Eh]

	 ================> DF-SCS-MP2 Energies <==================
	-----------------------------------------------------------
	 SCS Same-Spin Scale       =       0.3333333333333333 [-]
	 SCS Opposite-Spin Scale   =       1.2000000000000000 [-]
	 SCS Same-Spin Energy      =      -0.0604333274105726 [Eh]
	 SCS Opposite-Spin Energy  =      -0.7396460026606536 [Eh]
	 SCS Correlation Energy    =      -0.8000793300712262 [Eh]
	 SCS Total Energy          =    -515.4567450177814862 [Eh]
	-----------------------------------------------------------

  Dipole Moment: [D]
     X:     1.8915      Y:     0.0454      Z:     0.2489     Total:     1.9083

*** Psi4 exiting successfully. Buy a developer a beer!
