                               Psi4 1.3.2 release

  ==> Input File <==

--------------------------------------------------------------------------
#psi4
#
memory 32 gb

molecule  {
0 1
  S       -1.0885200     0.0000000    -0.0741290
  C        1.3250500     0.0000000    -0.1840330
  C        0.3234461     1.1593476     0.1482756
  C        0.3432180    -1.1342250     0.1513900
  H        1.5467150     0.0000000    -1.2542590
  H        2.2680760     0.0000000     0.3724170
  H        0.4197390     1.4673530     1.1897290
  H        0.3465650     2.0011350    -0.5120140
  H        0.3465650    -2.0011350    -0.5120140
  H        0.4197390    -1.4673530     1.1897290
units angstrom
no_reorient  #important for SAPT in psi4, default
symmetry c1  #important for SAPT in psi4, default
}

set PROPERTIES_ORIGIN ["COM"]
properties('MP2/aug-cc-pvtz', properties = ['dipole'])
--------------------------------------------------------------------------

    Molecular point group: c1
  Charge       = 0
  Multiplicity = 1
  Basis Set: AUG-CC-PVTZ
    Blend: AUG-CC-PVTZ
  Basis Set: (AUG-CC-PVTZ AUX)
    Blend: AUG-CC-PVTZ-JKFIT

    Orbital Energies [Eh]
    ---------------------

    Doubly Occupied:

       1A    -91.942453     2A    -11.258800     3A    -11.258099
       4A    -11.242723     5A     -8.942643     6A     -6.623441
       7A     -6.623118     8A     -6.621825     9A     -1.127976
      10A     -0.922159    11A     -0.903195    12A     -0.760760
      13A     -0.656407    14A     -0.618453    15A     -0.569607
      16A     -0.510439    17A     -0.505582    18A     -0.465483
      19A     -0.407590    20A     -0.336180

  @DF-RHF Final Energy:  -514.65740361729434

   => Energetics <=

    Nuclear Repulsion Energy =            164.3739482620113392
    One-Electron Energy =               -1033.4688405660115222
    Two-Electron Energy =                 354.4374886867058194
    Total Energy =                       -514.6574036172943352
  Basis Set: (AUG-CC-PVTZ AUX)
    Blend: AUG-CC-PVTZ-RI
    Molecular point group: c1

    Geometry (in Angstrom), charge = 0, multiplicity = 1:

       Center              X                  Y                   Z               Mass
    ------------   -----------------  -----------------  -----------------  -----------------
         S           -1.014046884261    -0.004072888218    -0.067304097247    31.972071174400
         C            1.399523115739    -0.004072888218    -0.177208097247    12.000000000000
         C            0.397919215739     1.155274711782     0.155100502753    12.000000000000
         C            0.417691115739    -1.138297888218     0.158214902753    12.000000000000
         H            1.621188115739    -0.004072888218    -1.247434097247     1.007825032230
         H            2.342549115739    -0.004072888218     0.379241902753     1.007825032230
         H            0.494212115739     1.463280111782     1.196553902753     1.007825032230
         H            0.421038115739     1.997062111782    -0.505189097247     1.007825032230
         H            0.421038115739    -2.005207888218    -0.505189097247     1.007825032230
         H            0.494212115739    -1.471425888218     1.196553902753     1.007825032230

  Basis Set: AUG-CC-PVTZ
    Blend: AUG-CC-PVTZ
  Basis Set: (AUG-CC-PVTZ AUX)
    Blend: AUG-CC-PVTZ-JKFIT
	 Reference Energy          =    -514.6574036172943352 [Eh]
	 Singles Energy            =      -0.0000000000000000 [Eh]
	 Same-Spin Energy          =      -0.1807406127492048 [Eh]
	 Opposite-Spin Energy      =      -0.6165423952297178 [Eh]
	 Correlation Energy        =      -0.7972830079789226 [Eh]
	 Total Energy              =    -515.4546866252732116 [Eh]

	 ================> DF-SCS-MP2 Energies <==================
	-----------------------------------------------------------
	 SCS Same-Spin Scale       =       0.3333333333333333 [-]
	 SCS Opposite-Spin Scale   =       1.2000000000000000 [-]
	 SCS Same-Spin Energy      =      -0.0602468709164016 [Eh]
	 SCS Opposite-Spin Energy  =      -0.7398508742756613 [Eh]
	 SCS Correlation Energy    =      -0.8000977451920629 [Eh]
	 SCS Total Energy          =    -515.4575013624863686 [Eh]
	-----------------------------------------------------------

  Dipole Moment: [D]
     X:     1.9440      Y:     0.0067      Z:     0.2410     Total:     1.9589

*** Psi4 exiting successfully. Buy a developer a beer!
