                               Psi4 1.4a3.dev225

  ==> Input File <==

--------------------------------------------------------------------------
#psi4
#
memory 32 gb

molecule  {
0 1
  S       -1.0885200     0.0000000    -0.0741290
  C        1.3250500     0.0000000    -0.1840330
  C        0.3043213     1.1034109     0.1452632
  C        0.3432180    -1.1342250     0.1513900
  H        1.5467150     0.0000000    -1.2542590
  H        2.2680760     0.0000000     0.3724170
  H        0.4197390     1.4673530     1.1897290
  H        0.3465650     2.0011350    -0.5120140
  H        0.3465650    -2.0011350    -0.5120140
  H        0.4197390    -1.4673530     1.1897290
units angstrom
no_reorient  #important for SAPT in psi4, default
symmetry c1  #important for SAPT in psi4, default
}

set PROPERTIES_ORIGIN ["COM"]
properties('MP2/aug-cc-pvtz', properties = ['dipole'])
--------------------------------------------------------------------------

    Molecular point group: c1
  Charge       = 0
  Multiplicity = 1
  Basis Set: AUG-CC-PVTZ
    Blend: AUG-CC-PVTZ
  Basis Set: (AUG-CC-PVTZ AUX)
    Blend: AUG-CC-PVTZ-JKFIT

    Orbital Energies [Eh]
    ---------------------

    Doubly Occupied:

       1A    -91.942379     2A    -11.259526     3A    -11.258822
       4A    -11.240238     5A     -8.943417     6A     -6.624281
       7A     -6.623931     8A     -6.622584     9A     -1.137703
      10A     -0.919372    11A     -0.907895    12A     -0.755683
      13A     -0.653222    14A     -0.624961    15A     -0.559991
      16A     -0.514564    17A     -0.504418    18A     -0.463600
      19A     -0.415260    20A     -0.335620

  @DF-RHF Final Energy:  -514.65542586129641

   => Energetics <=

    Nuclear Repulsion Energy =            165.4651055454042137
    One-Electron Energy =               -1035.6261255488907409
    Two-Electron Energy =                 355.5055941421901480
    Total Energy =                       -514.6554258612964077
  Basis Set: (AUG-CC-PVTZ AUX)
    Blend: AUG-CC-PVTZ-RI
    Molecular point group: c1

    Geometry (in Angstrom), charge = 0, multiplicity = 1:

       Center              X                  Y                   Z               Mass
    ------------   -----------------  -----------------  -----------------  -----------------
         S           -1.010946362317     0.004995596985    -0.066815725483    31.972071174400
         C            1.402623637683     0.004995596985    -0.176719725483    12.000000000000
         C            0.381894937683     1.108406496985     0.152576474517    12.000000000000
         C            0.420791637683    -1.129229403015     0.158703274517    12.000000000000
         H            1.624288637683     0.004995596985    -1.246945725483     1.007825032230
         H            2.345649637683     0.004995596985     0.379730274517     1.007825032230
         H            0.497312637683     1.472348596985     1.197042274517     1.007825032230
         H            0.424138637683     2.006130596985    -0.504700725483     1.007825032230
         H            0.424138637683    -1.996139403015    -0.504700725483     1.007825032230
         H            0.497312637683    -1.462357403015     1.197042274517     1.007825032230

  Basis Set: AUG-CC-PVTZ
    Blend: AUG-CC-PVTZ
  Basis Set: (AUG-CC-PVTZ AUX)
    Blend: AUG-CC-PVTZ-JKFIT
	 Reference Energy          =    -514.6554258612964077 [Eh]
	 Singles Energy            =      -0.0000000000000000 [Eh]
	 Same-Spin Energy          =      -0.1812763246675908 [Eh]
	 Opposite-Spin Energy      =      -0.6168120799020718 [Eh]
	 Correlation Energy        =      -0.7980884045696626 [Eh]
	 Total Energy              =    -515.4535142658660334 [Eh]

	 ================> DF-SCS-MP2 Energies <==================
	-----------------------------------------------------------
	 SCS Same-Spin Scale       =       0.3333333333333333 [-]
	 SCS Opposite-Spin Scale   =       1.2000000000000000 [-]
	 SCS Same-Spin Energy      =      -0.0604254415558636 [Eh]
	 SCS Opposite-Spin Energy  =      -0.7401744958824861 [Eh]
	 SCS Correlation Energy    =      -0.8005999374383497 [Eh]
	 SCS Total Energy          =    -515.4560257987347995 [Eh]
	-----------------------------------------------------------

  Dipole Moment: [D]
     X:     1.8949      Y:    -0.0592      Z:     0.2407     Total:     1.9110

*** Psi4 exiting successfully. Buy a developer a beer!
