                               Psi4 1.3.2 release

  ==> Input File <==

--------------------------------------------------------------------------
#psi4
#
memory 32 gb

molecule  {
0 1
  S       -1.0954938     0.0030531    -0.0429229
  C        1.3250500     0.0000000    -0.1840330
  C        0.3432180     1.1342250     0.1513900
  C        0.3432180    -1.1342250     0.1513900
  H        1.5467150     0.0000000    -1.2542590
  H        2.2680760     0.0000000     0.3724170
  H        0.4197390     1.4673530     1.1897290
  H        0.3465650     2.0011350    -0.5120140
  H        0.3465650    -2.0011350    -0.5120140
  H        0.4197390    -1.4673530     1.1897290
units angstrom
no_reorient  #important for SAPT in psi4, default
symmetry c1  #important for SAPT in psi4, default
}

set PROPERTIES_ORIGIN ["COM"]
properties('MP2/aug-cc-pvtz', properties = ['dipole'])
--------------------------------------------------------------------------

    Molecular point group: c1
  Charge       = 0
  Multiplicity = 1
  Basis Set: AUG-CC-PVTZ
    Blend: AUG-CC-PVTZ
  Basis Set: (AUG-CC-PVTZ AUX)
    Blend: AUG-CC-PVTZ-JKFIT

    Orbital Energies [Eh]
    ---------------------

    Doubly Occupied:

       1A    -91.941723     2A    -11.259285     3A    -11.258916
       4A    -11.241288     5A     -8.941998     6A     -6.622795
       7A     -6.622458     8A     -6.621160     9A     -1.131418
      10A     -0.920462    11A     -0.905665    12A     -0.758468
      13A     -0.655838    14A     -0.622044    15A     -0.566454
      16A     -0.513063    17A     -0.506438    18A     -0.461846
      19A     -0.409802    20A     -0.335794

  @DF-RHF Final Energy:  -514.65796734239927

   => Energetics <=

    Nuclear Repulsion Energy =            164.5467525860159128
    One-Electron Energy =               -1033.8156104974516438
    Two-Electron Energy =                 354.6108905690364850
    Total Energy =                       -514.6579673423991608
  Basis Set: (AUG-CC-PVTZ AUX)
    Blend: AUG-CC-PVTZ-RI
    Molecular point group: c1

    Geometry (in Angstrom), charge = 0, multiplicity = 1:

       Center              X                  Y                   Z               Mass
    ------------   -----------------  -----------------  -----------------  -----------------
         S           -1.021213823399     0.001734331814    -0.050082192541    31.972071174400
         C            1.399329976601    -0.001318768186    -0.191192292541    12.000000000000
         C            0.417497976601     1.132906231814     0.144230707459    12.000000000000
         C            0.417497976601    -1.135543768186     0.144230707459    12.000000000000
         H            1.620994976601    -0.001318768186    -1.261418292541     1.007825032230
         H            2.342355976601    -0.001318768186     0.365257707459     1.007825032230
         H            0.494018976601     1.466034231814     1.182569707459     1.007825032230
         H            0.420844976601     1.999816231814    -0.519173292541     1.007825032230
         H            0.420844976601    -2.002453768186    -0.519173292541     1.007825032230
         H            0.494018976601    -1.468671768186     1.182569707459     1.007825032230

  Basis Set: AUG-CC-PVTZ
    Blend: AUG-CC-PVTZ
  Basis Set: (AUG-CC-PVTZ AUX)
    Blend: AUG-CC-PVTZ-JKFIT
	 Reference Energy          =    -514.6579673423992745 [Eh]
	 Singles Energy            =      -0.0000000000000000 [Eh]
	 Same-Spin Energy          =      -0.1808810067187597 [Eh]
	 Opposite-Spin Energy      =      -0.6166138069984268 [Eh]
	 Correlation Energy        =      -0.7974948137171866 [Eh]
	 Total Energy              =    -515.4554621561164822 [Eh]

	 ================> DF-SCS-MP2 Energies <==================
	-----------------------------------------------------------
	 SCS Same-Spin Scale       =       0.3333333333333333 [-]
	 SCS Opposite-Spin Scale   =       1.2000000000000000 [-]
	 SCS Same-Spin Energy      =      -0.0602936689062532 [Eh]
	 SCS Opposite-Spin Energy  =      -0.7399365683981122 [Eh]
	 SCS Correlation Energy    =      -0.8002302373043654 [Eh]
	 SCS Total Energy          =    -515.4581975797036648 [Eh]
	-----------------------------------------------------------

  Dipole Moment: [D]
     X:     1.9525      Y:    -0.0030      Z:     0.2257     Total:     1.9655

*** Psi4 exiting successfully. Buy a developer a beer!
