                               Psi4 1.4a3.dev225

  ==> Input File <==

--------------------------------------------------------------------------
#psi4
#
memory 32 gb

molecule  {
0 1
  S       -1.0885200     0.0000000    -0.0741290
  C        1.3250500     0.0000000    -0.1840330
  C        0.3276593     1.1218994     0.1489393
  C        0.3432180    -1.1342250     0.1513900
  H        1.5467150     0.0000000    -1.2542590
  H        2.2680760     0.0000000     0.3724170
  H        0.4197390     1.4673530     1.1897290
  H        0.3465650     2.0011350    -0.5120140
  H        0.3465650    -2.0011350    -0.5120140
  H        0.4197390    -1.4673530     1.1897290
units angstrom
no_reorient  #important for SAPT in psi4, default
symmetry c1  #important for SAPT in psi4, default
}

set PROPERTIES_ORIGIN ["COM"]
properties('MP2/aug-cc-pvtz', properties = ['dipole'])
--------------------------------------------------------------------------

    Molecular point group: c1
  Charge       = 0
  Multiplicity = 1
  Basis Set: AUG-CC-PVTZ
    Blend: AUG-CC-PVTZ
  Basis Set: (AUG-CC-PVTZ AUX)
    Blend: AUG-CC-PVTZ-JKFIT

    Orbital Energies [Eh]
    ---------------------

    Doubly Occupied:

       1A    -91.942115     2A    -11.259165     3A    -11.258798
       4A    -11.240738     5A     -8.942699     6A     -6.623515
       7A     -6.623187     8A     -6.621865     9A     -1.134299
      10A     -0.919708    11A     -0.906598    12A     -0.757745
      13A     -0.654642    14A     -0.623176    15A     -0.563922
      16A     -0.513241    17A     -0.505473    18A     -0.463111
      19A     -0.412245    20A     -0.335900

  @DF-RHF Final Energy:  -514.65741936851759

   => Energetics <=

    Nuclear Repulsion Energy =            164.9987132098535483
    One-Electron Energy =               -1034.7079809514029876
    Two-Electron Energy =                 355.0518483730317598
    Total Energy =                       -514.6574193685175942
  Basis Set: (AUG-CC-PVTZ AUX)
    Blend: AUG-CC-PVTZ-RI
    Molecular point group: c1

    Geometry (in Angstrom), charge = 0, multiplicity = 1:

       Center              X                  Y                   Z               Mass
    ------------   -----------------  -----------------  -----------------  -----------------
         S           -1.014729930308     0.001998232309    -0.067411696616    31.972071174400
         C            1.398840069692     0.001998232309    -0.177315696616    12.000000000000
         C            0.401449369692     1.123897632309     0.155656603384    12.000000000000
         C            0.417008069692    -1.132226767691     0.158107303384    12.000000000000
         H            1.620505069692     0.001998232309    -1.247541696616     1.007825032230
         H            2.341866069692     0.001998232309     0.379134303384     1.007825032230
         H            0.493529069692     1.469351232309     1.196446303384     1.007825032230
         H            0.420355069692     2.003133232309    -0.505296696616     1.007825032230
         H            0.420355069692    -1.999136767691    -0.505296696616     1.007825032230
         H            0.493529069692    -1.465354767691     1.196446303384     1.007825032230

  Basis Set: AUG-CC-PVTZ
    Blend: AUG-CC-PVTZ
  Basis Set: (AUG-CC-PVTZ AUX)
    Blend: AUG-CC-PVTZ-JKFIT
	 Reference Energy          =    -514.6574193685175942 [Eh]
	 Singles Energy            =      -0.0000000000000000 [Eh]
	 Same-Spin Energy          =      -0.1810598565538550 [Eh]
	 Opposite-Spin Energy      =      -0.6166696947838369 [Eh]
	 Correlation Energy        =      -0.7977295513376919 [Eh]
	 Total Energy              =    -515.4551489198553327 [Eh]

	 ================> DF-SCS-MP2 Energies <==================
	-----------------------------------------------------------
	 SCS Same-Spin Scale       =       0.3333333333333333 [-]
	 SCS Opposite-Spin Scale   =       1.2000000000000000 [-]
	 SCS Same-Spin Energy      =      -0.0603532855179517 [Eh]
	 SCS Opposite-Spin Energy  =      -0.7400036337406043 [Eh]
	 SCS Correlation Energy    =      -0.8003569192585559 [Eh]
	 SCS Total Energy          =    -515.4577762877761415 [Eh]
	-----------------------------------------------------------

  Dipole Moment: [D]
     X:     1.9207      Y:    -0.0227      Z:     0.2453     Total:     1.9365

*** Psi4 exiting successfully. Buy a developer a beer!
