                               Psi4 1.4a3.dev225

  ==> Input File <==

--------------------------------------------------------------------------
#psi4
#
memory 32 gb

molecule  {
0 1
  S       -1.0885200     0.0000000    -0.0741290
  C        1.3250500     0.0000000    -0.1840330
  C        0.3821147     1.1650391     0.1575168
  C        0.3432180    -1.1342250     0.1513900
  H        1.5467150     0.0000000    -1.2542590
  H        2.2680760     0.0000000     0.3724170
  H        0.4197390     1.4673530     1.1897290
  H        0.3465650     2.0011350    -0.5120140
  H        0.3465650    -2.0011350    -0.5120140
  H        0.4197390    -1.4673530     1.1897290
units angstrom
no_reorient  #important for SAPT in psi4, default
symmetry c1  #important for SAPT in psi4, default
}

set PROPERTIES_ORIGIN ["COM"]
properties('MP2/aug-cc-pvtz', properties = ['dipole'])
--------------------------------------------------------------------------

    Molecular point group: c1
  Charge       = 0
  Multiplicity = 1
  Basis Set: AUG-CC-PVTZ
    Blend: AUG-CC-PVTZ
  Basis Set: (AUG-CC-PVTZ AUX)
    Blend: AUG-CC-PVTZ-JKFIT

    Orbital Energies [Eh]
    ---------------------

    Doubly Occupied:

       1A    -91.941044     2A    -11.259960     3A    -11.258527
       4A    -11.242411     5A     -8.940806     6A     -6.621559
       7A     -6.621199     8A     -6.619948     9A     -1.127377
      10A     -0.923946    11A     -0.901271    12A     -0.762147
      13A     -0.658830    14A     -0.618911    15A     -0.573378
      16A     -0.513979    17A     -0.507792    18A     -0.460216
      19A     -0.402702    20A     -0.335849

  @DF-RHF Final Energy:  -514.65680737018226

   => Energetics <=

    Nuclear Repulsion Energy =            163.9398630885433761
    One-Electron Energy =               -1032.6096362276912259
    Two-Electron Energy =                 354.0129657689656710
    Total Energy =                       -514.6568073701821504
  Basis Set: (AUG-CC-PVTZ AUX)
    Blend: AUG-CC-PVTZ-RI
    Molecular point group: c1

    Geometry (in Angstrom), charge = 0, multiplicity = 1:

       Center              X                  Y                   Z               Mass
    ------------   -----------------  -----------------  -----------------  -----------------
         S           -1.023558266430    -0.004995596985    -0.068802285117    31.972071174400
         C            1.390011733570    -0.004995596985    -0.178706285117    12.000000000000
         C            0.447076433570     1.160043503015     0.162843514883    12.000000000000
         C            0.408179733570    -1.139220596985     0.156716714883    12.000000000000
         H            1.611676733570    -0.004995596985    -1.248932285117     1.007825032230
         H            2.333037733570    -0.004995596985     0.377743714883     1.007825032230
         H            0.484700733570     1.462357403015     1.195055714883     1.007825032230
         H            0.411526733570     1.996139403015    -0.506687285117     1.007825032230
         H            0.411526733570    -2.006130596985    -0.506687285117     1.007825032230
         H            0.484700733570    -1.472348596985     1.195055714883     1.007825032230

  Basis Set: AUG-CC-PVTZ
    Blend: AUG-CC-PVTZ
  Basis Set: (AUG-CC-PVTZ AUX)
    Blend: AUG-CC-PVTZ-JKFIT
	 Reference Energy          =    -514.6568073701822641 [Eh]
	 Singles Energy            =      -0.0000000000000000 [Eh]
	 Same-Spin Energy          =      -0.1807493123481358 [Eh]
	 Opposite-Spin Energy      =      -0.6166917335617836 [Eh]
	 Correlation Energy        =      -0.7974410459099194 [Eh]
	 Total Energy              =    -515.4542484160921276 [Eh]

	 ================> DF-SCS-MP2 Energies <==================
	-----------------------------------------------------------
	 SCS Same-Spin Scale       =       0.3333333333333333 [-]
	 SCS Opposite-Spin Scale   =       1.2000000000000000 [-]
	 SCS Same-Spin Energy      =      -0.0602497707827119 [Eh]
	 SCS Opposite-Spin Energy  =      -0.7400300802741403 [Eh]
	 SCS Correlation Energy    =      -0.8002798510568522 [Eh]
	 SCS Total Energy          =    -515.4570872212391350 [Eh]
	-----------------------------------------------------------

  Dipole Moment: [D]
     X:     1.9804      Y:     0.0508      Z:     0.2538     Total:     1.9973

*** Psi4 exiting successfully. Buy a developer a beer!
