                               Psi4 1.3.2 release

  ==> Input File <==

--------------------------------------------------------------------------
#psi4
#
memory 32 gb

molecule  {
0 1
  S       -1.0885200     0.0000000    -0.0741290
  C        1.3250500     0.0000000    -0.1840330
  C        0.3432180     1.1342250     0.1513900
  C        0.3432180    -1.1342250     0.1513900
  H        1.5467150     0.0000000    -1.2542590
  H        2.2680760     0.0000000     0.3724170
  H        0.4202643     1.4854496     1.1837091
  H        0.3465650     2.0011350    -0.5120140
  H        0.3465650    -2.0011350    -0.5120140
  H        0.4197390    -1.4673530     1.1897290
units angstrom
no_reorient  #important for SAPT in psi4, default
symmetry c1  #important for SAPT in psi4, default
}

set PROPERTIES_ORIGIN ["COM"]
properties('MP2/aug-cc-pvtz', properties = ['dipole'])
--------------------------------------------------------------------------

    Molecular point group: c1
  Charge       = 0
  Multiplicity = 1
  Basis Set: AUG-CC-PVTZ
    Blend: AUG-CC-PVTZ
  Basis Set: (AUG-CC-PVTZ AUX)
    Blend: AUG-CC-PVTZ-JKFIT

    Orbital Energies [Eh]
    ---------------------

    Doubly Occupied:

       1A    -91.942031     2A    -11.258972     3A    -11.258851
       4A    -11.241271     5A     -8.942331     6A     -6.623124
       7A     -6.622795     8A     -6.621493     9A     -1.132047
      10A     -0.920723    11A     -0.905241    12A     -0.759492
      13A     -0.655100    14A     -0.622253    15A     -0.565876
      16A     -0.512951    17A     -0.505972    18A     -0.463028
      19A     -0.409908    20A     -0.336040

  @DF-RHF Final Energy:  -514.65793082312757

   => Energetics <=

    Nuclear Repulsion Energy =            164.6691201402407785
    One-Electron Energy =               -1034.0551037600089330
    Two-Electron Energy =                 354.7280527966406112
    Total Energy =                       -514.6579308231275718
  Basis Set: (AUG-CC-PVTZ AUX)
    Blend: AUG-CC-PVTZ-RI
    Molecular point group: c1

    Geometry (in Angstrom), charge = 0, multiplicity = 1:

       Center              X                  Y                   Z               Mass
    ------------   -----------------  -----------------  -----------------  -----------------
         S           -1.017259466731    -0.000246398914    -0.067727039803    31.972071174400
         C            1.396310533269    -0.000246398914    -0.177631039803    12.000000000000
         C            0.414478533269     1.133978601086     0.157791960197    12.000000000000
         C            0.414478533269    -1.134471398914     0.157791960197    12.000000000000
         H            1.617975533269    -0.000246398914    -1.247857039803     1.007825032230
         H            2.339336533269    -0.000246398914     0.378818960197     1.007825032230
         H            0.491524833269     1.485203201086     1.190111060197     1.007825032230
         H            0.417825533269     2.000888601086    -0.505612039803     1.007825032230
         H            0.417825533269    -2.001381398914    -0.505612039803     1.007825032230
         H            0.490999533269    -1.467599398914     1.196130960197     1.007825032230

  Basis Set: AUG-CC-PVTZ
    Blend: AUG-CC-PVTZ
  Basis Set: (AUG-CC-PVTZ AUX)
    Blend: AUG-CC-PVTZ-JKFIT
	 Reference Energy          =    -514.6579308231275718 [Eh]
	 Singles Energy            =      -0.0000000000000000 [Eh]
	 Same-Spin Energy          =      -0.1809274111975875 [Eh]
	 Opposite-Spin Energy      =      -0.6166018343733517 [Eh]
	 Correlation Energy        =      -0.7975292455709392 [Eh]
	 Total Energy              =    -515.4554600686984713 [Eh]

	 ================> DF-SCS-MP2 Energies <==================
	-----------------------------------------------------------
	 SCS Same-Spin Scale       =       0.3333333333333333 [-]
	 SCS Opposite-Spin Scale   =       1.2000000000000000 [-]
	 SCS Same-Spin Energy      =      -0.0603091370658625 [Eh]
	 SCS Opposite-Spin Energy  =      -0.7399222012480220 [Eh]
	 SCS Correlation Energy    =      -0.8002313383138845 [Eh]
	 SCS Total Energy          =    -515.4581621614414644 [Eh]
	-----------------------------------------------------------

  Dipole Moment: [D]
     X:     1.9364      Y:     0.0015      Z:     0.2460     Total:     1.9519

*** Psi4 exiting successfully. Buy a developer a beer!
