                               Psi4 1.3.2 release

  ==> Input File <==

--------------------------------------------------------------------------
#psi4
#
memory 32 gb

molecule  {
0 1
  S       -1.0681692    -0.0238351    -0.0811649
  C        1.3250500     0.0000000    -0.1840330
  C        0.3432180     1.1342250     0.1513900
  C        0.3432180    -1.1342250     0.1513900
  H        1.5467150     0.0000000    -1.2542590
  H        2.2680760     0.0000000     0.3724170
  H        0.4197390     1.4673530     1.1897290
  H        0.3465650     2.0011350    -0.5120140
  H        0.3465650    -2.0011350    -0.5120140
  H        0.4197390    -1.4673530     1.1897290
units angstrom
no_reorient  #important for SAPT in psi4, default
symmetry c1  #important for SAPT in psi4, default
}

set PROPERTIES_ORIGIN ["COM"]
properties('MP2/aug-cc-pvtz', properties = ['dipole'])
--------------------------------------------------------------------------

    Molecular point group: c1
  Charge       = 0
  Multiplicity = 1
  Basis Set: AUG-CC-PVTZ
    Blend: AUG-CC-PVTZ
  Basis Set: (AUG-CC-PVTZ AUX)
    Blend: AUG-CC-PVTZ-JKFIT

    Orbital Energies [Eh]
    ---------------------

    Doubly Occupied:

       1A    -91.941017     2A    -11.258932     3A    -11.256054
       4A    -11.241004     5A     -8.941830     6A     -6.622644
       7A     -6.622341     8A     -6.621001     9A     -1.136087
      10A     -0.922323    11A     -0.905248    12A     -0.758562
      13A     -0.656304    14A     -0.622306    15A     -0.566733
      16A     -0.514122    17A     -0.506323    18A     -0.466327
      19A     -0.409219    20A     -0.335285

  @DF-RHF Final Energy:  -514.65773539096767

   => Energetics <=

    Nuclear Repulsion Energy =            165.4200624728517539
    One-Electron Energy =               -1035.5482680421816895
    Two-Electron Energy =                 355.4704701783622340
    Total Energy =                       -514.6577353909676731
  Basis Set: (AUG-CC-PVTZ AUX)
    Blend: AUG-CC-PVTZ-RI
    Molecular point group: c1

    Geometry (in Angstrom), charge = 0, multiplicity = 1:

       Center              X                  Y                   Z               Mass
    ------------   -----------------  -----------------  -----------------  -----------------
         S           -1.005691920056    -0.013539671885    -0.071805790605    31.972071174400
         C            1.387527279944     0.010295428115    -0.174673890605    12.000000000000
         C            0.405695279944     1.144520428115     0.160749109395    12.000000000000
         C            0.405695279944    -1.123929571885     0.160749109395    12.000000000000
         H            1.609192279944     0.010295428115    -1.244899890605     1.007825032230
         H            2.330553279944     0.010295428115     0.381776109395     1.007825032230
         H            0.482216279944     1.477648428115     1.199088109395     1.007825032230
         H            0.409042279944     2.011430428115    -0.502654890605     1.007825032230
         H            0.409042279944    -1.990839571885    -0.502654890605     1.007825032230
         H            0.482216279944    -1.457057571885     1.199088109395     1.007825032230

  Basis Set: AUG-CC-PVTZ
    Blend: AUG-CC-PVTZ
  Basis Set: (AUG-CC-PVTZ AUX)
    Blend: AUG-CC-PVTZ-JKFIT
	 Reference Energy          =    -514.6577353909676731 [Eh]
	 Singles Energy            =      -0.0000000000000000 [Eh]
	 Same-Spin Energy          =      -0.1811082444421151 [Eh]
	 Opposite-Spin Energy      =      -0.6164768632994111 [Eh]
	 Correlation Energy        =      -0.7975851077415261 [Eh]
	 Total Energy              =    -515.4553204987091704 [Eh]

	 ================> DF-SCS-MP2 Energies <==================
	-----------------------------------------------------------
	 SCS Same-Spin Scale       =       0.3333333333333333 [-]
	 SCS Opposite-Spin Scale   =       1.2000000000000000 [-]
	 SCS Same-Spin Energy      =      -0.0603694148140384 [Eh]
	 SCS Opposite-Spin Energy  =      -0.7397722359592933 [Eh]
	 SCS Correlation Energy    =      -0.8001416507733317 [Eh]
	 SCS Total Energy          =    -515.4578770417409714 [Eh]
	-----------------------------------------------------------

  Dipole Moment: [D]
     X:     1.9135      Y:     0.0233      Z:     0.2487     Total:     1.9297

*** Psi4 exiting successfully. Buy a developer a beer!
