                               Psi4 1.3.2 release

  ==> Input File <==

--------------------------------------------------------------------------
#psi4
#
memory 32 gb

molecule  {
0 1
  S       -1.1279072     0.0486994    -0.0598533
  C        1.3250500     0.0000000    -0.1840330
  C        0.3432180     1.1342250     0.1513900
  C        0.3432180    -1.1342250     0.1513900
  H        1.5467150     0.0000000    -1.2542590
  H        2.2680760     0.0000000     0.3724170
  H        0.4197390     1.4673530     1.1897290
  H        0.3465650     2.0011350    -0.5120140
  H        0.3465650    -2.0011350    -0.5120140
  H        0.4197390    -1.4673530     1.1897290
units angstrom
no_reorient  #important for SAPT in psi4, default
symmetry c1  #important for SAPT in psi4, default
}

set PROPERTIES_ORIGIN ["COM"]
properties('MP2/aug-cc-pvtz', properties = ['dipole'])
--------------------------------------------------------------------------

    Molecular point group: c1
  Charge       = 0
  Multiplicity = 1
  Basis Set: AUG-CC-PVTZ
    Blend: AUG-CC-PVTZ
  Basis Set: (AUG-CC-PVTZ AUX)
    Blend: AUG-CC-PVTZ-JKFIT

    Orbital Energies [Eh]
    ---------------------

    Doubly Occupied:

       1A    -91.943256     2A    -11.264811     3A    -11.258960
       4A    -11.241661     5A     -8.942732     6A     -6.623503
       7A     -6.623088     8A     -6.621859     9A     -1.125368
      10A     -0.920382    11A     -0.902547    12A     -0.760087
      13A     -0.654915    14A     -0.621508    15A     -0.566744
      16A     -0.511298    17A     -0.506045    18A     -0.455296
      19A     -0.409937    20A     -0.336914

  @DF-RHF Final Energy:  -514.65625658697957

   => Energetics <=

    Nuclear Repulsion Energy =            163.3028889758647892
    One-Electron Energy =               -1031.3364697024408088
    Two-Electron Energy =                 353.3773241395964533
    Total Energy =                       -514.6562565869795662
  Basis Set: (AUG-CC-PVTZ AUX)
    Blend: AUG-CC-PVTZ-RI
    Molecular point group: c1

    Geometry (in Angstrom), charge = 0, multiplicity = 1:

       Center              X                  Y                   Z               Mass
    ------------   -----------------  -----------------  -----------------  -----------------
         S           -1.039626450184     0.027663987019    -0.059699608070    31.972071174400
         C            1.413330749816    -0.021035412981    -0.183879308070    12.000000000000
         C            0.431498749816     1.113189587019     0.151543691930    12.000000000000
         C            0.431498749816    -1.155260412981     0.151543691930    12.000000000000
         H            1.634995749816    -0.021035412981    -1.254105308070     1.007825032230
         H            2.356356749816    -0.021035412981     0.372570691930     1.007825032230
         H            0.508019749816     1.446317587019     1.189882691930     1.007825032230
         H            0.434845749816     1.980099587019    -0.511860308070     1.007825032230
         H            0.434845749816    -2.022170412981    -0.511860308070     1.007825032230
         H            0.508019749816    -1.488388412981     1.189882691930     1.007825032230

  Basis Set: AUG-CC-PVTZ
    Blend: AUG-CC-PVTZ
  Basis Set: (AUG-CC-PVTZ AUX)
    Blend: AUG-CC-PVTZ-JKFIT
	 Reference Energy          =    -514.6562565869795662 [Eh]
	 Singles Energy            =      -0.0000000000000000 [Eh]
	 Same-Spin Energy          =      -0.1806922009853866 [Eh]
	 Opposite-Spin Energy      =      -0.6170487926740030 [Eh]
	 Correlation Energy        =      -0.7977409936593897 [Eh]
	 Total Energy              =    -515.4539975806389975 [Eh]

	 ================> DF-SCS-MP2 Energies <==================
	-----------------------------------------------------------
	 SCS Same-Spin Scale       =       0.3333333333333333 [-]
	 SCS Opposite-Spin Scale   =       1.2000000000000000 [-]
	 SCS Same-Spin Energy      =      -0.0602307336617955 [Eh]
	 SCS Opposite-Spin Energy  =      -0.7404585512088037 [Eh]
	 SCS Correlation Energy    =      -0.8006892848705992 [Eh]
	 SCS Total Energy          =    -515.4569458718501664 [Eh]
	-----------------------------------------------------------

  Dipole Moment: [D]
     X:     1.9935      Y:    -0.0493      Z:     0.2456     Total:     2.0091

*** Psi4 exiting successfully. Buy a developer a beer!
