                               Psi4 1.3.2 release

  ==> Input File <==

--------------------------------------------------------------------------
#psi4
#
memory 32 gb

molecule  {
0 1
  S       -1.0885200     0.0000000    -0.0741290
  C        1.3250500     0.0000000    -0.1840330
  C        0.2615744     1.2325664     0.1385300
  C        0.3432180    -1.1342250     0.1513900
  H        1.5467150     0.0000000    -1.2542590
  H        2.2680760     0.0000000     0.3724170
  H        0.4197390     1.4673530     1.1897290
  H        0.3465650     2.0011350    -0.5120140
  H        0.3465650    -2.0011350    -0.5120140
  H        0.4197390    -1.4673530     1.1897290
units angstrom
no_reorient  #important for SAPT in psi4, default
symmetry c1  #important for SAPT in psi4, default
}

set PROPERTIES_ORIGIN ["COM"]
properties('MP2/aug-cc-pvtz', properties = ['dipole'])
--------------------------------------------------------------------------

    Molecular point group: c1
  Charge       = 0
  Multiplicity = 1
  Basis Set: AUG-CC-PVTZ
    Blend: AUG-CC-PVTZ
  Basis Set: (AUG-CC-PVTZ AUX)
    Blend: AUG-CC-PVTZ-JKFIT

    Orbital Energies [Eh]
    ---------------------

    Doubly Occupied:

       1A    -91.944646     2A    -11.258901     3A    -11.256927
       4A    -11.247210     5A     -8.944417     6A     -6.625228
       7A     -6.624923     8A     -6.623654     9A     -1.117649
      10A     -0.928203    11A     -0.897429    12A     -0.766003
      13A     -0.659380    14A     -0.610256    15A     -0.577946
      16A     -0.512705    17A     -0.498496    18A     -0.468441
      19A     -0.399119    20A     -0.336226

  @DF-RHF Final Energy:  -514.64504245165142

   => Energetics <=

    Nuclear Repulsion Energy =            163.4717125418532930
    One-Electron Energy =               -1031.6379925634566916
    Two-Electron Energy =                 353.5212375699519498
    Total Energy =                       -514.6450424516514204
  Basis Set: (AUG-CC-PVTZ AUX)
    Blend: AUG-CC-PVTZ-RI
    Molecular point group: c1

    Geometry (in Angstrom), charge = 0, multiplicity = 1:

       Center              X                  Y                   Z               Mass
    ------------   -----------------  -----------------  -----------------  -----------------
         S           -1.004016213951    -0.015943155937    -0.065724135801    31.972071174400
         C            1.409553786049    -0.015943155937    -0.175628135801    12.000000000000
         C            0.346078186049     1.216623244063     0.146934864199    12.000000000000
         C            0.427721786049    -1.150168155937     0.159794864199    12.000000000000
         H            1.631218786049    -0.015943155937    -1.245854135801     1.007825032230
         H            2.352579786049    -0.015943155937     0.380821864199     1.007825032230
         H            0.504242786049     1.451409844063     1.198133864199     1.007825032230
         H            0.431068786049     1.985191844063    -0.503609135801     1.007825032230
         H            0.431068786049    -2.017078155937    -0.503609135801     1.007825032230
         H            0.504242786049    -1.483296155937     1.198133864199     1.007825032230

  Basis Set: AUG-CC-PVTZ
    Blend: AUG-CC-PVTZ
  Basis Set: (AUG-CC-PVTZ AUX)
    Blend: AUG-CC-PVTZ-JKFIT
	 Reference Energy          =    -514.6450424516514204 [Eh]
	 Singles Energy            =      -0.0000000000000000 [Eh]
	 Same-Spin Energy          =      -0.1805524196545618 [Eh]
	 Opposite-Spin Energy      =      -0.6170889909935268 [Eh]
	 Correlation Energy        =      -0.7976414106480885 [Eh]
	 Total Energy              =    -515.4426838622995319 [Eh]

	 ================> DF-SCS-MP2 Energies <==================
	-----------------------------------------------------------
	 SCS Same-Spin Scale       =       0.3333333333333333 [-]
	 SCS Opposite-Spin Scale   =       1.2000000000000000 [-]
	 SCS Same-Spin Energy      =      -0.0601841398848539 [Eh]
	 SCS Opposite-Spin Energy  =      -0.7405067891922321 [Eh]
	 SCS Correlation Energy    =      -0.8006909290770861 [Eh]
	 SCS Total Energy          =    -515.4457333807284840 [Eh]
	-----------------------------------------------------------

  Dipole Moment: [D]
     X:     1.9649      Y:    -0.0019      Z:     0.2226     Total:     1.9775

*** Psi4 exiting successfully. Buy a developer a beer!
