                               Psi4 1.3.2 release

  ==> Input File <==

--------------------------------------------------------------------------
#psi4
#
memory 32 gb

molecule  {
0 1
  S       -1.0885200     0.0000000    -0.0741290
  C        1.3250500     0.0000000    -0.1840330
  C        0.4988050     1.2574812     0.1758971
  C        0.3432180    -1.1342250     0.1513900
  H        1.5467150     0.0000000    -1.2542590
  H        2.2680760     0.0000000     0.3724170
  H        0.4197390     1.4673530     1.1897290
  H        0.3465650     2.0011350    -0.5120140
  H        0.3465650    -2.0011350    -0.5120140
  H        0.4197390    -1.4673530     1.1897290
units angstrom
no_reorient  #important for SAPT in psi4, default
symmetry c1  #important for SAPT in psi4, default
}

set PROPERTIES_ORIGIN ["COM"]
properties('MP2/aug-cc-pvtz', properties = ['dipole'])
--------------------------------------------------------------------------

    Molecular point group: c1
  Charge       = 0
  Multiplicity = 1
  Basis Set: AUG-CC-PVTZ
    Blend: AUG-CC-PVTZ
  Basis Set: (AUG-CC-PVTZ AUX)
    Blend: AUG-CC-PVTZ-JKFIT

    Orbital Energies [Eh]
    ---------------------

    Doubly Occupied:

       1A    -91.937085     2A    -11.267932     3A    -11.257937
       4A    -11.248113     5A     -8.935923     6A     -6.616585
       7A     -6.616124     8A     -6.614953     9A     -1.116201
      10A     -0.935628    11A     -0.891561    12A     -0.769421
      13A     -0.671447    14A     -0.609375    15A     -0.591393
      16A     -0.524092    17A     -0.511982    18A     -0.451236
      19A     -0.375869    20A     -0.333495

  @DF-RHF Final Energy:  -514.63656592321729

   => Energetics <=

    Nuclear Repulsion Energy =            161.7622393593614447
    One-Electron Energy =               -1028.2449071918745176
    Two-Electron Energy =                 351.8461019092957827
    Total Energy =                       -514.6365659232171765
  Basis Set: (AUG-CC-PVTZ AUX)
    Blend: AUG-CC-PVTZ-RI
    Molecular point group: c1

    Geometry (in Angstrom), charge = 0, multiplicity = 1:

       Center              X                  Y                   Z               Mass
    ------------   -----------------  -----------------  -----------------  -----------------
         S           -1.042476155023    -0.019982355517    -0.071782108356    31.972071174400
         C            1.371093844977    -0.019982355517    -0.181686108356    12.000000000000
         C            0.544848844977     1.237498844483     0.178243991644    12.000000000000
         C            0.389261844977    -1.154207355517     0.153736891644    12.000000000000
         H            1.592758844977    -0.019982355517    -1.251912108356     1.007825032230
         H            2.314119844977    -0.019982355517     0.374763891644     1.007825032230
         H            0.465782844977     1.447370644483     1.192075891644     1.007825032230
         H            0.392608844977     1.981152644483    -0.509667108356     1.007825032230
         H            0.392608844977    -2.021117355517    -0.509667108356     1.007825032230
         H            0.465782844977    -1.487335355517     1.192075891644     1.007825032230

  Basis Set: AUG-CC-PVTZ
    Blend: AUG-CC-PVTZ
  Basis Set: (AUG-CC-PVTZ AUX)
    Blend: AUG-CC-PVTZ-JKFIT
	 Reference Energy          =    -514.6365659232172902 [Eh]
	 Singles Energy            =      -0.0000000000000000 [Eh]
	 Same-Spin Energy          =      -0.1808211230038041 [Eh]
	 Opposite-Spin Energy      =      -0.6182270808189063 [Eh]
	 Correlation Energy        =      -0.7990482038227104 [Eh]
	 Total Energy              =    -515.4356141270400258 [Eh]

	 ================> DF-SCS-MP2 Energies <==================
	-----------------------------------------------------------
	 SCS Same-Spin Scale       =       0.3333333333333333 [-]
	 SCS Opposite-Spin Scale   =       1.2000000000000000 [-]
	 SCS Same-Spin Energy      =      -0.0602737076679347 [Eh]
	 SCS Opposite-Spin Energy  =      -0.7418724969826875 [Eh]
	 SCS Correlation Energy    =      -0.8021462046506223 [Eh]
	 SCS Total Energy          =    -515.4387121278679160 [Eh]
	-----------------------------------------------------------

  Dipole Moment: [D]
     X:     2.0801      Y:     0.1393      Z:     0.2616     Total:     2.1011

*** Psi4 exiting successfully. Buy a developer a beer!
