                               Psi4 1.3.2 release

  ==> Input File <==

--------------------------------------------------------------------------
#psi4
#
memory 32 gb

molecule  {
0 1
  S       -1.0885200     0.0000000    -0.0741290
  C        1.3250500     0.0000000    -0.1840330
  C        0.3432180     1.1342250     0.1513900
  C        0.3432180    -1.1342250     0.1513900
  H        1.6573698     0.0000000    -1.2252259
  H        2.2680760     0.0000000     0.3724170
  H        0.4197390     1.4673530     1.1897290
  H        0.3465650     2.0011350    -0.5120140
  H        0.3465650    -2.0011350    -0.5120140
  H        0.4197390    -1.4673530     1.1897290
units angstrom
no_reorient  #important for SAPT in psi4, default
symmetry c1  #important for SAPT in psi4, default
}

set PROPERTIES_ORIGIN ["COM"]
properties('MP2/aug-cc-pvtz', properties = ['dipole'])
--------------------------------------------------------------------------

    Molecular point group: c1
  Charge       = 0
  Multiplicity = 1
  Basis Set: AUG-CC-PVTZ
    Blend: AUG-CC-PVTZ
  Basis Set: (AUG-CC-PVTZ AUX)
    Blend: AUG-CC-PVTZ-JKFIT

    Orbital Energies [Eh]
    ---------------------

    Doubly Occupied:

       1A    -91.941933     2A    -11.259530     3A    -11.259530
       4A    -11.240859     5A     -8.942255     6A     -6.623046
       7A     -6.622720     8A     -6.621411     9A     -1.131319
      10A     -0.920711    11A     -0.906491    12A     -0.760016
      13A     -0.653054    14A     -0.624412    15A     -0.566613
      16A     -0.512939    17A     -0.503039    18A     -0.462654
      19A     -0.410550    20A     -0.336004

  @DF-RHF Final Energy:  -514.65677237877867

   => Energetics <=

    Nuclear Repulsion Energy =            164.5456779395574358
    One-Electron Energy =               -1033.8067334520233089
    Two-Electron Energy =                 354.6042831336871473
    Total Energy =                       -514.6567723787786690
  Basis Set: (AUG-CC-PVTZ AUX)
    Blend: AUG-CC-PVTZ-RI
    Molecular point group: c1

    Geometry (in Angstrom), charge = 0, multiplicity = 1:

       Center              X                  Y                   Z               Mass
    ------------   -----------------  -----------------  -----------------  -----------------
         S           -1.018758963277    -0.000000000000    -0.068204312944    31.972071174400
         C            1.394811036723    -0.000000000000    -0.178108312944    12.000000000000
         C            0.412979036723     1.134225000000     0.157314687056    12.000000000000
         C            0.412979036723    -1.134225000000     0.157314687056    12.000000000000
         H            1.727130836723    -0.000000000000    -1.219301212944     1.007825032230
         H            2.337837036723    -0.000000000000     0.378341687056     1.007825032230
         H            0.489500036723     1.467353000000     1.195653687056     1.007825032230
         H            0.416326036723     2.001135000000    -0.506089312944     1.007825032230
         H            0.416326036723    -2.001135000000    -0.506089312944     1.007825032230
         H            0.489500036723    -1.467353000000     1.195653687056     1.007825032230

  Basis Set: AUG-CC-PVTZ
    Blend: AUG-CC-PVTZ
  Basis Set: (AUG-CC-PVTZ AUX)
    Blend: AUG-CC-PVTZ-JKFIT
	 Reference Energy          =    -514.6567723787786690 [Eh]
	 Singles Energy            =      -0.0000000000000000 [Eh]
	 Same-Spin Energy          =      -0.1808610903099106 [Eh]
	 Opposite-Spin Energy      =      -0.6164950836927154 [Eh]
	 Correlation Energy        =      -0.7973561740026260 [Eh]
	 Total Energy              =    -515.4541285527812988 [Eh]

	 ================> DF-SCS-MP2 Energies <==================
	-----------------------------------------------------------
	 SCS Same-Spin Scale       =       0.3333333333333333 [-]
	 SCS Opposite-Spin Scale   =       1.2000000000000000 [-]
	 SCS Same-Spin Energy      =      -0.0602870301033035 [Eh]
	 SCS Opposite-Spin Energy  =      -0.7397941004312585 [Eh]
	 SCS Correlation Energy    =      -0.8000811305345620 [Eh]
	 SCS Total Energy          =    -515.4568535093131914 [Eh]
	-----------------------------------------------------------

  Dipole Moment: [D]
     X:     1.9612      Y:     0.0000      Z:     0.2421     Total:     1.9761

*** Psi4 exiting successfully. Buy a developer a beer!
