                               Psi4 1.3.2 release

  ==> Input File <==

--------------------------------------------------------------------------
#psi4
#
memory 32 gb

molecule  {
0 1
  S       -1.0885200     0.0000000    -0.0741290
  C        1.3250500     0.0000000    -0.1840330
  C        0.3432180     1.1342250     0.1513900
  C        0.3432180    -1.1342250     0.1513900
  H        1.5653593     0.0000000    -1.2502274
  H        2.2680760     0.0000000     0.3724170
  H        0.4197390     1.4673530     1.1897290
  H        0.3465650     2.0011350    -0.5120140
  H        0.3465650    -2.0011350    -0.5120140
  H        0.4197390    -1.4673530     1.1897290
units angstrom
no_reorient  #important for SAPT in psi4, default
symmetry c1  #important for SAPT in psi4, default
}

set PROPERTIES_ORIGIN ["COM"]
properties('MP2/aug-cc-pvtz', properties = ['dipole'])
--------------------------------------------------------------------------

    Molecular point group: c1
  Charge       = 0
  Multiplicity = 1
  Basis Set: AUG-CC-PVTZ
    Blend: AUG-CC-PVTZ
  Basis Set: (AUG-CC-PVTZ AUX)
    Blend: AUG-CC-PVTZ-JKFIT

    Orbital Energies [Eh]
    ---------------------

    Doubly Occupied:

       1A    -91.941877     2A    -11.259044     3A    -11.259043
       4A    -11.241097     5A     -8.942194     6A     -6.622987
       7A     -6.622659     8A     -6.621355     9A     -1.132020
      10A     -0.920635    11A     -0.905405    12A     -0.759204
      13A     -0.655207    14A     -0.622347    15A     -0.566605
      16A     -0.512945    17A     -0.505824    18A     -0.462529
      19A     -0.409973    20A     -0.335974

  @DF-RHF Final Energy:  -514.65794811791841

   => Energetics <=

    Nuclear Repulsion Energy =            164.6663400552133112
    One-Electron Energy =               -1034.0507253724133534
    Two-Electron Energy =                 354.7264371992815200
    Total Energy =                       -514.6579481179185223
  Basis Set: (AUG-CC-PVTZ AUX)
    Blend: AUG-CC-PVTZ-RI
    Molecular point group: c1

    Geometry (in Angstrom), charge = 0, multiplicity = 1:

       Center              X                  Y                   Z               Mass
    ------------   -----------------  -----------------  -----------------  -----------------
         S           -1.017506170638    -0.000000000000    -0.067863898587    31.972071174400
         C            1.396063829362    -0.000000000000    -0.177767898587    12.000000000000
         C            0.414231829362     1.134225000000     0.157655101413    12.000000000000
         C            0.414231829362    -1.134225000000     0.157655101413    12.000000000000
         H            1.636373129362    -0.000000000000    -1.243962298587     1.007825032230
         H            2.339089829362    -0.000000000000     0.378682101413     1.007825032230
         H            0.490752829362     1.467353000000     1.195994101413     1.007825032230
         H            0.417578829362     2.001135000000    -0.505748898587     1.007825032230
         H            0.417578829362    -2.001135000000    -0.505748898587     1.007825032230
         H            0.490752829362    -1.467353000000     1.195994101413     1.007825032230

  Basis Set: AUG-CC-PVTZ
    Blend: AUG-CC-PVTZ
  Basis Set: (AUG-CC-PVTZ AUX)
    Blend: AUG-CC-PVTZ-JKFIT
	 Reference Energy          =    -514.6579481179184086 [Eh]
	 Singles Energy            =      -0.0000000000000000 [Eh]
	 Same-Spin Energy          =      -0.1809210152969589 [Eh]
	 Opposite-Spin Energy      =      -0.6165928115096441 [Eh]
	 Correlation Energy        =      -0.7975138268066029 [Eh]
	 Total Energy              =    -515.4554619447250161 [Eh]

	 ================> DF-SCS-MP2 Energies <==================
	-----------------------------------------------------------
	 SCS Same-Spin Scale       =       0.3333333333333333 [-]
	 SCS Opposite-Spin Scale   =       1.2000000000000000 [-]
	 SCS Same-Spin Energy      =      -0.0603070050989863 [Eh]
	 SCS Opposite-Spin Energy  =      -0.7399113738115729 [Eh]
	 SCS Correlation Energy    =      -0.8002183789105592 [Eh]
	 SCS Total Energy          =    -515.4581664968289942 [Eh]
	-----------------------------------------------------------

  Dipole Moment: [D]
     X:     1.9417      Y:    -0.0000      Z:     0.2465     Total:     1.9573

*** Psi4 exiting successfully. Buy a developer a beer!
