                               Psi4 1.3.2 release

  ==> Input File <==

--------------------------------------------------------------------------
#psi4
#
memory 32 gb

molecule  {
0 1
  S       -1.0732663    -0.0050690    -0.1363256
  C        1.3250500     0.0000000    -0.1840330
  C        0.3432180     1.1342250     0.1513900
  C        0.3432180    -1.1342250     0.1513900
  H        1.5467150     0.0000000    -1.2542590
  H        2.2680760     0.0000000     0.3724170
  H        0.4197390     1.4673530     1.1897290
  H        0.3465650     2.0011350    -0.5120140
  H        0.3465650    -2.0011350    -0.5120140
  H        0.4197390    -1.4673530     1.1897290
units angstrom
no_reorient  #important for SAPT in psi4, default
symmetry c1  #important for SAPT in psi4, default
}

set PROPERTIES_ORIGIN ["COM"]
properties('MP2/aug-cc-pvtz', properties = ['dipole'])
--------------------------------------------------------------------------

    Molecular point group: c1
  Charge       = 0
  Multiplicity = 1
  Basis Set: AUG-CC-PVTZ
    Blend: AUG-CC-PVTZ
  Basis Set: (AUG-CC-PVTZ AUX)
    Blend: AUG-CC-PVTZ-JKFIT

    Orbital Energies [Eh]
    ---------------------

    Doubly Occupied:

       1A    -91.942264     2A    -11.259021     3A    -11.258414
       4A    -11.240861     5A     -8.942647     6A     -6.623431
       7A     -6.623116     8A     -6.621802     9A     -1.133680
      10A     -0.920974    11A     -0.904191    12A     -0.760341
      13A     -0.655415    14A     -0.621806    15A     -0.567268
      16A     -0.512444    17A     -0.505558    18A     -0.463463
      19A     -0.410061    20A     -0.336220

  @DF-RHF Final Energy:  -514.65733396535245

   => Energetics <=

    Nuclear Repulsion Energy =            164.9690788096165477
    One-Electron Energy =               -1034.6468696522269965
    Two-Electron Energy =                 355.0204568772579705
    Total Energy =                       -514.6573339653524499
  Basis Set: (AUG-CC-PVTZ AUX)
    Blend: AUG-CC-PVTZ-RI
    Molecular point group: c1

    Geometry (in Angstrom), charge = 0, multiplicity = 1:

       Center              X                  Y                   Z               Mass
    ------------   -----------------  -----------------  -----------------  -----------------
         S           -1.008587358362    -0.002879475932    -0.103140157943    31.972071174400
         C            1.389728941638     0.002189524068    -0.150847557943    12.000000000000
         C            0.407896941638     1.136414524068     0.184575442057    12.000000000000
         C            0.407896941638    -1.132035475932     0.184575442057    12.000000000000
         H            1.611393941638     0.002189524068    -1.221073557943     1.007825032230
         H            2.332754941638     0.002189524068     0.405602442057     1.007825032230
         H            0.484417941638     1.469542524068     1.222914442057     1.007825032230
         H            0.411243941638     2.003324524068    -0.478828557943     1.007825032230
         H            0.411243941638    -1.998945475932    -0.478828557943     1.007825032230
         H            0.484417941638    -1.465163475932     1.222914442057     1.007825032230

  Basis Set: AUG-CC-PVTZ
    Blend: AUG-CC-PVTZ
  Basis Set: (AUG-CC-PVTZ AUX)
    Blend: AUG-CC-PVTZ-JKFIT
	 Reference Energy          =    -514.6573339653524499 [Eh]
	 Singles Energy            =      -0.0000000000000000 [Eh]
	 Same-Spin Energy          =      -0.1810980528053907 [Eh]
	 Opposite-Spin Energy      =      -0.6167116630364931 [Eh]
	 Correlation Energy        =      -0.7978097158418838 [Eh]
	 Total Energy              =    -515.4551436811943859 [Eh]

	 ================> DF-SCS-MP2 Energies <==================
	-----------------------------------------------------------
	 SCS Same-Spin Scale       =       0.3333333333333333 [-]
	 SCS Opposite-Spin Scale   =       1.2000000000000000 [-]
	 SCS Same-Spin Energy      =      -0.0603660176017969 [Eh]
	 SCS Opposite-Spin Energy  =      -0.7400539956437916 [Eh]
	 SCS Correlation Energy    =      -0.8004200132455885 [Eh]
	 SCS Total Energy          =    -515.4577539785980207 [Eh]
	-----------------------------------------------------------

  Dipole Moment: [D]
     X:     1.9083      Y:     0.0050      Z:     0.2914     Total:     1.9305

*** Psi4 exiting successfully. Buy a developer a beer!
