                               Psi4 1.3.2 release

  ==> Input File <==

--------------------------------------------------------------------------
#psi4
#
memory 32 gb

molecule  {
0 1
  S       -0.9600948    -0.1375781    -0.1152397
  C        1.3250500     0.0000000    -0.1840330
  C        0.3432180     1.1342250     0.1513900
  C        0.3432180    -1.1342250     0.1513900
  H        1.5467150     0.0000000    -1.2542590
  H        2.2680760     0.0000000     0.3724170
  H        0.4197390     1.4673530     1.1897290
  H        0.3465650     2.0011350    -0.5120140
  H        0.3465650    -2.0011350    -0.5120140
  H        0.4197390    -1.4673530     1.1897290
units angstrom
no_reorient  #important for SAPT in psi4, default
symmetry c1  #important for SAPT in psi4, default
}

set PROPERTIES_ORIGIN ["COM"]
properties('MP2/aug-cc-pvtz', properties = ['dipole'])
--------------------------------------------------------------------------

    Molecular point group: c1
  Charge       = 0
  Multiplicity = 1
  Basis Set: AUG-CC-PVTZ
    Blend: AUG-CC-PVTZ
  Basis Set: (AUG-CC-PVTZ AUX)
    Blend: AUG-CC-PVTZ-JKFIT

    Orbital Energies [Eh]
    ---------------------

    Doubly Occupied:

       1A    -91.935033     2A    -11.258427     3A    -11.242184
       4A    -11.241540     5A     -8.939287     6A     -6.620501
       7A     -6.619735     8A     -6.618366     9A     -1.161548
      10A     -0.940341    11A     -0.898531    12A     -0.756478
      13A     -0.661738    14A     -0.625043    15A     -0.569786
      16A     -0.524039    17A     -0.508139    18A     -0.484422
      19A     -0.402083    20A     -0.329115

  @DF-RHF Final Energy:  -514.64150356579989

   => Energetics <=

    Nuclear Repulsion Energy =            169.4250279158801220
    One-Electron Energy =               -1043.4603937836877776
    Two-Electron Energy =                 359.3938623020076761
    Total Energy =                       -514.6415035657998942
  Basis Set: (AUG-CC-PVTZ AUX)
    Blend: AUG-CC-PVTZ-RI
    Molecular point group: c1

    Geometry (in Angstrom), charge = 0, multiplicity = 1:

       Center              X                  Y                   Z               Mass
    ------------   -----------------  -----------------  -----------------  -----------------
         S           -0.944299607242    -0.078152067016    -0.091162185650    31.972071174400
         C            1.340845192758     0.059426032984    -0.159955485650    12.000000000000
         C            0.359013192758     1.193651032984     0.175467514350    12.000000000000
         C            0.359013192758    -1.074798967016     0.175467514350    12.000000000000
         H            1.562510192758     0.059426032984    -1.230181485650     1.007825032230
         H            2.283871192758     0.059426032984     0.396494514350     1.007825032230
         H            0.435534192758     1.526779032984     1.213806514350     1.007825032230
         H            0.362360192758     2.060561032984    -0.487936485650     1.007825032230
         H            0.362360192758    -1.941708967016    -0.487936485650     1.007825032230
         H            0.435534192758    -1.407926967016     1.213806514350     1.007825032230

  Basis Set: AUG-CC-PVTZ
    Blend: AUG-CC-PVTZ
  Basis Set: (AUG-CC-PVTZ AUX)
    Blend: AUG-CC-PVTZ-JKFIT
	 Reference Energy          =    -514.6415035657998942 [Eh]
	 Singles Energy            =      -0.0000000000000000 [Eh]
	 Same-Spin Energy          =      -0.1824004407395496 [Eh]
	 Opposite-Spin Energy      =      -0.6164686640841146 [Eh]
	 Correlation Energy        =      -0.7988691048236642 [Eh]
	 Total Energy              =    -515.4403726706235602 [Eh]

	 ================> DF-SCS-MP2 Energies <==================
	-----------------------------------------------------------
	 SCS Same-Spin Scale       =       0.3333333333333333 [-]
	 SCS Opposite-Spin Scale   =       1.2000000000000000 [-]
	 SCS Same-Spin Energy      =      -0.0608001469131832 [Eh]
	 SCS Opposite-Spin Energy  =      -0.7397623969009375 [Eh]
	 SCS Correlation Energy    =      -0.8005625438141207 [Eh]
	 SCS Total Energy          =    -515.4420661096139611 [Eh]
	-----------------------------------------------------------

  Dipole Moment: [D]
     X:     1.8297      Y:     0.1186      Z:     0.2444     Total:     1.8498

*** Psi4 exiting successfully. Buy a developer a beer!
