                               Psi4 1.3.2 release

  ==> Input File <==

--------------------------------------------------------------------------
#psi4
#
memory 32 gb

molecule  {
0 1
  S       -1.0885200     0.0000000    -0.0741290
  C        1.3250500     0.0000000    -0.1840330
  C        0.3514020     1.0846894     0.3042574
  C        0.3432180    -1.1342250     0.1513900
  H        1.5467150     0.0000000    -1.2542590
  H        2.2680760     0.0000000     0.3724170
  H        0.4197390     1.4673530     1.1897290
  H        0.3465650     2.0011350    -0.5120140
  H        0.3465650    -2.0011350    -0.5120140
  H        0.4197390    -1.4673530     1.1897290
units angstrom
no_reorient  #important for SAPT in psi4, default
symmetry c1  #important for SAPT in psi4, default
}

set PROPERTIES_ORIGIN ["COM"]
properties('MP2/aug-cc-pvtz', properties = ['dipole'])
--------------------------------------------------------------------------

    Molecular point group: c1
  Charge       = 0
  Multiplicity = 1
  Basis Set: AUG-CC-PVTZ
    Blend: AUG-CC-PVTZ
  Basis Set: (AUG-CC-PVTZ AUX)
    Blend: AUG-CC-PVTZ-JKFIT

    Orbital Energies [Eh]
    ---------------------

    Doubly Occupied:

       1A    -91.942969     2A    -11.260584     3A    -11.259597
       4A    -11.242405     5A     -8.943250     6A     -6.624018
       7A     -6.623673     8A     -6.622359     9A     -1.135410
      10A     -0.922350    11A     -0.906304    12A     -0.773638
      13A     -0.644404    14A     -0.629736    15A     -0.570634
      16A     -0.521336    17A     -0.502073    18A     -0.443574
      19A     -0.413771    20A     -0.336596

  @DF-RHF Final Energy:  -514.62885417030566

   => Energetics <=

    Nuclear Repulsion Energy =            164.9176044852709140
    One-Electron Energy =               -1034.4555584451190953
    Two-Electron Energy =                 354.9090997895426085
    Total Energy =                       -514.6288541703056580
  Basis Set: (AUG-CC-PVTZ AUX)
    Blend: AUG-CC-PVTZ-RI
    Molecular point group: c1

    Geometry (in Angstrom), charge = 0, multiplicity = 1:

       Center              X                  Y                   Z               Mass
    ------------   -----------------  -----------------  -----------------  -----------------
         S           -1.018579108462     0.008030735735    -0.092591943065    31.972071174400
         C            1.394990891538     0.008030735735    -0.202495943065    12.000000000000
         C            0.421342891538     1.092720135735     0.285794456935    12.000000000000
         C            0.413158891538    -1.126194264265     0.132927056935    12.000000000000
         H            1.616655891538     0.008030735735    -1.272721943065     1.007825032230
         H            2.338016891538     0.008030735735     0.353954056935     1.007825032230
         H            0.489679891538     1.475383735735     1.171266056935     1.007825032230
         H            0.416505891538     2.009165735735    -0.530476943065     1.007825032230
         H            0.416505891538    -1.993104264265    -0.530476943065     1.007825032230
         H            0.489679891538    -1.459322264265     1.171266056935     1.007825032230

  Basis Set: AUG-CC-PVTZ
    Blend: AUG-CC-PVTZ
  Basis Set: (AUG-CC-PVTZ AUX)
    Blend: AUG-CC-PVTZ-JKFIT
	 Reference Energy          =    -514.6288541703056580 [Eh]
	 Singles Energy            =      -0.0000000000000000 [Eh]
	 Same-Spin Energy          =      -0.1815144196959023 [Eh]
	 Opposite-Spin Energy      =      -0.6181262808679364 [Eh]
	 Correlation Energy        =      -0.7996407005638387 [Eh]
	 Total Energy              =    -515.4284948708694856 [Eh]

	 ================> DF-SCS-MP2 Energies <==================
	-----------------------------------------------------------
	 SCS Same-Spin Scale       =       0.3333333333333333 [-]
	 SCS Opposite-Spin Scale   =       1.2000000000000000 [-]
	 SCS Same-Spin Energy      =      -0.0605048065653008 [Eh]
	 SCS Opposite-Spin Energy  =      -0.7417515370415236 [Eh]
	 SCS Correlation Energy    =      -0.8022563436068244 [Eh]
	 SCS Total Energy          =    -515.4311105139124720 [Eh]
	-----------------------------------------------------------

  Dipole Moment: [D]
     X:     1.9266      Y:    -0.0950      Z:     0.3090     Total:     1.9535

*** Psi4 exiting successfully. Buy a developer a beer!
