                               Psi4 1.3.2 release

  ==> Input File <==

--------------------------------------------------------------------------
#psi4
#
memory 32 gb

molecule  {
0 1
  S       -1.0885200     0.0000000    -0.0741290
  C        1.3250500     0.0000000    -0.1840330
  C        0.3432180     1.1342250     0.1513900
  C        0.3432180    -1.1342250     0.1513900
  H        1.5467150     0.0000000    -1.2542590
  H        2.2680760     0.0000000     0.3724170
  H        0.4207661     1.5034392     1.1773748
  H        0.3465650     2.0011350    -0.5120140
  H        0.3465650    -2.0011350    -0.5120140
  H        0.4197390    -1.4673530     1.1897290
units angstrom
no_reorient  #important for SAPT in psi4, default
symmetry c1  #important for SAPT in psi4, default
}

set PROPERTIES_ORIGIN ["COM"]
properties('MP2/aug-cc-pvtz', properties = ['dipole'])
--------------------------------------------------------------------------

    Molecular point group: c1
  Charge       = 0
  Multiplicity = 1
  Basis Set: AUG-CC-PVTZ
    Blend: AUG-CC-PVTZ
  Basis Set: (AUG-CC-PVTZ AUX)
    Blend: AUG-CC-PVTZ-JKFIT

    Orbital Energies [Eh]
    ---------------------

    Doubly Occupied:

       1A    -91.942190     2A    -11.258992     3A    -11.258748
       4A    -11.241402     5A     -8.942473     6A     -6.623266
       7A     -6.622937     8A     -6.621635     9A     -1.131919
      10A     -0.920830    11A     -0.905271    12A     -0.759929
      13A     -0.654515    14A     -0.622538    15A     -0.565113
      16A     -0.512960    17A     -0.505767    18A     -0.463539
      19A     -0.409969    20A     -0.336091

  @DF-RHF Final Energy:  -514.65782740951590

   => Energetics <=

    Nuclear Repulsion Energy =            164.6465132647219889
    One-Electron Energy =               -1034.0085113925961195
    Two-Electron Energy =                 354.7041707183582275
    Total Energy =                       -514.6578274095159031
  Basis Set: (AUG-CC-PVTZ AUX)
    Blend: AUG-CC-PVTZ-RI
    Molecular point group: c1

    Geometry (in Angstrom), charge = 0, multiplicity = 1:

       Center              X                  Y                   Z               Mass
    ------------   -----------------  -----------------  -----------------  -----------------
         S           -1.017266299118    -0.000491340942    -0.067640793511    31.972071174400
         C            1.396303700882    -0.000491340942    -0.177544793511    12.000000000000
         C            0.414471700882     1.133733659058     0.157878206489    12.000000000000
         C            0.414471700882    -1.134716340942     0.157878206489    12.000000000000
         H            1.617968700882    -0.000491340942    -1.247770793511     1.007825032230
         H            2.339329700882    -0.000491340942     0.378905206489     1.007825032230
         H            0.492019800882     1.502947859058     1.183863006489     1.007825032230
         H            0.417818700882     2.000643659058    -0.505525793511     1.007825032230
         H            0.417818700882    -2.001626340942    -0.505525793511     1.007825032230
         H            0.490992700882    -1.467844340942     1.196217206489     1.007825032230

  Basis Set: AUG-CC-PVTZ
    Blend: AUG-CC-PVTZ
  Basis Set: (AUG-CC-PVTZ AUX)
    Blend: AUG-CC-PVTZ-JKFIT
	 Reference Energy          =    -514.6578274095159031 [Eh]
	 Singles Energy            =      -0.0000000000000000 [Eh]
	 Same-Spin Energy          =      -0.1809137250008976 [Eh]
	 Opposite-Spin Energy      =      -0.6165815065797898 [Eh]
	 Correlation Energy        =      -0.7974952315806874 [Eh]
	 Total Energy              =    -515.4553226410965863 [Eh]

	 ================> DF-SCS-MP2 Energies <==================
	-----------------------------------------------------------
	 SCS Same-Spin Scale       =       0.3333333333333333 [-]
	 SCS Opposite-Spin Scale   =       1.2000000000000000 [-]
	 SCS Same-Spin Energy      =      -0.0603045750002992 [Eh]
	 SCS Opposite-Spin Energy  =      -0.7398978078957478 [Eh]
	 SCS Correlation Energy    =      -0.8002023828960469 [Eh]
	 SCS Total Energy          =    -515.4580297924119350 [Eh]
	-----------------------------------------------------------

  Dipole Moment: [D]
     X:     1.9348      Y:     0.0030      Z:     0.2438     Total:     1.9501

*** Psi4 exiting successfully. Buy a developer a beer!
