                               Psi4 1.3.2 release

  ==> Input File <==

--------------------------------------------------------------------------
#psi4
#
memory 32 gb

molecule  {
0 1
  S       -1.0885200     0.0000000    -0.0741290
  C        1.3250500     0.0000000    -0.1840330
  C        0.3032440     1.1841171     0.1450935
  C        0.3432180    -1.1342250     0.1513900
  H        1.5467150     0.0000000    -1.2542590
  H        2.2680760     0.0000000     0.3724170
  H        0.4197390     1.4673530     1.1897290
  H        0.3465650     2.0011350    -0.5120140
  H        0.3465650    -2.0011350    -0.5120140
  H        0.4197390    -1.4673530     1.1897290
units angstrom
no_reorient  #important for SAPT in psi4, default
symmetry c1  #important for SAPT in psi4, default
}

set PROPERTIES_ORIGIN ["COM"]
properties('MP2/aug-cc-pvtz', properties = ['dipole'])
--------------------------------------------------------------------------

    Molecular point group: c1
  Charge       = 0
  Multiplicity = 1
  Basis Set: AUG-CC-PVTZ
    Blend: AUG-CC-PVTZ
  Basis Set: (AUG-CC-PVTZ AUX)
    Blend: AUG-CC-PVTZ-JKFIT

    Orbital Energies [Eh]
    ---------------------

    Doubly Occupied:

       1A    -91.943107     2A    -11.258745     3A    -11.257475
       4A    -11.244258     5A     -8.943164     6A     -6.623967
       7A     -6.623650     8A     -6.622366     9A     -1.124171
      10A     -0.924031    11A     -0.901138    12A     -0.762475
      13A     -0.657288    14A     -0.615306    15A     -0.572606
      16A     -0.510936    17A     -0.502435    18A     -0.467674
      19A     -0.405038    20A     -0.336292

  @DF-RHF Final Energy:  -514.65498150304836

   => Energetics <=

    Nuclear Repulsion Energy =            164.0649357838535138
    One-Electron Energy =               -1032.8475925874638506
    Two-Electron Energy =                 354.1276753005619753
    Total Energy =                       -514.6549815030482478
  Basis Set: (AUG-CC-PVTZ AUX)
    Blend: AUG-CC-PVTZ-RI
    Molecular point group: c1

    Geometry (in Angstrom), charge = 0, multiplicity = 1:

       Center              X                  Y                   Z               Mass
    ------------   -----------------  -----------------  -----------------  -----------------
         S           -1.010771709913    -0.008088531690    -0.066788213636    31.972071174400
         C            1.402798290087    -0.008088531690    -0.176692213636    12.000000000000
         C            0.380992290087     1.176028568310     0.152434286364    12.000000000000
         C            0.420966290087    -1.142313531690     0.158730786364    12.000000000000
         H            1.624463290087    -0.008088531690    -1.246918213636     1.007825032230
         H            2.345824290087    -0.008088531690     0.379757786364     1.007825032230
         H            0.497487290087     1.459264468310     1.197069786364     1.007825032230
         H            0.424313290087     1.993046468310    -0.504673213636     1.007825032230
         H            0.424313290087    -2.009223531690    -0.504673213636     1.007825032230
         H            0.497487290087    -1.475441531690     1.197069786364     1.007825032230

  Basis Set: AUG-CC-PVTZ
    Blend: AUG-CC-PVTZ
  Basis Set: (AUG-CC-PVTZ AUX)
    Blend: AUG-CC-PVTZ-JKFIT
	 Reference Energy          =    -514.6549815030483614 [Eh]
	 Singles Energy            =      -0.0000000000000000 [Eh]
	 Same-Spin Energy          =      -0.1806091819856725 [Eh]
	 Opposite-Spin Energy      =      -0.6165924973452778 [Eh]
	 Correlation Energy        =      -0.7972016793309502 [Eh]
	 Total Energy              =    -515.4521831823792581 [Eh]

	 ================> DF-SCS-MP2 Energies <==================
	-----------------------------------------------------------
	 SCS Same-Spin Scale       =       0.3333333333333333 [-]
	 SCS Opposite-Spin Scale   =       1.2000000000000000 [-]
	 SCS Same-Spin Energy      =      -0.0602030606618908 [Eh]
	 SCS Opposite-Spin Energy  =      -0.7399109968143333 [Eh]
	 SCS Correlation Energy    =      -0.8001140574762241 [Eh]
	 SCS Total Energy          =    -515.4550955605245690 [Eh]
	-----------------------------------------------------------

  Dipole Moment: [D]
     X:     1.9505      Y:     0.0086      Z:     0.2346     Total:     1.9646

*** Psi4 exiting successfully. Buy a developer a beer!
