                               Psi4 1.3.2 release

  ==> Input File <==

--------------------------------------------------------------------------
#psi4
#
memory 32 gb

molecule  {
0 1
  S       -1.0045627    -0.0931955    -0.1018391
  C        1.3250500     0.0000000    -0.1840330
  C        0.3432180     1.1342250     0.1513900
  C        0.3432180    -1.1342250     0.1513900
  H        1.5467150     0.0000000    -1.2542590
  H        2.2680760     0.0000000     0.3724170
  H        0.4197390     1.4673530     1.1897290
  H        0.3465650     2.0011350    -0.5120140
  H        0.3465650    -2.0011350    -0.5120140
  H        0.4197390    -1.4673530     1.1897290
units angstrom
no_reorient  #important for SAPT in psi4, default
symmetry c1  #important for SAPT in psi4, default
}

set PROPERTIES_ORIGIN ["COM"]
properties('MP2/aug-cc-pvtz', properties = ['dipole'])
--------------------------------------------------------------------------

    Molecular point group: c1
  Charge       = 0
  Multiplicity = 1
  Basis Set: AUG-CC-PVTZ
    Blend: AUG-CC-PVTZ
  Basis Set: (AUG-CC-PVTZ AUX)
    Blend: AUG-CC-PVTZ-JKFIT

    Orbital Energies [Eh]
    ---------------------

    Doubly Occupied:

       1A    -91.937771     2A    -11.258729     3A    -11.247514
       4A    -11.241121     5A     -8.940433     6A     -6.621425
       7A     -6.620971     8A     -6.619583     9A     -1.150074
      10A     -0.931992    11A     -0.901867    12A     -0.757194
      13A     -0.659005    14A     -0.623729    15A     -0.568037
      16A     -0.519243    17A     -0.507223    18A     -0.477607
      19A     -0.405614    20A     -0.332168

  @DF-RHF Final Energy:  -514.65153284394478

   => Energetics <=

    Nuclear Repulsion Energy =            167.7459975351509911
    One-Electron Energy =               -1040.1524615987800644
    Two-Electron Energy =                 357.7549312196842379
    Total Energy =                       -514.6515328439447785
  Basis Set: (AUG-CC-PVTZ AUX)
    Blend: AUG-CC-PVTZ-RI
    Molecular point group: c1

    Geometry (in Angstrom), charge = 0, multiplicity = 1:

       Center              X                  Y                   Z               Mass
    ------------   -----------------  -----------------  -----------------  -----------------
         S           -0.969559865240    -0.052940264196    -0.083549894237    31.972071174400
         C            1.360052834760     0.040255235804    -0.165743794237    12.000000000000
         C            0.378220834760     1.174480235804     0.169679205763    12.000000000000
         C            0.378220834760    -1.093969764196     0.169679205763    12.000000000000
         H            1.581717834760     0.040255235804    -1.235969794237     1.007825032230
         H            2.303078834760     0.040255235804     0.390706205763     1.007825032230
         H            0.454741834760     1.507608235804     1.208018205763     1.007825032230
         H            0.381567834760     2.041390235804    -0.493724794237     1.007825032230
         H            0.381567834760    -1.960879764196    -0.493724794237     1.007825032230
         H            0.454741834760    -1.427097764196     1.208018205763     1.007825032230

  Basis Set: AUG-CC-PVTZ
    Blend: AUG-CC-PVTZ
  Basis Set: (AUG-CC-PVTZ AUX)
    Blend: AUG-CC-PVTZ-JKFIT
	 Reference Energy          =    -514.6515328439447785 [Eh]
	 Singles Energy            =      -0.0000000000000000 [Eh]
	 Same-Spin Energy          =      -0.1817779141507583 [Eh]
	 Opposite-Spin Energy      =      -0.6163093002762527 [Eh]
	 Correlation Energy        =      -0.7980872144270110 [Eh]
	 Total Energy              =    -515.4496200583718064 [Eh]

	 ================> DF-SCS-MP2 Energies <==================
	-----------------------------------------------------------
	 SCS Same-Spin Scale       =       0.3333333333333333 [-]
	 SCS Opposite-Spin Scale   =       1.2000000000000000 [-]
	 SCS Same-Spin Energy      =      -0.0605926380502528 [Eh]
	 SCS Opposite-Spin Energy  =      -0.7395711603315033 [Eh]
	 SCS Correlation Energy    =      -0.8001637983817560 [Eh]
	 SCS Total Energy          =    -515.4516966423265103 [Eh]
	-----------------------------------------------------------

  Dipole Moment: [D]
     X:     1.8551      Y:     0.0854      Z:     0.2479     Total:     1.8736

*** Psi4 exiting successfully. Buy a developer a beer!
