                               Psi4 1.3.2 release

  ==> Input File <==

--------------------------------------------------------------------------
#psi4
#
memory 32 gb

molecule  {
0 1
  S       -1.0885200     0.0000000    -0.0741290
  C        1.3250500     0.0000000    -0.1840330
  C        0.3246355     1.1159446     0.1577383
  C        0.3432180    -1.1342250     0.1513900
  H        1.5467150     0.0000000    -1.2542590
  H        2.2680760     0.0000000     0.3724170
  H        0.4197390     1.4673530     1.1897290
  H        0.3465650     2.0011350    -0.5120140
  H        0.3465650    -2.0011350    -0.5120140
  H        0.4197390    -1.4673530     1.1897290
units angstrom
no_reorient  #important for SAPT in psi4, default
symmetry c1  #important for SAPT in psi4, default
}

set PROPERTIES_ORIGIN ["COM"]
properties('MP2/aug-cc-pvtz', properties = ['dipole'])
--------------------------------------------------------------------------

    Molecular point group: c1
  Charge       = 0
  Multiplicity = 1
  Basis Set: AUG-CC-PVTZ
    Blend: AUG-CC-PVTZ
  Basis Set: (AUG-CC-PVTZ AUX)
    Blend: AUG-CC-PVTZ-JKFIT

    Orbital Energies [Eh]
    ---------------------

    Doubly Occupied:

       1A    -91.942122     2A    -11.259209     3A    -11.258750
       4A    -11.240579     5A     -8.942786     6A     -6.623608
       7A     -6.623277     8A     -6.621950     9A     -1.135046
      10A     -0.919376    11A     -0.906929    12A     -0.757760
      13A     -0.653809    14A     -0.623580    15A     -0.563862
      16A     -0.513139    17A     -0.505927    18A     -0.462199
      19A     -0.413024    20A     -0.336000

  @DF-RHF Final Energy:  -514.65702697595725

   => Energetics <=

    Nuclear Repulsion Energy =            165.0926605965424017
    One-Electron Energy =               -1034.8935096991617684
    Two-Electron Energy =                 355.1438221266620872
    Total Energy =                       -514.6570269759572511
  Basis Set: (AUG-CC-PVTZ AUX)
    Blend: AUG-CC-PVTZ-RI
    Molecular point group: c1

    Geometry (in Angstrom), charge = 0, multiplicity = 1:

       Center              X                  Y                   Z               Mass
    ------------   -----------------  -----------------  -----------------  -----------------
         S           -1.014239710371     0.002963627402    -0.068838194806    31.972071174400
         C            1.399330289629     0.002963627402    -0.178742194806    12.000000000000
         C            0.398915789629     1.118908227402     0.163029105194    12.000000000000
         C            0.417498289629    -1.131261372598     0.156680805194    12.000000000000
         H            1.620995289629     0.002963627402    -1.248968194806     1.007825032230
         H            2.342356289629     0.002963627402     0.377707805194     1.007825032230
         H            0.494019289629     1.470316627402     1.195019805194     1.007825032230
         H            0.420845289629     2.004098627402    -0.506723194806     1.007825032230
         H            0.420845289629    -1.998171372598    -0.506723194806     1.007825032230
         H            0.494019289629    -1.464389372598     1.195019805194     1.007825032230

  Basis Set: AUG-CC-PVTZ
    Blend: AUG-CC-PVTZ
  Basis Set: (AUG-CC-PVTZ AUX)
    Blend: AUG-CC-PVTZ-JKFIT
	 Reference Energy          =    -514.6570269759572511 [Eh]
	 Singles Energy            =      -0.0000000000000000 [Eh]
	 Same-Spin Energy          =      -0.1811094756082535 [Eh]
	 Opposite-Spin Energy      =      -0.6167063531348866 [Eh]
	 Correlation Energy        =      -0.7978158287431401 [Eh]
	 Total Energy              =    -515.4548428047004336 [Eh]

	 ================> DF-SCS-MP2 Energies <==================
	-----------------------------------------------------------
	 SCS Same-Spin Scale       =       0.3333333333333333 [-]
	 SCS Opposite-Spin Scale   =       1.2000000000000000 [-]
	 SCS Same-Spin Energy      =      -0.0603698252027512 [Eh]
	 SCS Opposite-Spin Energy  =      -0.7400476237618639 [Eh]
	 SCS Correlation Energy    =      -0.8004174489646151 [Eh]
	 SCS Total Energy          =    -515.4574444249218459 [Eh]
	-----------------------------------------------------------

  Dipole Moment: [D]
     X:     1.9165      Y:    -0.0307      Z:     0.2500     Total:     1.9330

*** Psi4 exiting successfully. Buy a developer a beer!
