                               Psi4 1.3.2 release

  ==> Input File <==

--------------------------------------------------------------------------
#psi4
#
memory 32 gb

molecule  {
0 1
  S       -1.0885200     0.0000000    -0.0741290
  C        1.3250500     0.0000000    -0.1840330
  C        0.4178863     1.0303577     0.1631513
  C        0.3432180    -1.1342250     0.1513900
  H        1.5467150     0.0000000    -1.2542590
  H        2.2680760     0.0000000     0.3724170
  H        0.4197390     1.4673530     1.1897290
  H        0.3465650     2.0011350    -0.5120140
  H        0.3465650    -2.0011350    -0.5120140
  H        0.4197390    -1.4673530     1.1897290
units angstrom
no_reorient  #important for SAPT in psi4, default
symmetry c1  #important for SAPT in psi4, default
}

set PROPERTIES_ORIGIN ["COM"]
properties('MP2/aug-cc-pvtz', properties = ['dipole'])
--------------------------------------------------------------------------

    Molecular point group: c1
  Charge       = 0
  Multiplicity = 1
  Basis Set: AUG-CC-PVTZ
    Blend: AUG-CC-PVTZ
  Basis Set: (AUG-CC-PVTZ AUX)
    Blend: AUG-CC-PVTZ-JKFIT

    Orbital Energies [Eh]
    ---------------------

    Doubly Occupied:

       1A    -91.940216     2A    -11.264590     3A    -11.260804
       4A    -11.234462     5A     -8.940982     6A     -6.621744
       7A     -6.621405     8A     -6.620048     9A     -1.153703
      10A     -0.924932    11A     -0.906029    12A     -0.752280
      13A     -0.655490    14A     -0.639039    15A     -0.558390
      16A     -0.534428    17A     -0.495072    18A     -0.447120
      19A     -0.415074    20A     -0.334234

  @DF-RHF Final Energy:  -514.63891070388831

   => Energetics <=

    Nuclear Repulsion Energy =            166.0754160974650517
    One-Electron Energy =               -1036.7885707765360621
    Two-Electron Energy =                 356.0742439751828101
    Total Energy =                       -514.6389107038883139
  Basis Set: (AUG-CC-PVTZ AUX)
    Blend: AUG-CC-PVTZ-RI
    Molecular point group: c1

    Geometry (in Angstrom), charge = 0, multiplicity = 1:

       Center              X                  Y                   Z               Mass
    ------------   -----------------  -----------------  -----------------  -----------------
         S           -1.029357575743     0.016839017552    -0.069715753017    31.972071174400
         C            1.384212424257     0.016839017552    -0.179619753017    12.000000000000
         C            0.477048724257     1.047196717552     0.167564546983    12.000000000000
         C            0.402380424257    -1.117385982448     0.155803246983    12.000000000000
         H            1.605877424257     0.016839017552    -1.249845753017     1.007825032230
         H            2.327238424257     0.016839017552     0.376830246983     1.007825032230
         H            0.478901424257     1.484192017552     1.194142246983     1.007825032230
         H            0.405727424257     2.017974017552    -0.507600753017     1.007825032230
         H            0.405727424257    -1.984295982448    -0.507600753017     1.007825032230
         H            0.478901424257    -1.450513982448     1.194142246983     1.007825032230

  Basis Set: AUG-CC-PVTZ
    Blend: AUG-CC-PVTZ
  Basis Set: (AUG-CC-PVTZ AUX)
    Blend: AUG-CC-PVTZ-JKFIT
	 Reference Energy          =    -514.6389107038883139 [Eh]
	 Singles Energy            =      -0.0000000000000000 [Eh]
	 Same-Spin Energy          =      -0.1825462897348617 [Eh]
	 Opposite-Spin Energy      =      -0.6183604431340541 [Eh]
	 Correlation Energy        =      -0.8009067328689159 [Eh]
	 Total Energy              =    -515.4398174367572665 [Eh]

	 ================> DF-SCS-MP2 Energies <==================
	-----------------------------------------------------------
	 SCS Same-Spin Scale       =       0.3333333333333333 [-]
	 SCS Opposite-Spin Scale   =       1.2000000000000000 [-]
	 SCS Same-Spin Energy      =      -0.0608487632449539 [Eh]
	 SCS Opposite-Spin Energy  =      -0.7420325317608649 [Eh]
	 SCS Correlation Energy    =      -0.8028812950058188 [Eh]
	 SCS Total Energy          =    -515.4417919988941321 [Eh]
	-----------------------------------------------------------

  Dipole Moment: [D]
     X:     1.9218      Y:    -0.0787      Z:     0.2834     Total:     1.9442

*** Psi4 exiting successfully. Buy a developer a beer!
