                               Psi4 1.3.2 release

  ==> Input File <==

--------------------------------------------------------------------------
#psi4
#
memory 32 gb

molecule  {
0 1
  S       -1.0885200     0.0000000    -0.0741290
  C        1.3250500     0.0000000    -0.1840330
  C        0.3457911     1.1713337    -0.0051523
  C        0.3432180    -1.1342250     0.1513900
  H        1.5467150     0.0000000    -1.2542590
  H        2.2680760     0.0000000     0.3724170
  H        0.4197390     1.4673530     1.1897290
  H        0.3465650     2.0011350    -0.5120140
  H        0.3465650    -2.0011350    -0.5120140
  H        0.4197390    -1.4673530     1.1897290
units angstrom
no_reorient  #important for SAPT in psi4, default
symmetry c1  #important for SAPT in psi4, default
}

set PROPERTIES_ORIGIN ["COM"]
properties('MP2/aug-cc-pvtz', properties = ['dipole'])
--------------------------------------------------------------------------

    Molecular point group: c1
  Charge       = 0
  Multiplicity = 1
  Basis Set: AUG-CC-PVTZ
    Blend: AUG-CC-PVTZ
  Basis Set: (AUG-CC-PVTZ AUX)
    Blend: AUG-CC-PVTZ-JKFIT

    Orbital Energies [Eh]
    ---------------------

    Doubly Occupied:

       1A    -91.944258     2A    -11.262638     3A    -11.260257
       4A    -11.244063     5A     -8.944135     6A     -6.624917
       7A     -6.624598     8A     -6.623300     9A     -1.130593
      10A     -0.928010    11A     -0.905534    12A     -0.766079
      13A     -0.660160    14A     -0.626552    15A     -0.553780
      16A     -0.524891    17A     -0.494394    18A     -0.466713
      19A     -0.406510    20A     -0.332302

  @DF-RHF Final Energy:  -514.63105349986120

   => Energetics <=

    Nuclear Repulsion Energy =            164.3684085471708158
    One-Electron Energy =               -1033.3515581600154292
    Two-Electron Energy =                 354.3520961129834177
    Total Energy =                       -514.6310534998611956
  Basis Set: (AUG-CC-PVTZ AUX)
    Blend: AUG-CC-PVTZ-RI
    Molecular point group: c1

    Geometry (in Angstrom), charge = 0, multiplicity = 1:

       Center              X                  Y                   Z               Mass
    ------------   -----------------  -----------------  -----------------  -----------------
         S           -1.017669466606    -0.006016080621    -0.042430290947    31.972071174400
         C            1.395900533394    -0.006016080621    -0.152334290947    12.000000000000
         C            0.416641633394     1.165317619379     0.026546409053    12.000000000000
         C            0.414068533394    -1.140241080621     0.183088709053    12.000000000000
         H            1.617565533394    -0.006016080621    -1.222560290947     1.007825032230
         H            2.338926533394    -0.006016080621     0.404115709053     1.007825032230
         H            0.490589533394     1.461336919379     1.221427709053     1.007825032230
         H            0.417415533394     1.995118919379    -0.480315290947     1.007825032230
         H            0.417415533394    -2.007151080621    -0.480315290947     1.007825032230
         H            0.490589533394    -1.473369080621     1.221427709053     1.007825032230

  Basis Set: AUG-CC-PVTZ
    Blend: AUG-CC-PVTZ
  Basis Set: (AUG-CC-PVTZ AUX)
    Blend: AUG-CC-PVTZ-JKFIT
	 Reference Energy          =    -514.6310534998611956 [Eh]
	 Singles Energy            =      -0.0000000000000000 [Eh]
	 Same-Spin Energy          =      -0.1810737599731710 [Eh]
	 Opposite-Spin Energy      =      -0.6177562927397929 [Eh]
	 Correlation Energy        =      -0.7988300527129639 [Eh]
	 Total Energy              =    -515.4298835525742106 [Eh]

	 ================> DF-SCS-MP2 Energies <==================
	-----------------------------------------------------------
	 SCS Same-Spin Scale       =       0.3333333333333333 [-]
	 SCS Opposite-Spin Scale   =       1.2000000000000000 [-]
	 SCS Same-Spin Energy      =      -0.0603579199910570 [Eh]
	 SCS Opposite-Spin Energy  =      -0.7413075512877515 [Eh]
	 SCS Correlation Energy    =      -0.8016654712788085 [Eh]
	 SCS Total Energy          =    -515.4327189711400479 [Eh]
	-----------------------------------------------------------

  Dipole Moment: [D]
     X:     1.9286      Y:    -0.0312      Z:     0.1434     Total:     1.9342

*** Psi4 exiting successfully. Buy a developer a beer!
