                               Psi4 1.3.2 release

  ==> Input File <==

--------------------------------------------------------------------------
#psi4
#
memory 32 gb

molecule  {
0 1
  S       -1.0885200     0.0000000    -0.0741290
  C        1.3250500     0.0000000    -0.1840330
  C        0.3432180     1.1342250     0.1513900
  C        0.3432180    -1.1342250     0.1513900
  H        1.5467150     0.0000000    -1.2542590
  H        2.2680760     0.0000000     0.3724170
  H        0.4225358     1.5742187     1.1489329
  H        0.3465650     2.0011350    -0.5120140
  H        0.3465650    -2.0011350    -0.5120140
  H        0.4197390    -1.4673530     1.1897290
units angstrom
no_reorient  #important for SAPT in psi4, default
symmetry c1  #important for SAPT in psi4, default
}

set PROPERTIES_ORIGIN ["COM"]
properties('MP2/aug-cc-pvtz', properties = ['dipole'])
--------------------------------------------------------------------------

    Molecular point group: c1
  Charge       = 0
  Multiplicity = 1
  Basis Set: AUG-CC-PVTZ
    Blend: AUG-CC-PVTZ
  Basis Set: (AUG-CC-PVTZ AUX)
    Blend: AUG-CC-PVTZ-JKFIT

    Orbital Energies [Eh]
    ---------------------

    Doubly Occupied:

       1A    -91.942838     2A    -11.259092     3A    -11.258343
       4A    -11.241953     5A     -8.943049     6A     -6.623842
       7A     -6.623513     8A     -6.622211     9A     -1.131478
      10A     -0.921348    11A     -0.905404    12A     -0.761759
      13A     -0.652455    14A     -0.623706    15A     -0.561785
      16A     -0.513058    17A     -0.504775    18A     -0.465478
      19A     -0.410204    20A     -0.336185

  @DF-RHF Final Energy:  -514.65666993199386

   => Energetics <=

    Nuclear Repulsion Energy =            164.5617204182639171
    One-Electron Energy =               -1033.8318276857949058
    Two-Electron Energy =                 354.6134373355370712
    Total Energy =                       -514.6566699319939744
  Basis Set: (AUG-CC-PVTZ AUX)
    Blend: AUG-CC-PVTZ-RI
    Molecular point group: c1

    Geometry (in Angstrom), charge = 0, multiplicity = 1:

       Center              X                  Y                   Z               Mass
    ------------   -----------------  -----------------  -----------------  -----------------
         S           -1.017290394923    -0.001455057437    -0.067253535503    31.972071174400
         C            1.396279605077    -0.001455057437    -0.177157535503    12.000000000000
         C            0.414447605077     1.132769942563     0.158265464497    12.000000000000
         C            0.414447605077    -1.135680057437     0.158265464497    12.000000000000
         H            1.617944605077    -0.001455057437    -1.247383535503     1.007825032230
         H            2.339305605077    -0.001455057437     0.379292464497     1.007825032230
         H            0.493765405077     1.572763642563     1.155808364497     1.007825032230
         H            0.417794605077     1.999679942563    -0.505138535503     1.007825032230
         H            0.417794605077    -2.002590057437    -0.505138535503     1.007825032230
         H            0.490968605077    -1.468808057437     1.196604464497     1.007825032230

  Basis Set: AUG-CC-PVTZ
    Blend: AUG-CC-PVTZ
  Basis Set: (AUG-CC-PVTZ AUX)
    Blend: AUG-CC-PVTZ-JKFIT
	 Reference Energy          =    -514.6566699319938607 [Eh]
	 Singles Energy            =      -0.0000000000000000 [Eh]
	 Same-Spin Energy          =      -0.1808934526032487 [Eh]
	 Opposite-Spin Energy      =      -0.6165475867766665 [Eh]
	 Correlation Energy        =      -0.7974410393799153 [Eh]
	 Total Energy              =    -515.4541109713737796 [Eh]

	 ================> DF-SCS-MP2 Energies <==================
	-----------------------------------------------------------
	 SCS Same-Spin Scale       =       0.3333333333333333 [-]
	 SCS Opposite-Spin Scale   =       1.2000000000000000 [-]
	 SCS Same-Spin Energy      =      -0.0602978175344162 [Eh]
	 SCS Opposite-Spin Energy  =      -0.7398571041319998 [Eh]
	 SCS Correlation Energy    =      -0.8001549216664160 [Eh]
	 SCS Total Energy          =    -515.4568248536602368 [Eh]
	-----------------------------------------------------------

  Dipole Moment: [D]
     X:     1.9287      Y:     0.0098      Z:     0.2330     Total:     1.9427

*** Psi4 exiting successfully. Buy a developer a beer!
