                               Psi4 1.3.2 release

  ==> Input File <==

--------------------------------------------------------------------------
#psi4
#
memory 32 gb

molecule  {
0 1
  S       -1.0885200     0.0000000    -0.0741290
  C        1.3250500     0.0000000    -0.1840330
  C        0.3428794     1.1479983     0.0995335
  C        0.3432180    -1.1342250     0.1513900
  H        1.5467150     0.0000000    -1.2542590
  H        2.2680760     0.0000000     0.3724170
  H        0.4197390     1.4673530     1.1897290
  H        0.3465650     2.0011350    -0.5120140
  H        0.3465650    -2.0011350    -0.5120140
  H        0.4197390    -1.4673530     1.1897290
units angstrom
no_reorient  #important for SAPT in psi4, default
symmetry c1  #important for SAPT in psi4, default
}

set PROPERTIES_ORIGIN ["COM"]
properties('MP2/aug-cc-pvtz', properties = ['dipole'])
--------------------------------------------------------------------------

    Molecular point group: c1
  Charge       = 0
  Multiplicity = 1
  Basis Set: AUG-CC-PVTZ
    Blend: AUG-CC-PVTZ
  Basis Set: (AUG-CC-PVTZ AUX)
    Blend: AUG-CC-PVTZ-JKFIT

    Orbital Energies [Eh]
    ---------------------

    Doubly Occupied:

       1A    -91.942290     2A    -11.259584     3A    -11.259175
       4A    -11.241661     5A     -8.942509     6A     -6.623303
       7A     -6.622978     8A     -6.621678     9A     -1.131461
      10A     -0.922143    11A     -0.905163    12A     -0.758756
      13A     -0.658508    14A     -0.622503    15A     -0.562496
      16A     -0.516111    17A     -0.501843    18A     -0.466475
      19A     -0.408563    20A     -0.335122

  @DF-RHF Final Energy:  -514.65504660777935

   => Energetics <=

    Nuclear Repulsion Energy =            164.5955120551955702
    One-Electron Energy =               -1033.8964719315354159
    Two-Electron Energy =                 354.6459132685604914
    Total Energy =                       -514.6550466077794681
  Basis Set: (AUG-CC-PVTZ AUX)
    Blend: AUG-CC-PVTZ-RI
    Molecular point group: c1

    Geometry (in Angstrom), charge = 0, multiplicity = 1:

       Center              X                  Y                   Z               Mass
    ------------   -----------------  -----------------  -----------------  -----------------
         S           -1.017197420375    -0.002232934142    -0.059402004120    31.972071174400
         C            1.396372579625    -0.002232934142    -0.169306004120    12.000000000000
         C            0.414201979625     1.145765365858     0.114260495880    12.000000000000
         C            0.414540579625    -1.136457934142     0.166116995880    12.000000000000
         H            1.618037579625    -0.002232934142    -1.239532004120     1.007825032230
         H            2.339398579625    -0.002232934142     0.387143995880     1.007825032230
         H            0.491061579625     1.465120065858     1.204455995880     1.007825032230
         H            0.417887579625     1.998902065858    -0.497287004120     1.007825032230
         H            0.417887579625    -2.003367934142    -0.497287004120     1.007825032230
         H            0.491061579625    -1.469585934142     1.204455995880     1.007825032230

  Basis Set: AUG-CC-PVTZ
    Blend: AUG-CC-PVTZ
  Basis Set: (AUG-CC-PVTZ AUX)
    Blend: AUG-CC-PVTZ-JKFIT
	 Reference Energy          =    -514.6550466077793544 [Eh]
	 Singles Energy            =      -0.0000000000000000 [Eh]
	 Same-Spin Energy          =      -0.1809114669451524 [Eh]
	 Opposite-Spin Energy      =      -0.6167134443011275 [Eh]
	 Correlation Energy        =      -0.7976249112462799 [Eh]
	 Total Energy              =    -515.4526715190256709 [Eh]

	 ================> DF-SCS-MP2 Energies <==================
	-----------------------------------------------------------
	 SCS Same-Spin Scale       =       0.3333333333333333 [-]
	 SCS Opposite-Spin Scale   =       1.2000000000000000 [-]
	 SCS Same-Spin Energy      =      -0.0603038223150508 [Eh]
	 SCS Opposite-Spin Energy  =      -0.7400561331613530 [Eh]
	 SCS Correlation Energy    =      -0.8003599554764038 [Eh]
	 SCS Total Energy          =    -515.4554065632557922 [Eh]
	-----------------------------------------------------------

  Dipole Moment: [D]
     X:     1.9370      Y:     0.0038      Z:     0.2182     Total:     1.9493

*** Psi4 exiting successfully. Buy a developer a beer!
