                               Psi4 1.3.2 release

  ==> Input File <==

--------------------------------------------------------------------------
#psi4
#
memory 32 gb

molecule  {
0 1
  S       -1.0885200     0.0000000    -0.0741290
  C        1.3250500     0.0000000    -0.1840330
  C        0.3432180     1.1342250     0.1513900
  C        0.3432180    -1.1342250     0.1513900
  H        1.5839303     0.0000000    -1.2458711
  H        2.2680760     0.0000000     0.3724170
  H        0.4197390     1.4673530     1.1897290
  H        0.3465650     2.0011350    -0.5120140
  H        0.3465650    -2.0011350    -0.5120140
  H        0.4197390    -1.4673530     1.1897290
units angstrom
no_reorient  #important for SAPT in psi4, default
symmetry c1  #important for SAPT in psi4, default
}

set PROPERTIES_ORIGIN ["COM"]
properties('MP2/aug-cc-pvtz', properties = ['dipole'])
--------------------------------------------------------------------------

    Molecular point group: c1
  Charge       = 0
  Multiplicity = 1
  Basis Set: AUG-CC-PVTZ
    Blend: AUG-CC-PVTZ
  Basis Set: (AUG-CC-PVTZ AUX)
    Blend: AUG-CC-PVTZ-JKFIT

    Orbital Energies [Eh]
    ---------------------

    Doubly Occupied:

       1A    -91.941883     2A    -11.259136     3A    -11.259135
       4A    -11.241050     5A     -8.942201     6A     -6.622994
       7A     -6.622666     8A     -6.621361     9A     -1.131864
      10A     -0.920648    11A     -0.905606    12A     -0.759352
      13A     -0.654726    14A     -0.622736    15A     -0.566605
      16A     -0.512942    17A     -0.505412    18A     -0.462551
      19A     -0.410097    20A     -0.335973

  @DF-RHF Final Energy:  -514.65786181965052

   => Energetics <=

    Nuclear Repulsion Energy =            164.6409974621930701
    One-Electron Energy =               -1033.9998369030754475
    Two-Electron Energy =                 354.7009776212318570
    Total Energy =                       -514.6578618196504067
  Basis Set: (AUG-CC-PVTZ AUX)
    Blend: AUG-CC-PVTZ-RI
    Molecular point group: c1

    Geometry (in Angstrom), charge = 0, multiplicity = 1:

       Center              X                  Y                   Z               Mass
    ------------   -----------------  -----------------  -----------------  -----------------
         S           -1.017759028867    -0.000000000000    -0.067923212911    31.972071174400
         C            1.395810971133    -0.000000000000    -0.177827212911    12.000000000000
         C            0.413978971133     1.134225000000     0.157595787089    12.000000000000
         C            0.413978971133    -1.134225000000     0.157595787089    12.000000000000
         H            1.654691271133    -0.000000000000    -1.239665312911     1.007825032230
         H            2.338836971133    -0.000000000000     0.378622787089     1.007825032230
         H            0.490499971133     1.467353000000     1.195934787089     1.007825032230
         H            0.417325971133     2.001135000000    -0.505808212911     1.007825032230
         H            0.417325971133    -2.001135000000    -0.505808212911     1.007825032230
         H            0.490499971133    -1.467353000000     1.195934787089     1.007825032230

  Basis Set: AUG-CC-PVTZ
    Blend: AUG-CC-PVTZ
  Basis Set: (AUG-CC-PVTZ AUX)
    Blend: AUG-CC-PVTZ-JKFIT
	 Reference Energy          =    -514.6578618196505204 [Eh]
	 Singles Energy            =      -0.0000000000000000 [Eh]
	 Same-Spin Energy          =      -0.1809013492094932 [Eh]
	 Opposite-Spin Energy      =      -0.6165636144294785 [Eh]
	 Correlation Energy        =      -0.7974649636389717 [Eh]
	 Total Energy              =    -515.4553267832894790 [Eh]

	 ================> DF-SCS-MP2 Energies <==================
	-----------------------------------------------------------
	 SCS Same-Spin Scale       =       0.3333333333333333 [-]
	 SCS Opposite-Spin Scale   =       1.2000000000000000 [-]
	 SCS Same-Spin Energy      =      -0.0603004497364977 [Eh]
	 SCS Opposite-Spin Energy  =      -0.7398763373153742 [Eh]
	 SCS Correlation Energy    =      -0.8001767870518719 [Eh]
	 SCS Total Energy          =    -515.4580386067024165 [Eh]
	-----------------------------------------------------------

  Dipole Moment: [D]
     X:     1.9455      Y:    -0.0000      Z:     0.2453     Total:     1.9609

*** Psi4 exiting successfully. Buy a developer a beer!
