                               Psi4 1.3.2 release

  ==> Input File <==

--------------------------------------------------------------------------
#psi4
#
memory 32 gb

molecule  {
0 1
  S       -1.0885200     0.0000000    -0.0741290
  C        1.3250500     0.0000000    -0.1840330
  C        0.3432180     1.1342250     0.1513900
  C        0.3432180    -1.1342250     0.1513900
  H        1.4336316     0.0000000    -1.2715665
  H        2.2680760     0.0000000     0.3724170
  H        0.4197390     1.4673530     1.1897290
  H        0.3465650     2.0011350    -0.5120140
  H        0.3465650    -2.0011350    -0.5120140
  H        0.4197390    -1.4673530     1.1897290
units angstrom
no_reorient  #important for SAPT in psi4, default
symmetry c1  #important for SAPT in psi4, default
}

set PROPERTIES_ORIGIN ["COM"]
properties('MP2/aug-cc-pvtz', properties = ['dipole'])
--------------------------------------------------------------------------

    Molecular point group: c1
  Charge       = 0
  Multiplicity = 1
  Basis Set: AUG-CC-PVTZ
    Blend: AUG-CC-PVTZ
  Basis Set: (AUG-CC-PVTZ AUX)
    Blend: AUG-CC-PVTZ-JKFIT

    Orbital Energies [Eh]
    ---------------------

    Doubly Occupied:

       1A    -91.941916     2A    -11.258492     3A    -11.258491
       4A    -11.241422     5A     -8.942229     6A     -6.623025
       7A     -6.622693     8A     -6.621397     9A     -1.133364
      10A     -0.920584    11A     -0.904193    12A     -0.758366
      13A     -0.659215    14A     -0.620076    15A     -0.566645
      16A     -0.513000    17A     -0.506584    18A     -0.462443
      19A     -0.408996    20A     -0.336110

  @DF-RHF Final Energy:  -514.65644496377899

   => Energetics <=

    Nuclear Repulsion Energy =            164.8613788218569880
    One-Electron Energy =               -1034.4371731341529994
    Two-Electron Energy =                 354.9193493485170166
    Total Energy =                       -514.6564449637789949
  Basis Set: (AUG-CC-PVTZ AUX)
    Blend: AUG-CC-PVTZ-RI
    Molecular point group: c1

    Geometry (in Angstrom), charge = 0, multiplicity = 1:

       Center              X                  Y                   Z               Mass
    ------------   -----------------  -----------------  -----------------  -----------------
         S           -1.015712598242    -0.000000000000    -0.067573350580    31.972071174400
         C            1.397857401758    -0.000000000000    -0.177477350580    12.000000000000
         C            0.416025401758     1.134225000000     0.157945649420    12.000000000000
         C            0.416025401758    -1.134225000000     0.157945649420    12.000000000000
         H            1.506439001758    -0.000000000000    -1.265010850580     1.007825032230
         H            2.340883401758    -0.000000000000     0.378972649420     1.007825032230
         H            0.492546401758     1.467353000000     1.196284649420     1.007825032230
         H            0.419372401758     2.001135000000    -0.505458350580     1.007825032230
         H            0.419372401758    -2.001135000000    -0.505458350580     1.007825032230
         H            0.492546401758    -1.467353000000     1.196284649420     1.007825032230

  Basis Set: AUG-CC-PVTZ
    Blend: AUG-CC-PVTZ
  Basis Set: (AUG-CC-PVTZ AUX)
    Blend: AUG-CC-PVTZ-JKFIT
	 Reference Energy          =    -514.6564449637789949 [Eh]
	 Singles Energy            =      -0.0000000000000000 [Eh]
	 Same-Spin Energy          =      -0.1811697863946512 [Eh]
	 Opposite-Spin Energy      =      -0.6169357881470301 [Eh]
	 Correlation Energy        =      -0.7981055745416813 [Eh]
	 Total Energy              =    -515.4545505383206319 [Eh]

	 ================> DF-SCS-MP2 Energies <==================
	-----------------------------------------------------------
	 SCS Same-Spin Scale       =       0.3333333333333333 [-]
	 SCS Opposite-Spin Scale   =       1.2000000000000000 [-]
	 SCS Same-Spin Energy      =      -0.0603899287982171 [Eh]
	 SCS Opposite-Spin Energy  =      -0.7403229457764361 [Eh]
	 SCS Correlation Energy    =      -0.8007128745746531 [Eh]
	 SCS Total Energy          =    -515.4571578383536234 [Eh]
	-----------------------------------------------------------

  Dipole Moment: [D]
     X:     1.9162      Y:     0.0000      Z:     0.2610     Total:     1.9339

*** Psi4 exiting successfully. Buy a developer a beer!
