                               Psi4 1.3.2 release

  ==> Input File <==

--------------------------------------------------------------------------
#psi4
#
memory 32 gb

molecule  {
0 1
  S       -1.0885200     0.0000000    -0.0741290
  C        1.3250500     0.0000000    -0.1840330
  C        0.4524896     0.9765090     0.1686018
  C        0.3432180    -1.1342250     0.1513900
  H        1.5467150     0.0000000    -1.2542590
  H        2.2680760     0.0000000     0.3724170
  H        0.4197390     1.4673530     1.1897290
  H        0.3465650     2.0011350    -0.5120140
  H        0.3465650    -2.0011350    -0.5120140
  H        0.4197390    -1.4673530     1.1897290
units angstrom
no_reorient  #important for SAPT in psi4, default
symmetry c1  #important for SAPT in psi4, default
}

set PROPERTIES_ORIGIN ["COM"]
properties('MP2/aug-cc-pvtz', properties = ['dipole'])
--------------------------------------------------------------------------

    Molecular point group: c1
  Charge       = 0
  Multiplicity = 1
  Basis Set: AUG-CC-PVTZ
    Blend: AUG-CC-PVTZ
  Basis Set: (AUG-CC-PVTZ AUX)
    Blend: AUG-CC-PVTZ-JKFIT

    Orbital Energies [Eh]
    ---------------------

    Doubly Occupied:

       1A    -91.939700     2A    -11.268637     3A    -11.262688
       4A    -11.231058     5A     -8.940666     6A     -6.621404
       7A     -6.621070     8A     -6.619675     9A     -1.167736
      10A     -0.932864    11A     -0.902673    12A     -0.748917
      13A     -0.657362    14A     -0.648551    15A     -0.559527
      16A     -0.543954    17A     -0.486870    18A     -0.439783
      19A     -0.413780    20A     -0.332647

  @DF-RHF Final Energy:  -514.61458005269560

   => Energetics <=

    Nuclear Repulsion Energy =            166.8443256921468389
    One-Electron Energy =               -1038.2386881467812145
    Two-Electron Energy =                 356.7797824019387463
    Total Energy =                       -514.6145800526956009
  Basis Set: (AUG-CC-PVTZ AUX)
    Blend: AUG-CC-PVTZ-RI
    Molecular point group: c1

    Geometry (in Angstrom), charge = 0, multiplicity = 1:

       Center              X                  Y                   Z               Mass
    ------------   -----------------  -----------------  -----------------  -----------------
         S           -1.034967479688     0.025568995172    -0.070599390747    31.972071174400
         C            1.378602520312     0.025568995172    -0.180503390747    12.000000000000
         C            0.506042120312     1.002077995172     0.172131409253    12.000000000000
         C            0.396770520312    -1.108656004828     0.154919609253    12.000000000000
         H            1.600267520312     0.025568995172    -1.250729390747     1.007825032230
         H            2.321628520312     0.025568995172     0.375946609253     1.007825032230
         H            0.473291520312     1.492921995172     1.193258609253     1.007825032230
         H            0.400117520312     2.026703995172    -0.508484390747     1.007825032230
         H            0.400117520312    -1.975566004828    -0.508484390747     1.007825032230
         H            0.473291520312    -1.441784004828     1.193258609253     1.007825032230

  Basis Set: AUG-CC-PVTZ
    Blend: AUG-CC-PVTZ
  Basis Set: (AUG-CC-PVTZ AUX)
    Blend: AUG-CC-PVTZ-JKFIT
	 Reference Energy          =    -514.6145800526956009 [Eh]
	 Singles Energy            =      -0.0000000000000000 [Eh]
	 Same-Spin Energy          =      -0.1838633495865228 [Eh]
	 Opposite-Spin Energy      =      -0.6201044522192428 [Eh]
	 Correlation Energy        =      -0.8039678018057657 [Eh]
	 Total Energy              =    -515.4185478545014121 [Eh]

	 ================> DF-SCS-MP2 Energies <==================
	-----------------------------------------------------------
	 SCS Same-Spin Scale       =       0.3333333333333333 [-]
	 SCS Opposite-Spin Scale   =       1.2000000000000000 [-]
	 SCS Same-Spin Energy      =      -0.0612877831955076 [Eh]
	 SCS Opposite-Spin Energy  =      -0.7441253426630914 [Eh]
	 SCS Correlation Energy    =      -0.8054131258585990 [Eh]
	 SCS Total Energy          =    -515.4199931785542503 [Eh]
	-----------------------------------------------------------

  Dipole Moment: [D]
     X:     1.9231      Y:    -0.1546      Z:     0.3070     Total:     1.9536

*** Psi4 exiting successfully. Buy a developer a beer!
