                               Psi4 1.3.2 release

  ==> Input File <==

--------------------------------------------------------------------------
#psi4
#
memory 32 gb

molecule  {
0 1
  S       -1.0885200     0.0000000    -0.0741290
  C        1.3250500     0.0000000    -0.1840330
  C        0.1876310     1.0109688     0.1268829
  C        0.3432180    -1.1342250     0.1513900
  H        1.5467150     0.0000000    -1.2542590
  H        2.2680760     0.0000000     0.3724170
  H        0.4197390     1.4673530     1.1897290
  H        0.3465650     2.0011350    -0.5120140
  H        0.3465650    -2.0011350    -0.5120140
  H        0.4197390    -1.4673530     1.1897290
units angstrom
no_reorient  #important for SAPT in psi4, default
symmetry c1  #important for SAPT in psi4, default
}

set PROPERTIES_ORIGIN ["COM"]
properties('MP2/aug-cc-pvtz', properties = ['dipole'])
--------------------------------------------------------------------------

    Molecular point group: c1
  Charge       = 0
  Multiplicity = 1
  Basis Set: AUG-CC-PVTZ
    Blend: AUG-CC-PVTZ
  Basis Set: (AUG-CC-PVTZ AUX)
    Blend: AUG-CC-PVTZ-JKFIT

    Orbital Energies [Eh]
    ---------------------

    Doubly Occupied:

       1A    -91.941990     2A    -11.263161     3A    -11.262397
       4A    -11.239690     5A     -8.946505     6A     -6.627886
       7A     -6.626874     8A     -6.625532     9A     -1.159821
      10A     -0.936945    11A     -0.899928    12A     -0.744059
      13A     -0.649113    14A     -0.633709    15A     -0.544309
      16A     -0.534540    17A     -0.499867    18A     -0.462758
      19A     -0.416712    20A     -0.330445

  @DF-RHF Final Energy:  -514.61990005304426

   => Energetics <=

    Nuclear Repulsion Energy =            167.9566843481789817
    One-Electron Energy =               -1040.4606863732199145
    Two-Electron Energy =                 357.8841019719966425
    Total Energy =                       -514.6199000530442618
  Basis Set: (AUG-CC-PVTZ AUX)
    Blend: AUG-CC-PVTZ-RI
    Molecular point group: c1

    Geometry (in Angstrom), charge = 0, multiplicity = 1:

       Center              X                  Y                   Z               Mass
    ------------   -----------------  -----------------  -----------------  -----------------
         S           -0.992028473724     0.019982355517    -0.063835902244    31.972071174400
         C            1.421541526276     0.019982355517    -0.173739902244    12.000000000000
         C            0.284122526276     1.030951155517     0.137175997756    12.000000000000
         C            0.439709526276    -1.114242644483     0.161683097756    12.000000000000
         H            1.643206526276     0.019982355517    -1.243965902244     1.007825032230
         H            2.364567526276     0.019982355517     0.382710097756     1.007825032230
         H            0.516230526276     1.487335355517     1.200022097756     1.007825032230
         H            0.443056526276     2.021117355517    -0.501720902244     1.007825032230
         H            0.443056526276    -1.981152644483    -0.501720902244     1.007825032230
         H            0.516230526276    -1.447370644483     1.200022097756     1.007825032230

  Basis Set: AUG-CC-PVTZ
    Blend: AUG-CC-PVTZ
  Basis Set: (AUG-CC-PVTZ AUX)
    Blend: AUG-CC-PVTZ-JKFIT
	 Reference Energy          =    -514.6199000530442618 [Eh]
	 Singles Energy            =      -0.0000000000000000 [Eh]
	 Same-Spin Energy          =      -0.1832809591045794 [Eh]
	 Opposite-Spin Energy      =      -0.6191178152854550 [Eh]
	 Correlation Energy        =      -0.8023987743900344 [Eh]
	 Total Energy              =    -515.4222988274342470 [Eh]

	 ================> DF-SCS-MP2 Energies <==================
	-----------------------------------------------------------
	 SCS Same-Spin Scale       =       0.3333333333333333 [-]
	 SCS Opposite-Spin Scale   =       1.2000000000000000 [-]
	 SCS Same-Spin Energy      =      -0.0610936530348598 [Eh]
	 SCS Opposite-Spin Energy  =      -0.7429413783425459 [Eh]
	 SCS Correlation Energy    =      -0.8040350313774057 [Eh]
	 SCS Total Energy          =    -515.4239350844217142 [Eh]
	-----------------------------------------------------------

  Dipole Moment: [D]
     X:     1.7617      Y:    -0.2938      Z:     0.2031     Total:     1.7975

*** Psi4 exiting successfully. Buy a developer a beer!
