                               Psi4 1.3.2 release

  ==> Input File <==

--------------------------------------------------------------------------
#psi4
#
memory 32 gb

molecule  {
0 1
  S       -1.0885200     0.0000000    -0.0741290
  C        1.3250500     0.0000000    -0.1840330
  C        0.2182599     1.2795141     0.1317073
  C        0.3432180    -1.1342250     0.1513900
  H        1.5467150     0.0000000    -1.2542590
  H        2.2680760     0.0000000     0.3724170
  H        0.4197390     1.4673530     1.1897290
  H        0.3465650     2.0011350    -0.5120140
  H        0.3465650    -2.0011350    -0.5120140
  H        0.4197390    -1.4673530     1.1897290
units angstrom
no_reorient  #important for SAPT in psi4, default
symmetry c1  #important for SAPT in psi4, default
}

set PROPERTIES_ORIGIN ["COM"]
properties('MP2/aug-cc-pvtz', properties = ['dipole'])
--------------------------------------------------------------------------

    Molecular point group: c1
  Charge       = 0
  Multiplicity = 1
  Basis Set: AUG-CC-PVTZ
    Blend: AUG-CC-PVTZ
  Basis Set: (AUG-CC-PVTZ AUX)
    Blend: AUG-CC-PVTZ-JKFIT

    Orbital Energies [Eh]
    ---------------------

    Doubly Occupied:

       1A    -91.946488     2A    -11.259365     3A    -11.257295
       4A    -11.250068     5A     -8.945949     6A     -6.626767
       7A     -6.626471     8A     -6.625214     9A     -1.112396
      10A     -0.932557    11A     -0.894531    12A     -0.769709
      13A     -0.661423    14A     -0.607021    15A     -0.581648
      16A     -0.514105    17A     -0.499936    18A     -0.464304
      19A     -0.392300    20A     -0.335693

  @DF-RHF Final Energy:  -514.62918468799580

   => Energetics <=

    Nuclear Repulsion Energy =            162.9062522256049306
    One-Electron Energy =               -1030.4643966063351854
    Two-Electron Energy =                 352.9289596927344519
    Total Energy =                       -514.6291846879958030
  Basis Set: (AUG-CC-PVTZ AUX)
    Blend: AUG-CC-PVTZ-RI
    Molecular point group: c1

    Geometry (in Angstrom), charge = 0, multiplicity = 1:

       Center              X                  Y                   Z               Mass
    ------------   -----------------  -----------------  -----------------  -----------------
         S           -0.996994045995    -0.023554340057    -0.064618036335    31.972071174400
         C            1.416575954005    -0.023554340057    -0.174522036335    12.000000000000
         C            0.309785854005     1.255959759943     0.141218263665    12.000000000000
         C            0.434743954005    -1.157779340057     0.160900963665    12.000000000000
         H            1.638240954005    -0.023554340057    -1.244748036335     1.007825032230
         H            2.359601954005    -0.023554340057     0.381927963665     1.007825032230
         H            0.511264954005     1.443798659943     1.199239963665     1.007825032230
         H            0.438090954005     1.977580659943    -0.502503036335     1.007825032230
         H            0.438090954005    -2.024689340057    -0.502503036335     1.007825032230
         H            0.511264954005    -1.490907340057     1.199239963665     1.007825032230

  Basis Set: AUG-CC-PVTZ
    Blend: AUG-CC-PVTZ
  Basis Set: (AUG-CC-PVTZ AUX)
    Blend: AUG-CC-PVTZ-JKFIT
	 Reference Energy          =    -514.6291846879958030 [Eh]
	 Singles Energy            =      -0.0000000000000000 [Eh]
	 Same-Spin Energy          =      -0.1807518672340095 [Eh]
	 Opposite-Spin Energy      =      -0.6181034341275737 [Eh]
	 Correlation Energy        =      -0.7988553013615832 [Eh]
	 Total Energy              =    -515.4280399893573303 [Eh]

	 ================> DF-SCS-MP2 Energies <==================
	-----------------------------------------------------------
	 SCS Same-Spin Scale       =       0.3333333333333333 [-]
	 SCS Opposite-Spin Scale   =       1.2000000000000000 [-]
	 SCS Same-Spin Energy      =      -0.0602506224113365 [Eh]
	 SCS Opposite-Spin Energy  =      -0.7417241209530885 [Eh]
	 SCS Correlation Energy    =      -0.8019747433644250 [Eh]
	 SCS Total Energy          =    -515.4311594313602427 [Eh]
	-----------------------------------------------------------

  Dipole Moment: [D]
     X:     1.9821      Y:    -0.0316      Z:     0.2110     Total:     1.9936

*** Psi4 exiting successfully. Buy a developer a beer!
