                               Psi4 1.3.2 release

  ==> Input File <==

--------------------------------------------------------------------------
#psi4
#
memory 32 gb

molecule  {
0 1
  S       -1.0885200     0.0000000    -0.0741290
  C        1.3250500     0.0000000    -0.1840330
  C        0.3432180     1.1342250     0.1513900
  C        0.3432180    -1.1342250     0.1513900
  H        1.5467150     0.0000000    -1.2542590
  H        2.2680760     0.0000000     0.3724170
  H        0.4161039     1.3568375     1.2191488
  H        0.3465650     2.0011350    -0.5120140
  H        0.3465650    -2.0011350    -0.5120140
  H        0.4197390    -1.4673530     1.1897290
units angstrom
no_reorient  #important for SAPT in psi4, default
symmetry c1  #important for SAPT in psi4, default
}

set PROPERTIES_ORIGIN ["COM"]
properties('MP2/aug-cc-pvtz', properties = ['dipole'])
--------------------------------------------------------------------------

    Molecular point group: c1
  Charge       = 0
  Multiplicity = 1
  Basis Set: AUG-CC-PVTZ
    Blend: AUG-CC-PVTZ
  Basis Set: (AUG-CC-PVTZ AUX)
    Blend: AUG-CC-PVTZ-JKFIT

    Orbital Energies [Eh]
    ---------------------

    Doubly Occupied:

       1A    -91.940963     2A    -11.259592     3A    -11.258906
       4A    -11.240458     5A     -8.941377     6A     -6.622170
       7A     -6.621843     8A     -6.620535     9A     -1.133189
      10A     -0.920177    11A     -0.905083    12A     -0.756650
      13A     -0.659968    14A     -0.620442    15A     -0.570228
      16A     -0.513069    17A     -0.507011    18A     -0.459233
      19A     -0.409449    20A     -0.335395

  @DF-RHF Final Energy:  -514.65655630036906

   => Energetics <=

    Nuclear Repulsion Energy =            164.8436882791884557
    One-Electron Energy =               -1034.4090187400665855
    Two-Electron Energy =                 354.9087741605090969
    Total Energy =                       -514.6565563003690613
  Basis Set: (AUG-CC-PVTZ AUX)
    Blend: AUG-CC-PVTZ-RI
    Molecular point group: c1

    Geometry (in Angstrom), charge = 0, multiplicity = 1:

       Center              X                  Y                   Z               Mass
    ------------   -----------------  -----------------  -----------------  -----------------
         S           -1.017202819734     0.001504752228    -0.068209578158    31.972071174400
         C            1.396367180266     0.001504752228    -0.178113578158    12.000000000000
         C            0.414535180266     1.135729752228     0.157309421842    12.000000000000
         C            0.414535180266    -1.132720247772     0.157309421842    12.000000000000
         H            1.618032180266     0.001504752228    -1.248339578158     1.007825032230
         H            2.339393180266     0.001504752228     0.378336421842     1.007825032230
         H            0.487421080266     1.358342252228     1.225068221842     1.007825032230
         H            0.417882180266     2.002639752228    -0.506094578158     1.007825032230
         H            0.417882180266    -1.999630247772    -0.506094578158     1.007825032230
         H            0.491056180266    -1.465848247772     1.195648421842     1.007825032230

  Basis Set: AUG-CC-PVTZ
    Blend: AUG-CC-PVTZ
  Basis Set: (AUG-CC-PVTZ AUX)
    Blend: AUG-CC-PVTZ-JKFIT
	 Reference Energy          =    -514.6565563003690613 [Eh]
	 Singles Energy            =      -0.0000000000000000 [Eh]
	 Same-Spin Energy          =      -0.1811215812941703 [Eh]
	 Opposite-Spin Energy      =      -0.6168760995427043 [Eh]
	 Correlation Energy        =      -0.7979976808368746 [Eh]
	 Total Energy              =    -515.4545539812058905 [Eh]

	 ================> DF-SCS-MP2 Energies <==================
	-----------------------------------------------------------
	 SCS Same-Spin Scale       =       0.3333333333333333 [-]
	 SCS Opposite-Spin Scale   =       1.2000000000000000 [-]
	 SCS Same-Spin Energy      =      -0.0603738604313901 [Eh]
	 SCS Opposite-Spin Energy  =      -0.7402513194512451 [Eh]
	 SCS Correlation Energy    =      -0.8006251798826353 [Eh]
	 SCS Total Energy          =    -515.4571814802517338 [Eh]
	-----------------------------------------------------------

  Dipole Moment: [D]
     X:     1.9477      Y:    -0.0079      Z:     0.2558     Total:     1.9645

*** Psi4 exiting successfully. Buy a developer a beer!
