                               Psi4 1.3.2 release

  ==> Input File <==

--------------------------------------------------------------------------
#psi4
#
memory 32 gb

molecule  {
0 1
  S       -1.0885200     0.0000000    -0.0741290
  C        1.3250500     0.0000000    -0.1840330
  C        0.3063578     1.0973242     0.1639825
  C        0.3432180    -1.1342250     0.1513900
  H        1.5467150     0.0000000    -1.2542590
  H        2.2680760     0.0000000     0.3724170
  H        0.4197390     1.4673530     1.1897290
  H        0.3465650     2.0011350    -0.5120140
  H        0.3465650    -2.0011350    -0.5120140
  H        0.4197390    -1.4673530     1.1897290
units angstrom
no_reorient  #important for SAPT in psi4, default
symmetry c1  #important for SAPT in psi4, default
}

set PROPERTIES_ORIGIN ["COM"]
properties('MP2/aug-cc-pvtz', properties = ['dipole'])
--------------------------------------------------------------------------

    Molecular point group: c1
  Charge       = 0
  Multiplicity = 1
  Basis Set: AUG-CC-PVTZ
    Blend: AUG-CC-PVTZ
  Basis Set: (AUG-CC-PVTZ AUX)
    Blend: AUG-CC-PVTZ-JKFIT

    Orbital Energies [Eh]
    ---------------------

    Doubly Occupied:

       1A    -91.942302     2A    -11.259524     3A    -11.258790
       4A    -11.240097     5A     -8.943357     6A     -6.624217
       7A     -6.623866     8A     -6.622518     9A     -1.138174
      10A     -0.919046    11A     -0.907987    12A     -0.756463
      13A     -0.652096    14A     -0.625274    15A     -0.561043
      16A     -0.514178    17A     -0.505703    18A     -0.461408
      19A     -0.415697    20A     -0.335905

  @DF-RHF Final Energy:  -514.65488032003589

   => Energetics <=

    Nuclear Repulsion Energy =            165.5027594747386388
    One-Electron Energy =               -1035.6999909183191448
    Two-Electron Energy =                 355.5423511235445062
    Total Energy =                       -514.6548803200359998
  Basis Set: (AUG-CC-PVTZ AUX)
    Blend: AUG-CC-PVTZ-RI
    Molecular point group: c1

    Geometry (in Angstrom), charge = 0, multiplicity = 1:

       Center              X                  Y                   Z               Mass
    ------------   -----------------  -----------------  -----------------  -----------------
         S           -1.011276520694     0.005982375771    -0.069850507568    31.972071174400
         C            1.402293479306     0.005982375771    -0.179754507568    12.000000000000
         C            0.383601279306     1.103306575771     0.168260992432    12.000000000000
         C            0.420461479306    -1.128242624229     0.155668492432    12.000000000000
         H            1.623958479306     0.005982375771    -1.249980507568     1.007825032230
         H            2.345319479306     0.005982375771     0.376695492432     1.007825032230
         H            0.496982479306     1.473335375771     1.194007492432     1.007825032230
         H            0.423808479306     2.007117375771    -0.507735507568     1.007825032230
         H            0.423808479306    -1.995152624229    -0.507735507568     1.007825032230
         H            0.496982479306    -1.461370624229     1.194007492432     1.007825032230

  Basis Set: AUG-CC-PVTZ
    Blend: AUG-CC-PVTZ
  Basis Set: (AUG-CC-PVTZ AUX)
    Blend: AUG-CC-PVTZ-JKFIT
	 Reference Energy          =    -514.6548803200358861 [Eh]
	 Singles Energy            =      -0.0000000000000000 [Eh]
	 Same-Spin Energy          =      -0.1813170084671486 [Eh]
	 Opposite-Spin Energy      =      -0.6168649170105809 [Eh]
	 Correlation Energy        =      -0.7981819254777295 [Eh]
	 Total Energy              =    -515.4530622455135926 [Eh]

	 ================> DF-SCS-MP2 Energies <==================
	-----------------------------------------------------------
	 SCS Same-Spin Scale       =       0.3333333333333333 [-]
	 SCS Opposite-Spin Scale   =       1.2000000000000000 [-]
	 SCS Same-Spin Energy      =      -0.0604390028223829 [Eh]
	 SCS Opposite-Spin Energy  =      -0.7402379004126970 [Eh]
	 SCS Correlation Energy    =      -0.8006769032350799 [Eh]
	 SCS Total Energy          =    -515.4555572232709437 [Eh]
	-----------------------------------------------------------

  Dipole Moment: [D]
     X:     1.8947      Y:    -0.0645      Z:     0.2521     Total:     1.9125

*** Psi4 exiting successfully. Buy a developer a beer!
