                               Psi4 1.3.2 release

  ==> Input File <==

--------------------------------------------------------------------------
#psi4
#
memory 32 gb

molecule  {
0 1
  S       -1.0885200     0.0000000    -0.0741290
  C        1.3250500     0.0000000    -0.1840330
  C        0.4607890     1.2364647     0.1112243
  C        0.3432180    -1.1342250     0.1513900
  H        1.5467150     0.0000000    -1.2542590
  H        2.2680760     0.0000000     0.3724170
  H        0.4197390     1.4673530     1.1897290
  H        0.3465650     2.0011350    -0.5120140
  H        0.3465650    -2.0011350    -0.5120140
  H        0.4197390    -1.4673530     1.1897290
units angstrom
no_reorient  #important for SAPT in psi4, default
symmetry c1  #important for SAPT in psi4, default
}

set PROPERTIES_ORIGIN ["COM"]
properties('MP2/aug-cc-pvtz', properties = ['dipole'])
--------------------------------------------------------------------------

    Molecular point group: c1
  Charge       = 0
  Multiplicity = 1
  Basis Set: AUG-CC-PVTZ
    Blend: AUG-CC-PVTZ
  Basis Set: (AUG-CC-PVTZ AUX)
    Blend: AUG-CC-PVTZ-JKFIT

    Orbital Energies [Eh]
    ---------------------

    Doubly Occupied:

       1A    -91.939008     2A    -11.265312     3A    -11.258447
       4A    -11.246246     5A     -8.938010     6A     -6.618704
       7A     -6.618268     8A     -6.617083     9A     -1.119768
      10A     -0.933464    11A     -0.894642    12A     -0.767496
      13A     -0.669400    14A     -0.614511    15A     -0.578754
      16A     -0.525558    17A     -0.506174    18A     -0.456546
      19A     -0.384410    20A     -0.334157

  @DF-RHF Final Energy:  -514.64042928203605

   => Energetics <=

    Nuclear Repulsion Energy =            162.4709363305477723
    One-Electron Energy =               -1029.6508170777849500
    Two-Electron Energy =                 352.5394514652010685
    Total Energy =                       -514.6404292820360524
  Basis Set: (AUG-CC-PVTZ AUX)
    Blend: AUG-CC-PVTZ-RI
    Molecular point group: c1

    Geometry (in Angstrom), charge = 0, multiplicity = 1:

       Center              X                  Y                   Z               Mass
    ------------   -----------------  -----------------  -----------------  -----------------
         S           -1.036312982482    -0.016575150243    -0.061297322342    31.972071174400
         C            1.377257017518    -0.016575150243    -0.171201322342    12.000000000000
         C            0.512996017518     1.219889549757     0.124055977658    12.000000000000
         C            0.395425017518    -1.150800150243     0.164221677658    12.000000000000
         H            1.598922017518    -0.016575150243    -1.241427322342     1.007825032230
         H            2.320283017518    -0.016575150243     0.385248677658     1.007825032230
         H            0.471946017518     1.450777849757     1.202560677658     1.007825032230
         H            0.398772017518     1.984559849757    -0.499182322342     1.007825032230
         H            0.398772017518    -2.017710150243    -0.499182322342     1.007825032230
         H            0.471946017518    -1.483928150243     1.202560677658     1.007825032230

  Basis Set: AUG-CC-PVTZ
    Blend: AUG-CC-PVTZ
  Basis Set: (AUG-CC-PVTZ AUX)
    Blend: AUG-CC-PVTZ-JKFIT
	 Reference Energy          =    -514.6404292820360524 [Eh]
	 Singles Energy            =      -0.0000000000000000 [Eh]
	 Same-Spin Energy          =      -0.1807454744023433 [Eh]
	 Opposite-Spin Energy      =      -0.6177332394148137 [Eh]
	 Correlation Energy        =      -0.7984787138171571 [Eh]
	 Total Energy              =    -515.4389079958532420 [Eh]

	 ================> DF-SCS-MP2 Energies <==================
	-----------------------------------------------------------
	 SCS Same-Spin Scale       =       0.3333333333333333 [-]
	 SCS Opposite-Spin Scale   =       1.2000000000000000 [-]
	 SCS Same-Spin Energy      =      -0.0602484914674478 [Eh]
	 SCS Opposite-Spin Energy  =      -0.7412798872977765 [Eh]
	 SCS Correlation Energy    =      -0.8015283787652243 [Eh]
	 SCS Total Energy          =    -515.4419576608012221 [Eh]
	-----------------------------------------------------------

  Dipole Moment: [D]
     X:     2.0516      Y:     0.1175      Z:     0.2362     Total:     2.0685

*** Psi4 exiting successfully. Buy a developer a beer!
