                               Psi4 1.3.2 release

  ==> Input File <==

--------------------------------------------------------------------------
#psi4
#
memory 32 gb

molecule  {
0 1
  S       -1.0885200     0.0000000    -0.0741290
  C        1.3250500     0.0000000    -0.1840330
  C        0.3432180     1.1342250     0.1513900
  C        0.3432180    -1.1342250     0.1513900
  H        1.4715198     0.0000000    -1.2671146
  H        2.2680760     0.0000000     0.3724170
  H        0.4197390     1.4673530     1.1897290
  H        0.3465650     2.0011350    -0.5120140
  H        0.3465650    -2.0011350    -0.5120140
  H        0.4197390    -1.4673530     1.1897290
units angstrom
no_reorient  #important for SAPT in psi4, default
symmetry c1  #important for SAPT in psi4, default
}

set PROPERTIES_ORIGIN ["COM"]
properties('MP2/aug-cc-pvtz', properties = ['dipole'])
--------------------------------------------------------------------------

    Molecular point group: c1
  Charge       = 0
  Multiplicity = 1
  Basis Set: AUG-CC-PVTZ
    Blend: AUG-CC-PVTZ
  Basis Set: (AUG-CC-PVTZ AUX)
    Blend: AUG-CC-PVTZ-JKFIT

    Orbital Energies [Eh]
    ---------------------

    Doubly Occupied:

       1A    -91.941888     2A    -11.258632     3A    -11.258631
       4A    -11.241331     5A     -8.942202     6A     -6.622997
       7A     -6.622666     8A     -6.621368     9A     -1.132930
      10A     -0.920589    11A     -0.904508    12A     -0.758569
      13A     -0.657961    14A     -0.620637    15A     -0.566625
      16A     -0.512978    17A     -0.506749    18A     -0.462454
      19A     -0.409293    20A     -0.336045

  @DF-RHF Final Energy:  -514.65725311868857

   => Energetics <=

    Nuclear Repulsion Energy =            164.8024355817674120
    One-Electron Energy =               -1034.3212679352773193
    Two-Electron Energy =                 354.8615792348213063
    Total Energy =                       -514.6572531186885726
  Basis Set: (AUG-CC-PVTZ AUX)
    Blend: AUG-CC-PVTZ-RI
    Molecular point group: c1

    Geometry (in Angstrom), charge = 0, multiplicity = 1:

       Center              X                  Y                   Z               Mass
    ------------   -----------------  -----------------  -----------------  -----------------
         S           -1.016228474778    -0.000000000000    -0.067633966570    31.972071174400
         C            1.397341525222    -0.000000000000    -0.177537966570    12.000000000000
         C            0.415509525222     1.134225000000     0.157885033430    12.000000000000
         C            0.415509525222    -1.134225000000     0.157885033430    12.000000000000
         H            1.543811325222    -0.000000000000    -1.260619566570     1.007825032230
         H            2.340367525222    -0.000000000000     0.378912033430     1.007825032230
         H            0.492030525222     1.467353000000     1.196224033430     1.007825032230
         H            0.418856525222     2.001135000000    -0.505518966570     1.007825032230
         H            0.418856525222    -2.001135000000    -0.505518966570     1.007825032230
         H            0.492030525222    -1.467353000000     1.196224033430     1.007825032230

  Basis Set: AUG-CC-PVTZ
    Blend: AUG-CC-PVTZ
  Basis Set: (AUG-CC-PVTZ AUX)
    Blend: AUG-CC-PVTZ-JKFIT
	 Reference Energy          =    -514.6572531186885726 [Eh]
	 Singles Energy            =      -0.0000000000000000 [Eh]
	 Same-Spin Energy          =      -0.1810784224164886 [Eh]
	 Opposite-Spin Energy      =      -0.6168124565897750 [Eh]
	 Correlation Energy        =      -0.7978908790062637 [Eh]
	 Total Energy              =    -515.4551439976947904 [Eh]

	 ================> DF-SCS-MP2 Energies <==================
	-----------------------------------------------------------
	 SCS Same-Spin Scale       =       0.3333333333333333 [-]
	 SCS Opposite-Spin Scale   =       1.2000000000000000 [-]
	 SCS Same-Spin Energy      =      -0.0603594741388295 [Eh]
	 SCS Opposite-Spin Energy  =      -0.7401749479077300 [Eh]
	 SCS Correlation Energy    =      -0.8005344220465596 [Eh]
	 SCS Total Energy          =    -515.4577875407351257 [Eh]
	-----------------------------------------------------------

  Dipole Moment: [D]
     X:     1.9234      Y:    -0.0000      Z:     0.2559     Total:     1.9404

*** Psi4 exiting successfully. Buy a developer a beer!
