                               Psi4 1.3.2 release

  ==> Input File <==

--------------------------------------------------------------------------
#psi4
#
memory 32 gb

molecule  {
0 1
  S       -1.0885200     0.0000000    -0.0741290
  C        1.3250500     0.0000000    -0.1840330
  C        0.3625538     1.1087569     0.1544357
  C        0.3432180    -1.1342250     0.1513900
  H        1.5467150     0.0000000    -1.2542590
  H        2.2680760     0.0000000     0.3724170
  H        0.4197390     1.4673530     1.1897290
  H        0.3465650     2.0011350    -0.5120140
  H        0.3465650    -2.0011350    -0.5120140
  H        0.4197390    -1.4673530     1.1897290
units angstrom
no_reorient  #important for SAPT in psi4, default
symmetry c1  #important for SAPT in psi4, default
}

set PROPERTIES_ORIGIN ["COM"]
properties('MP2/aug-cc-pvtz', properties = ['dipole'])
--------------------------------------------------------------------------

    Molecular point group: c1
  Charge       = 0
  Multiplicity = 1
  Basis Set: AUG-CC-PVTZ
    Blend: AUG-CC-PVTZ
  Basis Set: (AUG-CC-PVTZ AUX)
    Blend: AUG-CC-PVTZ-JKFIT

    Orbital Energies [Eh]
    ---------------------

    Doubly Occupied:

       1A    -91.941365     2A    -11.260038     3A    -11.259220
       4A    -11.239522     5A     -8.941802     6A     -6.622589
       7A     -6.622256     8A     -6.620941     9A     -1.136827
      10A     -0.919769    11A     -0.906858    12A     -0.757373
      13A     -0.655246    14A     -0.625831    15A     -0.563793
      16A     -0.517840    17A     -0.504409    18A     -0.459014
      19A     -0.411778    20A     -0.335689

  @DF-RHF Final Energy:  -514.65652280313839

   => Energetics <=

    Nuclear Repulsion Energy =            165.0208020085912040
    One-Electron Energy =               -1034.7503337036444009
    Two-Electron Energy =                 355.0730088919148670
    Total Energy =                       -514.6565228031383867
  Basis Set: (AUG-CC-PVTZ AUX)
    Blend: AUG-CC-PVTZ-RI
    Molecular point group: c1

    Geometry (in Angstrom), charge = 0, multiplicity = 1:

       Center              X                  Y                   Z               Mass
    ------------   -----------------  -----------------  -----------------  -----------------
         S           -1.020387043740     0.004128900847    -0.068302775676    31.972071174400
         C            1.393182956260     0.004128900847    -0.178206775676    12.000000000000
         C            0.430686756260     1.112885800847     0.160261924324    12.000000000000
         C            0.411350956260    -1.130096099153     0.157216224324    12.000000000000
         H            1.614847956260     0.004128900847    -1.248432775676     1.007825032230
         H            2.336208956260     0.004128900847     0.378243224324     1.007825032230
         H            0.487871956260     1.471481900847     1.195555224324     1.007825032230
         H            0.414697956260     2.005263900847    -0.506187775676     1.007825032230
         H            0.414697956260    -1.997006099153    -0.506187775676     1.007825032230
         H            0.487871956260    -1.463224099153     1.195555224324     1.007825032230

  Basis Set: AUG-CC-PVTZ
    Blend: AUG-CC-PVTZ
  Basis Set: (AUG-CC-PVTZ AUX)
    Blend: AUG-CC-PVTZ-JKFIT
	 Reference Energy          =    -514.6565228031383867 [Eh]
	 Singles Energy            =      -0.0000000000000000 [Eh]
	 Same-Spin Energy          =      -0.1812240192989182 [Eh]
	 Opposite-Spin Energy      =      -0.6168481395977011 [Eh]
	 Correlation Energy        =      -0.7980721588966193 [Eh]
	 Total Energy              =    -515.4545949620350029 [Eh]

	 ================> DF-SCS-MP2 Energies <==================
	-----------------------------------------------------------
	 SCS Same-Spin Scale       =       0.3333333333333333 [-]
	 SCS Opposite-Spin Scale   =       1.2000000000000000 [-]
	 SCS Same-Spin Energy      =      -0.0604080064329727 [Eh]
	 SCS Opposite-Spin Energy  =      -0.7402177675172413 [Eh]
	 SCS Correlation Energy    =      -0.8006257739502141 [Eh]
	 SCS Total Energy          =    -515.4571485770885602 [Eh]
	-----------------------------------------------------------

  Dipole Moment: [D]
     X:     1.9325      Y:    -0.0116      Z:     0.2557     Total:     1.9494

*** Psi4 exiting successfully. Buy a developer a beer!
