                               Psi4 1.3.2 release

  ==> Input File <==

--------------------------------------------------------------------------
#psi4
#
memory 32 gb

molecule  {
0 1
  S       -1.1237512     0.0234650     0.1138045
  C        1.3250500     0.0000000    -0.1840330
  C        0.3432180     1.1342250     0.1513900
  C        0.3432180    -1.1342250     0.1513900
  H        1.5467150     0.0000000    -1.2542590
  H        2.2680760     0.0000000     0.3724170
  H        0.4197390     1.4673530     1.1897290
  H        0.3465650     2.0011350    -0.5120140
  H        0.3465650    -2.0011350    -0.5120140
  H        0.4197390    -1.4673530     1.1897290
units angstrom
no_reorient  #important for SAPT in psi4, default
symmetry c1  #important for SAPT in psi4, default
}

set PROPERTIES_ORIGIN ["COM"]
properties('MP2/aug-cc-pvtz', properties = ['dipole'])
--------------------------------------------------------------------------

    Molecular point group: c1
  Charge       = 0
  Multiplicity = 1
  Basis Set: AUG-CC-PVTZ
    Blend: AUG-CC-PVTZ
  Basis Set: (AUG-CC-PVTZ AUX)
    Blend: AUG-CC-PVTZ-JKFIT

    Orbital Energies [Eh]
    ---------------------

    Doubly Occupied:

       1A    -91.941436     2A    -11.261525     3A    -11.258648
       4A    -11.242024     5A     -8.941424     6A     -6.622225
       7A     -6.621840     8A     -6.620563     9A     -1.127469
      10A     -0.920151    11A     -0.907069    12A     -0.755942
      13A     -0.656218    14A     -0.622308    15A     -0.567401
      16A     -0.512395    17A     -0.507571    18A     -0.456743
      19A     -0.410071    20A     -0.334357

  @DF-RHF Final Energy:  -514.65497325497324

   => Energetics <=

    Nuclear Repulsion Energy =            163.7535449124622744
    One-Electron Energy =               -1032.2422756633684457
    Two-Electron Energy =                 353.8337574959329004
    Total Energy =                       -514.6549732549732425
  Basis Set: (AUG-CC-PVTZ AUX)
    Blend: AUG-CC-PVTZ-RI
    Molecular point group: c1

    Geometry (in Angstrom), charge = 0, multiplicity = 1:

       Center              X                  Y                   Z               Mass
    ------------   -----------------  -----------------  -----------------  -----------------
         S           -1.037265609392     0.013329434354     0.038947749493    31.972071174400
         C            1.411535590608    -0.010135565646    -0.258889750507    12.000000000000
         C            0.429703590608     1.124089434354     0.076533249493    12.000000000000
         C            0.429703590608    -1.144360565646     0.076533249493    12.000000000000
         H            1.633200590608    -0.010135565646    -1.329115750507     1.007825032230
         H            2.354561590608    -0.010135565646     0.297560249493     1.007825032230
         H            0.506224590608     1.457217434354     1.114872249493     1.007825032230
         H            0.433050590608     1.990999434354    -0.586870750507     1.007825032230
         H            0.433050590608    -2.011270565646    -0.586870750507     1.007825032230
         H            0.506224590608    -1.477488565646     1.114872249493     1.007825032230

  Basis Set: AUG-CC-PVTZ
    Blend: AUG-CC-PVTZ
  Basis Set: (AUG-CC-PVTZ AUX)
    Blend: AUG-CC-PVTZ-JKFIT
	 Reference Energy          =    -514.6549732549732425 [Eh]
	 Singles Energy            =      -0.0000000000000000 [Eh]
	 Same-Spin Energy          =      -0.1806981354812696 [Eh]
	 Opposite-Spin Energy      =      -0.6168416802497367 [Eh]
	 Correlation Energy        =      -0.7975398157310063 [Eh]
	 Total Energy              =    -515.4525130707042990 [Eh]

	 ================> DF-SCS-MP2 Energies <==================
	-----------------------------------------------------------
	 SCS Same-Spin Scale       =       0.3333333333333333 [-]
	 SCS Opposite-Spin Scale   =       1.2000000000000000 [-]
	 SCS Same-Spin Energy      =      -0.0602327118270899 [Eh]
	 SCS Opposite-Spin Energy  =      -0.7402100162996841 [Eh]
	 SCS Correlation Energy    =      -0.8004427281267740 [Eh]
	 SCS Total Energy          =    -515.4554159831000106 [Eh]
	-----------------------------------------------------------

  Dipole Moment: [D]
     X:     2.0208      Y:    -0.0237      Z:     0.1075     Total:     2.0238

*** Psi4 exiting successfully. Buy a developer a beer!
