                               Psi4 1.3.2 release

  ==> Input File <==

--------------------------------------------------------------------------
#psi4
#
memory 32 gb

molecule  {
0 1
  S       -1.0885200     0.0000000    -0.0741290
  C        1.3250500     0.0000000    -0.1840330
  C        0.3432180     1.1342250     0.1513900
  C        0.3432180    -1.1342250     0.1513900
  H        1.5467150     0.0000000    -1.2542590
  H        2.2680760     0.0000000     0.3724170
  H        0.4197390     1.4673530     1.1897290
  H        0.3465650     2.0011350    -0.5120140
  H        0.3465650    -2.0011350    -0.5120140
  H        0.4197390    -1.4673530     1.1897290
units angstrom
no_reorient  #important for SAPT in psi4, default
symmetry c1  #important for SAPT in psi4, default
}

set PROPERTIES_ORIGIN ["COM"]
properties('MP2/aug-cc-pvtz', properties = ['dipole'])
--------------------------------------------------------------------------

    Molecular point group: c1
  Charge       = 0
  Multiplicity = 1
  Basis Set: AUG-CC-PVTZ
    Blend: AUG-CC-PVTZ
  Basis Set: (AUG-CC-PVTZ AUX)
    Blend: AUG-CC-PVTZ-JKFIT

    Orbital Energies [Eh]
    ---------------------

    Doubly Occupied:

       1A    -91.941873     2A    -11.258955     3A    -11.258954
       4A    -11.241144     5A     -8.942190     6A     -6.622983
       7A     -6.622654     8A     -6.621352     9A     -1.132184
      10A     -0.920623    11A     -0.905212    12A     -0.759063
      13A     -0.655712    14A     -0.621973    15A     -0.566607
      16A     -0.512950    17A     -0.506161    18A     -0.462509
      19A     -0.409845    20A     -0.335979

  @DF-RHF Final Energy:  -514.65795960912544

   => Energetics <=

    Nuclear Repulsion Energy =            164.6922995162080383
    One-Electron Energy =               -1034.1026752256450436
    Two-Electron Energy =                 354.7524161003115069
    Total Energy =                       -514.6579596091254416
  Basis Set: (AUG-CC-PVTZ AUX)
    Blend: AUG-CC-PVTZ-RI
    Molecular point group: c1

    Geometry (in Angstrom), charge = 0, multiplicity = 1:

       Center              X                  Y                   Z               Mass
    ------------   -----------------  -----------------  -----------------  -----------------
         S           -1.017252314373    -0.000000000000    -0.067809005300    31.972071174400
         C            1.396317685627    -0.000000000000    -0.177713005300    12.000000000000
         C            0.414485685627     1.134225000000     0.157709994700    12.000000000000
         C            0.414485685627    -1.134225000000     0.157709994700    12.000000000000
         H            1.617982685627    -0.000000000000    -1.247939005300     1.007825032230
         H            2.339343685627    -0.000000000000     0.378736994700     1.007825032230
         H            0.491006685627     1.467353000000     1.196048994700     1.007825032230
         H            0.417832685627     2.001135000000    -0.505694005300     1.007825032230
         H            0.417832685627    -2.001135000000    -0.505694005300     1.007825032230
         H            0.491006685627    -1.467353000000     1.196048994700     1.007825032230

  Basis Set: AUG-CC-PVTZ
    Blend: AUG-CC-PVTZ
  Basis Set: (AUG-CC-PVTZ AUX)
    Blend: AUG-CC-PVTZ-JKFIT
	 Reference Energy          =    -514.6579596091254416 [Eh]
	 Singles Energy            =      -0.0000000000000000 [Eh]
	 Same-Spin Energy          =      -0.1809445700549867 [Eh]
	 Opposite-Spin Energy      =      -0.6166268588858541 [Eh]
	 Correlation Energy        =      -0.7975714289408408 [Eh]
	 Total Energy              =    -515.4555310380662831 [Eh]

	 ================> DF-SCS-MP2 Energies <==================
	-----------------------------------------------------------
	 SCS Same-Spin Scale       =       0.3333333333333333 [-]
	 SCS Opposite-Spin Scale   =       1.2000000000000000 [-]
	 SCS Same-Spin Energy      =      -0.0603148566849955 [Eh]
	 SCS Opposite-Spin Energy  =      -0.7399522306630250 [Eh]
	 SCS Correlation Energy    =      -0.8002670873480205 [Eh]
	 SCS Total Energy          =    -515.4582266964735027 [Eh]
	-----------------------------------------------------------

  Dipole Moment: [D]
     X:     1.9380      Y:     0.0000      Z:     0.2480     Total:     1.9538

*** Psi4 exiting successfully. Buy a developer a beer!
