                               Psi4 1.3.2 release

  ==> Input File <==

--------------------------------------------------------------------------
#psi4
#
memory 32 gb

molecule  {
0 1
  S       -1.0562869    -0.0087499    -0.1981716
  C        1.3250500     0.0000000    -0.1840330
  C        0.3432180     1.1342250     0.1513900
  C        0.3432180    -1.1342250     0.1513900
  H        1.5467150     0.0000000    -1.2542590
  H        2.2680760     0.0000000     0.3724170
  H        0.4197390     1.4673530     1.1897290
  H        0.3465650     2.0011350    -0.5120140
  H        0.3465650    -2.0011350    -0.5120140
  H        0.4197390    -1.4673530     1.1897290
units angstrom
no_reorient  #important for SAPT in psi4, default
symmetry c1  #important for SAPT in psi4, default
}

set PROPERTIES_ORIGIN ["COM"]
properties('MP2/aug-cc-pvtz', properties = ['dipole'])
--------------------------------------------------------------------------

    Molecular point group: c1
  Charge       = 0
  Multiplicity = 1
  Basis Set: AUG-CC-PVTZ
    Blend: AUG-CC-PVTZ
  Basis Set: (AUG-CC-PVTZ AUX)
    Blend: AUG-CC-PVTZ-JKFIT

    Orbital Energies [Eh]
    ---------------------

    Doubly Occupied:

       1A    -91.942775     2A    -11.259075     3A    -11.258036
       4A    -11.240586     5A     -8.943199     6A     -6.623970
       7A     -6.623665     8A     -6.622340     9A     -1.135120
      10A     -0.921326    11A     -0.903046    12A     -0.761734
      13A     -0.655060    14A     -0.621604    15A     -0.568381
      16A     -0.511586    17A     -0.504895    18A     -0.463911
      19A     -0.410471    20A     -0.336267

  @DF-RHF Final Energy:  -514.65589035085850

   => Energetics <=

    Nuclear Repulsion Energy =            165.2259581863715141
    One-Electron Energy =               -1035.1496034909371247
    Two-Electron Energy =                 355.2677549537071968
    Total Energy =                       -514.6558903508584990
  Basis Set: (AUG-CC-PVTZ AUX)
    Blend: AUG-CC-PVTZ-RI
    Molecular point group: c1

    Geometry (in Angstrom), charge = 0, multiplicity = 1:

       Center              X                  Y                   Z               Mass
    ------------   -----------------  -----------------  -----------------  -----------------
         S           -0.998942108088    -0.004970433312    -0.138272150147    31.972071174400
         C            1.382394791912     0.003779466688    -0.124133550147    12.000000000000
         C            0.400562791912     1.138004466688     0.211289449853    12.000000000000
         C            0.400562791912    -1.130445533312     0.211289449853    12.000000000000
         H            1.604059791912     0.003779466688    -1.194359550147     1.007825032230
         H            2.325420791912     0.003779466688     0.432316449853     1.007825032230
         H            0.477083791912     1.471132466688     1.249628449853     1.007825032230
         H            0.403909791912     2.004914466688    -0.452114550147     1.007825032230
         H            0.403909791912    -1.997355533312    -0.452114550147     1.007825032230
         H            0.477083791912    -1.463573533312     1.249628449853     1.007825032230

  Basis Set: AUG-CC-PVTZ
    Blend: AUG-CC-PVTZ
  Basis Set: (AUG-CC-PVTZ AUX)
    Blend: AUG-CC-PVTZ-JKFIT
	 Reference Energy          =    -514.6558903508584990 [Eh]
	 Singles Energy            =      -0.0000000000000000 [Eh]
	 Same-Spin Energy          =      -0.1812863480563901 [Eh]
	 Opposite-Spin Energy      =      -0.6168753649652470 [Eh]
	 Correlation Energy        =      -0.7981617130216371 [Eh]
	 Total Energy              =    -515.4540520638801127 [Eh]

	 ================> DF-SCS-MP2 Energies <==================
	-----------------------------------------------------------
	 SCS Same-Spin Scale       =       0.3333333333333333 [-]
	 SCS Opposite-Spin Scale   =       1.2000000000000000 [-]
	 SCS Same-Spin Energy      =      -0.0604287826854634 [Eh]
	 SCS Opposite-Spin Energy  =      -0.7402504379582964 [Eh]
	 SCS Correlation Energy    =      -0.8006792206437597 [Eh]
	 SCS Total Energy          =    -515.4565695715023139 [Eh]
	-----------------------------------------------------------

  Dipole Moment: [D]
     X:     1.8782      Y:     0.0085      Z:     0.3329     Total:     1.9075

*** Psi4 exiting successfully. Buy a developer a beer!
