                               Psi4 1.3.2 release

  ==> Input File <==

--------------------------------------------------------------------------
#psi4
#
memory 32 gb

molecule  {
0 1
  S       -1.0885200     0.0000000    -0.0741290
  C        1.3250500     0.0000000    -0.1840330
  C        0.3432180     1.1342250     0.1513900
  C        0.3432180    -1.1342250     0.1513900
  H        1.5467150     0.0000000    -1.2542590
  H        2.2680760     0.0000000     0.3724170
  H        0.4216987     1.5390756     1.1637706
  H        0.3465650     2.0011350    -0.5120140
  H        0.3465650    -2.0011350    -0.5120140
  H        0.4197390    -1.4673530     1.1897290
units angstrom
no_reorient  #important for SAPT in psi4, default
symmetry c1  #important for SAPT in psi4, default
}

set PROPERTIES_ORIGIN ["COM"]
properties('MP2/aug-cc-pvtz', properties = ['dipole'])
--------------------------------------------------------------------------

    Molecular point group: c1
  Charge       = 0
  Multiplicity = 1
  Basis Set: AUG-CC-PVTZ
    Blend: AUG-CC-PVTZ
  Basis Set: (AUG-CC-PVTZ AUX)
    Blend: AUG-CC-PVTZ-JKFIT

    Orbital Energies [Eh]
    ---------------------

    Doubly Occupied:

       1A    -91.942512     2A    -11.259038     3A    -11.258545
       4A    -11.241672     5A     -8.942759     6A     -6.623552
       7A     -6.623223     8A     -6.621922     9A     -1.131685
      10A     -0.921071    11A     -0.905335    12A     -0.760827
      13A     -0.653429    14A     -0.623119    15A     -0.563500
      16A     -0.512996    17A     -0.505308    18A     -0.464530
      19A     -0.410089    20A     -0.336160

  @DF-RHF Final Energy:  -514.65739720901729

   => Energetics <=

    Nuclear Repulsion Energy =            164.6029987486634241
    One-Electron Energy =               -1033.9182427889245446
    Two-Electron Energy =                 354.6578468312438872
    Total Energy =                       -514.6573972090172902
  Basis Set: (AUG-CC-PVTZ AUX)
    Blend: AUG-CC-PVTZ-RI
    Molecular point group: c1

    Geometry (in Angstrom), charge = 0, multiplicity = 1:

       Center              X                  Y                   Z               Mass
    ------------   -----------------  -----------------  -----------------  -----------------
         S           -1.017278997173    -0.000976557516    -0.067455562025    31.972071174400
         C            1.396291002827    -0.000976557516    -0.177359562025    12.000000000000
         C            0.414459002827     1.133248442484     0.158063437975    12.000000000000
         C            0.414459002827    -1.135201557516     0.158063437975    12.000000000000
         H            1.617956002827    -0.000976557516    -1.247585562025     1.007825032230
         H            2.339317002827    -0.000976557516     0.379090437975     1.007825032230
         H            0.492939702827     1.538099042484     1.170444037975     1.007825032230
         H            0.417806002827     2.000158442484    -0.505340562025     1.007825032230
         H            0.417806002827    -2.002111557516    -0.505340562025     1.007825032230
         H            0.490980002827    -1.468329557516     1.196402437975     1.007825032230

  Basis Set: AUG-CC-PVTZ
    Blend: AUG-CC-PVTZ
  Basis Set: (AUG-CC-PVTZ AUX)
    Blend: AUG-CC-PVTZ-JKFIT
	 Reference Energy          =    -514.6573972090172902 [Eh]
	 Singles Energy            =      -0.0000000000000000 [Eh]
	 Same-Spin Energy          =      -0.1808967132994843 [Eh]
	 Opposite-Spin Energy      =      -0.6165550018064443 [Eh]
	 Correlation Energy        =      -0.7974517151059286 [Eh]
	 Total Energy              =    -515.4548489241232119 [Eh]

	 ================> DF-SCS-MP2 Energies <==================
	-----------------------------------------------------------
	 SCS Same-Spin Scale       =       0.3333333333333333 [-]
	 SCS Opposite-Spin Scale   =       1.2000000000000000 [-]
	 SCS Same-Spin Energy      =      -0.0602989044331614 [Eh]
	 SCS Opposite-Spin Energy  =      -0.7398660021677331 [Eh]
	 SCS Correlation Energy    =      -0.8001649066008946 [Eh]
	 SCS Total Energy          =    -515.4575621156182024 [Eh]
	-----------------------------------------------------------

  Dipole Moment: [D]
     X:     1.9317      Y:     0.0062      Z:     0.2388     Total:     1.9464

*** Psi4 exiting successfully. Buy a developer a beer!
