                               Psi4 1.3.2 release

  ==> Input File <==

--------------------------------------------------------------------------
#psi4
#
memory 32 gb

molecule  {
0 1
  S       -1.1020293     0.0064508    -0.0116577
  C        1.3250500     0.0000000    -0.1840330
  C        0.3432180     1.1342250     0.1513900
  C        0.3432180    -1.1342250     0.1513900
  H        1.5467150     0.0000000    -1.2542590
  H        2.2680760     0.0000000     0.3724170
  H        0.4197390     1.4673530     1.1897290
  H        0.3465650     2.0011350    -0.5120140
  H        0.3465650    -2.0011350    -0.5120140
  H        0.4197390    -1.4673530     1.1897290
units angstrom
no_reorient  #important for SAPT in psi4, default
symmetry c1  #important for SAPT in psi4, default
}

set PROPERTIES_ORIGIN ["COM"]
properties('MP2/aug-cc-pvtz', properties = ['dipole'])
--------------------------------------------------------------------------

    Molecular point group: c1
  Charge       = 0
  Multiplicity = 1
  Basis Set: AUG-CC-PVTZ
    Blend: AUG-CC-PVTZ
  Basis Set: (AUG-CC-PVTZ AUX)
    Blend: AUG-CC-PVTZ-JKFIT

    Orbital Energies [Eh]
    ---------------------

    Doubly Occupied:

       1A    -91.941605     2A    -11.259655     3A    -11.258872
       4A    -11.241432     5A     -8.941831     6A     -6.622631
       7A     -6.622286     8A     -6.620993     9A     -1.130642
      10A     -0.920321    11A     -0.906072    12A     -0.757902
      13A     -0.655947    14A     -0.622108    15A     -0.566421
      16A     -0.513085    17A     -0.506698    18A     -0.461061
      19A     -0.409799    20A     -0.335570

  @DF-RHF Final Energy:  -514.65777236091435

   => Energetics <=

    Nuclear Repulsion Energy =            164.3966240554975400
    One-Electron Energy =               -1033.5189299216528980
    Two-Electron Energy =                 354.4645335052409791
    Total Energy =                       -514.6577723609143504
  Basis Set: (AUG-CC-PVTZ AUX)
    Blend: AUG-CC-PVTZ-RI
    Molecular point group: c1

    Geometry (in Angstrom), charge = 0, multiplicity = 1:

       Center              X                  Y                   Z               Mass
    ------------   -----------------  -----------------  -----------------  -----------------
         S           -1.024926353475     0.003664415731    -0.032321807671    31.972071174400
         C            1.402152946525    -0.002786384269    -0.204697107671    12.000000000000
         C            0.420320946525     1.131438615731     0.130725892329    12.000000000000
         C            0.420320946525    -1.137011384269     0.130725892329    12.000000000000
         H            1.623817946525    -0.002786384269    -1.274923107671     1.007825032230
         H            2.345178946525    -0.002786384269     0.351752892329     1.007825032230
         H            0.496841946525     1.464566615731     1.169064892329     1.007825032230
         H            0.423667946525     1.998348615731    -0.532678107671     1.007825032230
         H            0.423667946525    -2.003921384269    -0.532678107671     1.007825032230
         H            0.496841946525    -1.470139384269     1.169064892329     1.007825032230

  Basis Set: AUG-CC-PVTZ
    Blend: AUG-CC-PVTZ
  Basis Set: (AUG-CC-PVTZ AUX)
    Blend: AUG-CC-PVTZ-JKFIT
	 Reference Energy          =    -514.6577723609143504 [Eh]
	 Singles Energy            =      -0.0000000000000000 [Eh]
	 Same-Spin Energy          =      -0.1808263188026331 [Eh]
	 Opposite-Spin Energy      =      -0.6166202628909925 [Eh]
	 Correlation Energy        =      -0.7974465816936256 [Eh]
	 Total Energy              =    -515.4552189426079849 [Eh]

	 ================> DF-SCS-MP2 Energies <==================
	-----------------------------------------------------------
	 SCS Same-Spin Scale       =       0.3333333333333333 [-]
	 SCS Opposite-Spin Scale   =       1.2000000000000000 [-]
	 SCS Same-Spin Energy      =      -0.0602754396008777 [Eh]
	 SCS Opposite-Spin Energy  =      -0.7399443154691909 [Eh]
	 SCS Correlation Energy    =      -0.8002197550700686 [Eh]
	 SCS Total Energy          =    -515.4579921159844389 [Eh]
	-----------------------------------------------------------

  Dipole Moment: [D]
     X:     1.9668      Y:    -0.0064      Z:     0.2029     Total:     1.9772

*** Psi4 exiting successfully. Buy a developer a beer!
