                               Psi4 1.3.2 release

  ==> Input File <==

--------------------------------------------------------------------------
#psi4
#
memory 32 gb

molecule  {
0 1
  S       -1.0885200     0.0000000    -0.0741290
  C        1.3250500     0.0000000    -0.1840330
  C        0.3432180     1.1342250     0.1513900
  C        0.3432180    -1.1342250     0.1513900
  H        1.5467150     0.0000000    -1.2542590
  H        2.2680760     0.0000000     0.3724170
  H        0.4186187     1.4308609     1.2008182
  H        0.3465650     2.0011350    -0.5120140
  H        0.3465650    -2.0011350    -0.5120140
  H        0.4197390    -1.4673530     1.1897290
units angstrom
no_reorient  #important for SAPT in psi4, default
symmetry c1  #important for SAPT in psi4, default
}

set PROPERTIES_ORIGIN ["COM"]
properties('MP2/aug-cc-pvtz', properties = ['dipole'])
--------------------------------------------------------------------------

    Molecular point group: c1
  Charge       = 0
  Multiplicity = 1
  Basis Set: AUG-CC-PVTZ
    Blend: AUG-CC-PVTZ
  Basis Set: (AUG-CC-PVTZ AUX)
    Blend: AUG-CC-PVTZ-JKFIT

    Orbital Energies [Eh]
    ---------------------

    Doubly Occupied:

       1A    -91.941562     2A    -11.259164     3A    -11.258928
       4A    -11.240900     5A     -8.941912     6A     -6.622706
       7A     -6.622377     8A     -6.621073     9A     -1.132482
      10A     -0.920446    11A     -0.905160    12A     -0.758228
      13A     -0.657021    14A     -0.621429    15A     -0.567965
      16A     -0.512965    17A     -0.506494    18A     -0.461446
      19A     -0.409716    20A     -0.335825

  @DF-RHF Final Energy:  -514.65779271269093

   => Energetics <=

    Nuclear Repulsion Energy =            164.7403960547622717
    One-Electron Energy =               -1034.2007802595046542
    Two-Electron Energy =                 354.8025914920514197
    Total Energy =                       -514.6577927126909344
  Basis Set: (AUG-CC-PVTZ AUX)
    Blend: AUG-CC-PVTZ-RI
    Molecular point group: c1

    Geometry (in Angstrom), charge = 0, multiplicity = 1:

       Center              X                  Y                   Z               Mass
    ------------   -----------------  -----------------  -----------------  -----------------
         S           -1.017237060640     0.000496867578    -0.067959993156    31.972071174400
         C            1.396332939360     0.000496867578    -0.177863993156    12.000000000000
         C            0.414500939360     1.134721867578     0.157559006844    12.000000000000
         C            0.414500939360    -1.133728132422     0.157559006844    12.000000000000
         H            1.617997939360     0.000496867578    -1.248089993156     1.007825032230
         H            2.339358939360     0.000496867578     0.378586006844     1.007825032230
         H            0.489901639360     1.431357767578     1.206987206844     1.007825032230
         H            0.417847939360     2.001631867578    -0.505844993156     1.007825032230
         H            0.417847939360    -2.000638132422    -0.505844993156     1.007825032230
         H            0.491021939360    -1.466856132422     1.195898006844     1.007825032230

  Basis Set: AUG-CC-PVTZ
    Blend: AUG-CC-PVTZ
  Basis Set: (AUG-CC-PVTZ AUX)
    Blend: AUG-CC-PVTZ-JKFIT
	 Reference Energy          =    -514.6577927126909344 [Eh]
	 Singles Energy            =      -0.0000000000000000 [Eh]
	 Same-Spin Energy          =      -0.1809893777922854 [Eh]
	 Opposite-Spin Energy      =      -0.6166909962640339 [Eh]
	 Correlation Energy        =      -0.7976803740563192 [Eh]
	 Total Energy              =    -515.4554730867472472 [Eh]

	 ================> DF-SCS-MP2 Energies <==================
	-----------------------------------------------------------
	 SCS Same-Spin Scale       =       0.3333333333333333 [-]
	 SCS Opposite-Spin Scale   =       1.2000000000000000 [-]
	 SCS Same-Spin Energy      =      -0.0603297925974284 [Eh]
	 SCS Opposite-Spin Energy  =      -0.7400291955168407 [Eh]
	 SCS Correlation Energy    =      -0.8003589881142691 [Eh]
	 SCS Total Energy          =    -515.4581517008051605 [Eh]
	-----------------------------------------------------------

  Dipole Moment: [D]
     X:     1.9412      Y:    -0.0028      Z:     0.2514     Total:     1.9574

*** Psi4 exiting successfully. Buy a developer a beer!
