                               Psi4 1.3.2 release

  ==> Input File <==

--------------------------------------------------------------------------
#psi4
#
memory 32 gb

molecule  {
0 1
  S       -1.0885200     0.0000000    -0.0741290
  C        1.3250500     0.0000000    -0.1840330
  C        0.3447528     1.1190699     0.2028378
  C        0.3432180    -1.1342250     0.1513900
  H        1.5467150     0.0000000    -1.2542590
  H        2.2680760     0.0000000     0.3724170
  H        0.4197390     1.4673530     1.1897290
  H        0.3465650     2.0011350    -0.5120140
  H        0.3465650    -2.0011350    -0.5120140
  H        0.4197390    -1.4673530     1.1897290
units angstrom
no_reorient  #important for SAPT in psi4, default
symmetry c1  #important for SAPT in psi4, default
}

set PROPERTIES_ORIGIN ["COM"]
properties('MP2/aug-cc-pvtz', properties = ['dipole'])
--------------------------------------------------------------------------

    Molecular point group: c1
  Charge       = 0
  Multiplicity = 1
  Basis Set: AUG-CC-PVTZ
    Blend: AUG-CC-PVTZ
  Basis Set: (AUG-CC-PVTZ AUX)
    Blend: AUG-CC-PVTZ-JKFIT

    Orbital Energies [Eh]
    ---------------------

    Doubly Occupied:

       1A    -91.941850     2A    -11.258953     3A    -11.258904
       4A    -11.241094     5A     -8.942209     6A     -6.622998
       7A     -6.622664     8A     -6.621359     9A     -1.133089
      10A     -0.920119    11A     -0.905416    12A     -0.761999
      13A     -0.651996    14A     -0.622941    15A     -0.569669
      16A     -0.513530    17A     -0.507019    18A     -0.457013
      19A     -0.411228    20A     -0.336508

  @DF-RHF Final Energy:  -514.65458621585503

   => Energetics <=

    Nuclear Repulsion Energy =            164.7784302129718412
    One-Electron Energy =               -1034.2649144884712769
    Two-Electron Energy =                 354.8318980596444021
    Total Energy =                       -514.6545862158550335
  Basis Set: (AUG-CC-PVTZ AUX)
    Blend: AUG-CC-PVTZ-RI
    Molecular point group: c1

    Geometry (in Angstrom), charge = 0, multiplicity = 1:

       Center              X                  Y                   Z               Mass
    ------------   -----------------  -----------------  -----------------  -----------------
         S           -1.017501136901     0.002456952235    -0.076149747836    31.972071174400
         C            1.396068863099     0.002456952235    -0.186053747836    12.000000000000
         C            0.415771663099     1.121526852235     0.200817052164    12.000000000000
         C            0.414236863099    -1.131768047765     0.149369252164    12.000000000000
         H            1.617733863099     0.002456952235    -1.256279747836     1.007825032230
         H            2.339094863099     0.002456952235     0.370396252164     1.007825032230
         H            0.490757863099     1.469809952235     1.187708252164     1.007825032230
         H            0.417583863099     2.003591952235    -0.514034747836     1.007825032230
         H            0.417583863099    -1.998678047765    -0.514034747836     1.007825032230
         H            0.490757863099    -1.464896047765     1.187708252164     1.007825032230

  Basis Set: AUG-CC-PVTZ
    Blend: AUG-CC-PVTZ
  Basis Set: (AUG-CC-PVTZ AUX)
    Blend: AUG-CC-PVTZ-JKFIT
	 Reference Energy          =    -514.6545862158550335 [Eh]
	 Singles Energy            =      -0.0000000000000000 [Eh]
	 Same-Spin Energy          =      -0.1810555694736459 [Eh]
	 Opposite-Spin Energy      =      -0.6168327099398951 [Eh]
	 Correlation Energy        =      -0.7978882794135410 [Eh]
	 Total Energy              =    -515.4524744952685751 [Eh]

	 ================> DF-SCS-MP2 Energies <==================
	-----------------------------------------------------------
	 SCS Same-Spin Scale       =       0.3333333333333333 [-]
	 SCS Opposite-Spin Scale   =       1.2000000000000000 [-]
	 SCS Same-Spin Energy      =      -0.0603518564912153 [Eh]
	 SCS Opposite-Spin Energy  =      -0.7401992519278742 [Eh]
	 SCS Correlation Energy    =      -0.8005511084190895 [Eh]
	 SCS Total Energy          =    -515.4551373242741192 [Eh]
	-----------------------------------------------------------

  Dipole Moment: [D]
     X:     1.9365      Y:    -0.0182      Z:     0.2729     Total:     1.9557

*** Psi4 exiting successfully. Buy a developer a beer!
