                               Psi4 1.3.2 release

  ==> Input File <==

--------------------------------------------------------------------------
#psi4
#
memory 32 gb

molecule  {
0 1
  S       -1.0376024    -0.0110382    -0.2595917
  C        1.3250500     0.0000000    -0.1840330
  C        0.3432180     1.1342250     0.1513900
  C        0.3432180    -1.1342250     0.1513900
  H        1.5467150     0.0000000    -1.2542590
  H        2.2680760     0.0000000     0.3724170
  H        0.4197390     1.4673530     1.1897290
  H        0.3465650     2.0011350    -0.5120140
  H        0.3465650    -2.0011350    -0.5120140
  H        0.4197390    -1.4673530     1.1897290
units angstrom
no_reorient  #important for SAPT in psi4, default
symmetry c1  #important for SAPT in psi4, default
}

set PROPERTIES_ORIGIN ["COM"]
properties('MP2/aug-cc-pvtz', properties = ['dipole'])
--------------------------------------------------------------------------

    Molecular point group: c1
  Charge       = 0
  Multiplicity = 1
  Basis Set: AUG-CC-PVTZ
    Blend: AUG-CC-PVTZ
  Basis Set: (AUG-CC-PVTZ AUX)
    Blend: AUG-CC-PVTZ-JKFIT

    Orbital Energies [Eh]
    ---------------------

    Doubly Occupied:

       1A    -91.943400     2A    -11.259120     3A    -11.257820
       4A    -11.240320     5A     -8.943840     6A     -6.624593
       7A     -6.624298     8A     -6.622959     9A     -1.136497
      10A     -0.921652    11A     -0.901798    12A     -0.763238
      13A     -0.654654    14A     -0.621365    15A     -0.569888
      16A     -0.510437    17A     -0.504180    18A     -0.463835
      19A     -0.411084    20A     -0.336101

  @DF-RHF Final Energy:  -514.65362156068591

   => Energetics <=

    Nuclear Repulsion Energy =            165.4621613418269988
    One-Electron Energy =               -1035.6094084539938649
    Two-Electron Energy =                 355.4936255514809318
    Total Energy =                       -514.6536215606859059
  Basis Set: (AUG-CC-PVTZ AUX)
    Blend: AUG-CC-PVTZ-RI
    Molecular point group: c1

    Geometry (in Angstrom), charge = 0, multiplicity = 1:

       Center              X                  Y                   Z               Mass
    ------------   -----------------  -----------------  -----------------  -----------------
         S           -0.988328265506    -0.006270315887    -0.173162207295    31.972071174400
         C            1.374324134494     0.004767884113    -0.097603507295    12.000000000000
         C            0.392492134494     1.138992884113     0.237819492705    12.000000000000
         C            0.392492134494    -1.129457115887     0.237819492705    12.000000000000
         H            1.595989134494     0.004767884113    -1.167829507295     1.007825032230
         H            2.317350134494     0.004767884113     0.458846492705     1.007825032230
         H            0.469013134494     1.472120884113     1.276158492705     1.007825032230
         H            0.395839134494     2.005902884113    -0.425584507295     1.007825032230
         H            0.395839134494    -1.996367115887    -0.425584507295     1.007825032230
         H            0.469013134494    -1.462585115887     1.276158492705     1.007825032230

  Basis Set: AUG-CC-PVTZ
    Blend: AUG-CC-PVTZ
  Basis Set: (AUG-CC-PVTZ AUX)
    Blend: AUG-CC-PVTZ-JKFIT
	 Reference Energy          =    -514.6536215606859059 [Eh]
	 Singles Energy            =      -0.0000000000000000 [Eh]
	 Same-Spin Energy          =      -0.1815092162732246 [Eh]
	 Opposite-Spin Energy      =      -0.6171191368177038 [Eh]
	 Correlation Energy        =      -0.7986283530909284 [Eh]
	 Total Energy              =    -515.4522499137768818 [Eh]

	 ================> DF-SCS-MP2 Energies <==================
	-----------------------------------------------------------
	 SCS Same-Spin Scale       =       0.3333333333333333 [-]
	 SCS Opposite-Spin Scale   =       1.2000000000000000 [-]
	 SCS Same-Spin Energy      =      -0.0605030720910749 [Eh]
	 SCS Opposite-Spin Energy  =      -0.7405429641812445 [Eh]
	 SCS Correlation Energy    =      -0.8010460362723194 [Eh]
	 SCS Total Energy          =    -515.4546675969581884 [Eh]
	-----------------------------------------------------------

  Dipole Moment: [D]
     X:     1.8478      Y:     0.0106      Z:     0.3725     Total:     1.8850

*** Psi4 exiting successfully. Buy a developer a beer!
