                               Psi4 1.3.2 release

  ==> Input File <==

--------------------------------------------------------------------------
#psi4
#
memory 32 gb

molecule  {
0 1
  S       -1.0885200     0.0000000    -0.0741290
  C        1.3250500     0.0000000    -0.1840330
  C        0.2707387     1.0590865     0.1761511
  C        0.3432180    -1.1342250     0.1513900
  H        1.5467150     0.0000000    -1.2542590
  H        2.2680760     0.0000000     0.3724170
  H        0.4197390     1.4673530     1.1897290
  H        0.3465650     2.0011350    -0.5120140
  H        0.3465650    -2.0011350    -0.5120140
  H        0.4197390    -1.4673530     1.1897290
units angstrom
no_reorient  #important for SAPT in psi4, default
symmetry c1  #important for SAPT in psi4, default
}

set PROPERTIES_ORIGIN ["COM"]
properties('MP2/aug-cc-pvtz', properties = ['dipole'])
--------------------------------------------------------------------------

    Molecular point group: c1
  Charge       = 0
  Multiplicity = 1
  Basis Set: AUG-CC-PVTZ
    Blend: AUG-CC-PVTZ
  Basis Set: (AUG-CC-PVTZ AUX)
    Blend: AUG-CC-PVTZ-JKFIT

    Orbital Energies [Eh]
    ---------------------

    Doubly Occupied:

       1A    -91.942467     2A    -11.260354     3A    -11.259585
       4A    -11.239380     5A     -8.944450     6A     -6.625423
       7A     -6.624959     8A     -6.623586     9A     -1.145288
      10A     -0.922177    11A     -0.907090    12A     -0.753857
      13A     -0.649272    14A     -0.628900    15A     -0.555454
      16A     -0.518481    17A     -0.505367    18A     -0.459057
      19A     -0.419028    20A     -0.335296

  @DF-RHF Final Energy:  -514.64678618047969

   => Energetics <=

    Nuclear Repulsion Energy =            166.3537743713920634
    One-Electron Energy =               -1037.3621800004329998
    Two-Electron Energy =                 356.3616194485612141
    Total Energy =                       -514.6467861804796939
  Basis Set: (AUG-CC-PVTZ AUX)
    Blend: AUG-CC-PVTZ-RI
    Molecular point group: c1

    Geometry (in Angstrom), charge = 0, multiplicity = 1:

       Center              X                  Y                   Z               Mass
    ------------   -----------------  -----------------  -----------------  -----------------
         S           -1.005501934756     0.012181490424    -0.071823286961    31.972071174400
         C            1.408068065244     0.012181490424    -0.181727286961    12.000000000000
         C            0.353756765244     1.071267990424     0.178456813039    12.000000000000
         C            0.426236065244    -1.122043509576     0.153695713039    12.000000000000
         H            1.629733065244     0.012181490424    -1.251953286961     1.007825032230
         H            2.351094065244     0.012181490424     0.374722713039     1.007825032230
         H            0.502757065244     1.479534490424     1.192034713039     1.007825032230
         H            0.429583065244     2.013316490424    -0.509708286961     1.007825032230
         H            0.429583065244    -1.988953509576    -0.509708286961     1.007825032230
         H            0.502757065244    -1.455171509576     1.192034713039     1.007825032230

  Basis Set: AUG-CC-PVTZ
    Blend: AUG-CC-PVTZ
  Basis Set: (AUG-CC-PVTZ AUX)
    Blend: AUG-CC-PVTZ-JKFIT
	 Reference Energy          =    -514.6467861804796939 [Eh]
	 Singles Energy            =      -0.0000000000000000 [Eh]
	 Same-Spin Energy          =      -0.1818678717239778 [Eh]
	 Opposite-Spin Energy      =      -0.6174264733888818 [Eh]
	 Correlation Energy        =      -0.7992943451128596 [Eh]
	 Total Energy              =    -515.4460805255926061 [Eh]

	 ================> DF-SCS-MP2 Energies <==================
	-----------------------------------------------------------
	 SCS Same-Spin Scale       =       0.3333333333333333 [-]
	 SCS Opposite-Spin Scale   =       1.2000000000000000 [-]
	 SCS Same-Spin Energy      =      -0.0606226239079926 [Eh]
	 SCS Opposite-Spin Energy  =      -0.7409117680666581 [Eh]
	 SCS Correlation Energy    =      -0.8015343919746507 [Eh]
	 SCS Total Energy          =    -515.4483205724543495 [Eh]
	-----------------------------------------------------------

  Dipole Moment: [D]
     X:     1.8500      Y:    -0.1418      Z:     0.2569     Total:     1.8731

*** Psi4 exiting successfully. Buy a developer a beer!
