                               Psi4 1.3.2 release

  ==> Input File <==

--------------------------------------------------------------------------
#psi4
#
memory 32 gb

molecule  {
0 1
  S       -1.0885200     0.0000000    -0.0741290
  C        1.3250500     0.0000000    -0.1840330
  C        0.3432180     1.1342250     0.1513900
  C        0.3432180    -1.1342250     0.1513900
  H        1.5280032     0.0000000    -1.2579646
  H        2.2680760     0.0000000     0.3724170
  H        0.4197390     1.4673530     1.1897290
  H        0.3465650     2.0011350    -0.5120140
  H        0.3465650    -2.0011350    -0.5120140
  H        0.4197390    -1.4673530     1.1897290
units angstrom
no_reorient  #important for SAPT in psi4, default
symmetry c1  #important for SAPT in psi4, default
}

set PROPERTIES_ORIGIN ["COM"]
properties('MP2/aug-cc-pvtz', properties = ['dipole'])
--------------------------------------------------------------------------

    Molecular point group: c1
  Charge       = 0
  Multiplicity = 1
  Basis Set: AUG-CC-PVTZ
    Blend: AUG-CC-PVTZ
  Basis Set: (AUG-CC-PVTZ AUX)
    Blend: AUG-CC-PVTZ-JKFIT

    Orbital Energies [Eh]
    ---------------------

    Doubly Occupied:

       1A    -91.941872     2A    -11.258869     3A    -11.258869
       4A    -11.241191     5A     -8.942188     6A     -6.622982
       7A     -6.622653     8A     -6.621351     9A     -1.132356
      10A     -0.920612    11A     -0.905026    12A     -0.758929
      13A     -0.656241    14A     -0.621614    15A     -0.566609
      16A     -0.512955    17A     -0.506422    18A     -0.462492
      19A     -0.409712    20A     -0.335988

  @DF-RHF Final Energy:  -514.65789608272576

   => Energetics <=

    Nuclear Repulsion Energy =            164.7188821672878305
    One-Electron Energy =               -1034.1556952273094794
    Two-Electron Energy =                 354.7789169772958644
    Total Energy =                       -514.6578960827257561
  Basis Set: (AUG-CC-PVTZ AUX)
    Blend: AUG-CC-PVTZ-RI
    Molecular point group: c1

    Geometry (in Angstrom), charge = 0, multiplicity = 1:

       Center              X                  Y                   Z               Mass
    ------------   -----------------  -----------------  -----------------  -----------------
         S           -1.016997539045    -0.000000000000    -0.067758550750    31.972071174400
         C            1.396572460955    -0.000000000000    -0.177662550750    12.000000000000
         C            0.414740460955     1.134225000000     0.157760449250    12.000000000000
         C            0.414740460955    -1.134225000000     0.157760449250    12.000000000000
         H            1.599525660955    -0.000000000000    -1.251594150750     1.007825032230
         H            2.339598460955    -0.000000000000     0.378787449250     1.007825032230
         H            0.491261460955     1.467353000000     1.196099449250     1.007825032230
         H            0.418087460955     2.001135000000    -0.505643550750     1.007825032230
         H            0.418087460955    -2.001135000000    -0.505643550750     1.007825032230
         H            0.491261460955    -1.467353000000     1.196099449250     1.007825032230

  Basis Set: AUG-CC-PVTZ
    Blend: AUG-CC-PVTZ
  Basis Set: (AUG-CC-PVTZ AUX)
    Blend: AUG-CC-PVTZ-JKFIT
	 Reference Energy          =    -514.6578960827257561 [Eh]
	 Singles Energy            =      -0.0000000000000000 [Eh]
	 Same-Spin Energy          =      -0.1809720470020597 [Eh]
	 Opposite-Spin Energy      =      -0.6166657937399265 [Eh]
	 Correlation Energy        =      -0.7976378407419862 [Eh]
	 Total Energy              =    -515.4555339234677831 [Eh]

	 ================> DF-SCS-MP2 Energies <==================
	-----------------------------------------------------------
	 SCS Same-Spin Scale       =       0.3333333333333333 [-]
	 SCS Opposite-Spin Scale   =       1.2000000000000000 [-]
	 SCS Same-Spin Energy      =      -0.0603240156673532 [Eh]
	 SCS Opposite-Spin Energy  =      -0.7399989524879117 [Eh]
	 SCS Correlation Energy    =      -0.8003229681552649 [Eh]
	 SCS Total Energy          =    -515.4582190508809845 [Eh]
	-----------------------------------------------------------

  Dipole Moment: [D]
     X:     1.9343      Y:     0.0000      Z:     0.2497     Total:     1.9503

*** Psi4 exiting successfully. Buy a developer a beer!
