                               Psi4 1.4a3.dev225

  ==> Input File <==

--------------------------------------------------------------------------
#psi4
#
memory 32 gb

molecule  {
0 1
  S       -1.0885200     0.0000000    -0.0741290
  C        1.3250500     0.0000000    -0.1840330
  C        0.3587767     1.1465506     0.1538407
  C        0.3432180    -1.1342250     0.1513900
  H        1.5467150     0.0000000    -1.2542590
  H        2.2680760     0.0000000     0.3724170
  H        0.4197390     1.4673530     1.1897290
  H        0.3465650     2.0011350    -0.5120140
  H        0.3465650    -2.0011350    -0.5120140
  H        0.4197390    -1.4673530     1.1897290
units angstrom
no_reorient  #important for SAPT in psi4, default
symmetry c1  #important for SAPT in psi4, default
}

set PROPERTIES_ORIGIN ["COM"]
properties('MP2/aug-cc-pvtz', properties = ['dipole'])
--------------------------------------------------------------------------

    Molecular point group: c1
  Charge       = 0
  Multiplicity = 1
  Basis Set: AUG-CC-PVTZ
    Blend: AUG-CC-PVTZ
  Basis Set: (AUG-CC-PVTZ AUX)
    Blend: AUG-CC-PVTZ-JKFIT

    Orbital Energies [Eh]
    ---------------------

    Doubly Occupied:

       1A    -91.941579     2A    -11.259252     3A    -11.258768
       4A    -11.241608     5A     -8.941655     6A     -6.622430
       7A     -6.622093     8A     -6.620811     9A     -1.130182
      10A     -0.921835    11A     -0.903659    12A     -0.760334
      13A     -0.656883    14A     -0.620757    15A     -0.569316
      16A     -0.513089    17A     -0.506830    18A     -0.461709
      19A     -0.407168    20A     -0.335980

  @DF-RHF Final Energy:  -514.65791031158221

   => Energetics <=

    Nuclear Repulsion Energy =            164.3891403259775075
    One-Electron Energy =               -1033.5022279169666035
    Two-Electron Energy =                 354.4551772794068825
    Total Energy =                       -514.6579103115823273
  Basis Set: (AUG-CC-PVTZ AUX)
    Blend: AUG-CC-PVTZ-RI
    Molecular point group: c1

    Geometry (in Angstrom), charge = 0, multiplicity = 1:

       Center              X                  Y                   Z               Mass
    ------------   -----------------  -----------------  -----------------  -----------------
         S           -1.019774698438    -0.001998232309    -0.068206313985    31.972071174400
         C            1.393795301562    -0.001998232309    -0.178110313985    12.000000000000
         C            0.427522001562     1.144552367691     0.159763386015    12.000000000000
         C            0.411963301562    -1.136223232309     0.157312686015    12.000000000000
         H            1.615460301562    -0.001998232309    -1.248336313985     1.007825032230
         H            2.336821301562    -0.001998232309     0.378339686015     1.007825032230
         H            0.488484301562     1.465354767691     1.195651686015     1.007825032230
         H            0.415310301562     1.999136767691    -0.506091313985     1.007825032230
         H            0.415310301562    -2.003133232309    -0.506091313985     1.007825032230
         H            0.488484301562    -1.469351232309     1.195651686015     1.007825032230

  Basis Set: AUG-CC-PVTZ
    Blend: AUG-CC-PVTZ
  Basis Set: (AUG-CC-PVTZ AUX)
    Blend: AUG-CC-PVTZ-JKFIT
	 Reference Energy          =    -514.6579103115822136 [Eh]
	 Singles Energy            =      -0.0000000000000000 [Eh]
	 Same-Spin Energy          =      -0.1808511062254817 [Eh]
	 Opposite-Spin Energy      =      -0.6166239911097655 [Eh]
	 Correlation Energy        =      -0.7974750973352472 [Eh]
	 Total Energy              =    -515.4553854089174365 [Eh]

	 ================> DF-SCS-MP2 Energies <==================
	-----------------------------------------------------------
	 SCS Same-Spin Scale       =       0.3333333333333333 [-]
	 SCS Opposite-Spin Scale   =       1.2000000000000000 [-]
	 SCS Same-Spin Energy      =      -0.0602837020751606 [Eh]
	 SCS Opposite-Spin Energy  =      -0.7399487893317186 [Eh]
	 SCS Correlation Energy    =      -0.8002324914068791 [Eh]
	 SCS Total Energy          =    -515.4581428029890731 [Eh]
	-----------------------------------------------------------

  Dipole Moment: [D]
     X:     1.9551      Y:     0.0213      Z:     0.2505     Total:     1.9712

*** Psi4 exiting successfully. Buy a developer a beer!
