                               Psi4 1.3.2 release

  ==> Input File <==

--------------------------------------------------------------------------
#psi4
#
memory 32 gb

molecule  {
0 1
  S       -1.1137778     0.0142757     0.0510123
  C        1.3250500     0.0000000    -0.1840330
  C        0.3432180     1.1342250     0.1513900
  C        0.3432180    -1.1342250     0.1513900
  H        1.5467150     0.0000000    -1.2542590
  H        2.2680760     0.0000000     0.3724170
  H        0.4197390     1.4673530     1.1897290
  H        0.3465650     2.0011350    -0.5120140
  H        0.3465650    -2.0011350    -0.5120140
  H        0.4197390    -1.4673530     1.1897290
units angstrom
no_reorient  #important for SAPT in psi4, default
symmetry c1  #important for SAPT in psi4, default
}

set PROPERTIES_ORIGIN ["COM"]
properties('MP2/aug-cc-pvtz', properties = ['dipole'])
--------------------------------------------------------------------------

    Molecular point group: c1
  Charge       = 0
  Multiplicity = 1
  Basis Set: AUG-CC-PVTZ
    Blend: AUG-CC-PVTZ
  Basis Set: (AUG-CC-PVTZ AUX)
    Blend: AUG-CC-PVTZ-JKFIT

    Orbital Energies [Eh]
    ---------------------

    Doubly Occupied:

       1A    -91.941459     2A    -11.260513     3A    -11.258771
       4A    -11.241726     5A     -8.941575     6A     -6.622377
       7A     -6.622014     8A     -6.620729     9A     -1.129066
      10A     -0.920136    11A     -0.906713    12A     -0.756862
      13A     -0.656117    14A     -0.622218    15A     -0.566701
      16A     -0.512879    17A     -0.507168    18A     -0.459132
      19A     -0.409889    20A     -0.335019

  @DF-RHF Final Energy:  -514.65677588294795

   => Energetics <=

    Nuclear Repulsion Energy =            164.0832490864532076
    One-Electron Energy =               -1032.8979201166018811
    Two-Electron Energy =                 354.1578951472007475
    Total Energy =                       -514.6567758829479544
  Basis Set: (AUG-CC-PVTZ AUX)
    Blend: AUG-CC-PVTZ-RI
    Molecular point group: c1

    Geometry (in Angstrom), charge = 0, multiplicity = 1:

       Center              X                  Y                   Z               Mass
    ------------   -----------------  -----------------  -----------------  -----------------
         S           -1.031600159548     0.008109397230     0.003278262688    31.972071174400
         C            1.407227640452    -0.006166302770    -0.231767037312    12.000000000000
         C            0.425395640452     1.128058697230     0.103655962688    12.000000000000
         C            0.425395640452    -1.140391302770     0.103655962688    12.000000000000
         H            1.628892640452    -0.006166302770    -1.301993037312     1.007825032230
         H            2.350253640452    -0.006166302770     0.324682962688     1.007825032230
         H            0.501916640452     1.461186697230     1.141994962688     1.007825032230
         H            0.428742640452     1.994968697230    -0.559748037312     1.007825032230
         H            0.428742640452    -2.007301302770    -0.559748037312     1.007825032230
         H            0.501916640452    -1.473519302770     1.141994962688     1.007825032230

  Basis Set: AUG-CC-PVTZ
    Blend: AUG-CC-PVTZ
  Basis Set: (AUG-CC-PVTZ AUX)
    Blend: AUG-CC-PVTZ-JKFIT
	 Reference Energy          =    -514.6567758829479544 [Eh]
	 Singles Energy            =      -0.0000000000000000 [Eh]
	 Same-Spin Energy          =      -0.1807439103819393 [Eh]
	 Opposite-Spin Energy      =      -0.6166917357868640 [Eh]
	 Correlation Energy        =      -0.7974356461688032 [Eh]
	 Total Energy              =    -515.4542115291167192 [Eh]

	 ================> DF-SCS-MP2 Energies <==================
	-----------------------------------------------------------
	 SCS Same-Spin Scale       =       0.3333333333333333 [-]
	 SCS Opposite-Spin Scale   =       1.2000000000000000 [-]
	 SCS Same-Spin Energy      =      -0.0602479701273131 [Eh]
	 SCS Opposite-Spin Energy  =      -0.7400300829442368 [Eh]
	 SCS Correlation Energy    =      -0.8002780530715499 [Eh]
	 SCS Total Energy          =    -515.4570539360195198 [Eh]
	-----------------------------------------------------------

  Dipole Moment: [D]
     X:     1.9945      Y:    -0.0143      Z:     0.1560     Total:     2.0006

*** Psi4 exiting successfully. Buy a developer a beer!
