                               Psi4 1.3.2 release

  ==> Input File <==

--------------------------------------------------------------------------
#psi4
#
memory 32 gb

molecule  {
0 1
  S       -1.0885200     0.0000000    -0.0741290
  C        1.3250500     0.0000000    -0.1840330
  C        0.3814476     1.0829511     0.1574117
  C        0.3432180    -1.1342250     0.1513900
  H        1.5467150     0.0000000    -1.2542590
  H        2.2680760     0.0000000     0.3724170
  H        0.4197390     1.4673530     1.1897290
  H        0.3465650     2.0011350    -0.5120140
  H        0.3465650    -2.0011350    -0.5120140
  H        0.4197390    -1.4673530     1.1897290
units angstrom
no_reorient  #important for SAPT in psi4, default
symmetry c1  #important for SAPT in psi4, default
}

set PROPERTIES_ORIGIN ["COM"]
properties('MP2/aug-cc-pvtz', properties = ['dipole'])
--------------------------------------------------------------------------

    Molecular point group: c1
  Charge       = 0
  Multiplicity = 1
  Basis Set: AUG-CC-PVTZ
    Blend: AUG-CC-PVTZ
  Basis Set: (AUG-CC-PVTZ AUX)
    Blend: AUG-CC-PVTZ-JKFIT

    Orbital Energies [Eh]
    ---------------------

    Doubly Occupied:

       1A    -91.940923     2A    -11.261343     3A    -11.259607
       4A    -11.237862     5A     -8.941475     6A     -6.622255
       7A     -6.621918     8A     -6.620591     9A     -1.141938
      10A     -0.920129    11A     -0.907611    12A     -0.755680
      13A     -0.655037    14A     -0.629993    15A     -0.561359
      16A     -0.523308    17A     -0.501844    18A     -0.455182
      19A     -0.413349    20A     -0.335307

  @DF-RHF Final Energy:  -514.65296237859980

   => Energetics <=

    Nuclear Repulsion Energy =            165.3602729646982539
    One-Electron Energy =               -1035.4130527985746539
    Two-Electron Energy =                 355.3998174552766613
    Total Energy =                       -514.6529623785997956
  Basis Set: (AUG-CC-PVTZ AUX)
    Blend: AUG-CC-PVTZ-RI
    Molecular point group: c1

    Geometry (in Angstrom), charge = 0, multiplicity = 1:

       Center              X                  Y                   Z               Mass
    ------------   -----------------  -----------------  -----------------  -----------------
         S           -1.023450115851     0.008312549783    -0.068785246254    31.972071174400
         C            1.390119884149     0.008312549783    -0.178689246254    12.000000000000
         C            0.446517484149     1.091263649783     0.162755453746    12.000000000000
         C            0.408287884149    -1.125912450217     0.156733753746    12.000000000000
         H            1.611784884149     0.008312549783    -1.248915246254     1.007825032230
         H            2.333145884149     0.008312549783     0.377760753746     1.007825032230
         H            0.484808884149     1.475665549783     1.195072753746     1.007825032230
         H            0.411634884149     2.009447549783    -0.506670246254     1.007825032230
         H            0.411634884149    -1.992822450217    -0.506670246254     1.007825032230
         H            0.484808884149    -1.459040450217     1.195072753746     1.007825032230

  Basis Set: AUG-CC-PVTZ
    Blend: AUG-CC-PVTZ
  Basis Set: (AUG-CC-PVTZ AUX)
    Blend: AUG-CC-PVTZ-JKFIT
	 Reference Energy          =    -514.6529623785997956 [Eh]
	 Singles Energy            =      -0.0000000000000000 [Eh]
	 Same-Spin Energy          =      -0.1815820120678513 [Eh]
	 Opposite-Spin Energy      =      -0.6172088591534240 [Eh]
	 Correlation Energy        =      -0.7987908712212753 [Eh]
	 Total Energy              =    -515.4517532498210812 [Eh]

	 ================> DF-SCS-MP2 Energies <==================
	-----------------------------------------------------------
	 SCS Same-Spin Scale       =       0.3333333333333333 [-]
	 SCS Opposite-Spin Scale   =       1.2000000000000000 [-]
	 SCS Same-Spin Energy      =      -0.0605273373559504 [Eh]
	 SCS Opposite-Spin Energy  =      -0.7406506309841089 [Eh]
	 SCS Correlation Energy    =      -0.8011779683400593 [Eh]
	 SCS Total Energy          =    -515.4541403469398801 [Eh]
	-----------------------------------------------------------

  Dipole Moment: [D]
     X:     1.9278      Y:    -0.0284      Z:     0.2640     Total:     1.9460

*** Psi4 exiting successfully. Buy a developer a beer!
