                               Psi4 1.3.2 release

  ==> Input File <==

--------------------------------------------------------------------------
#psi4
#
memory 32 gb

molecule  {
0 1
  S       -1.0885200     0.0000000    -0.0741290
  C        1.3250500     0.0000000    -0.1840330
  C        0.2654245     1.0725969     0.1391364
  C        0.3432180    -1.1342250     0.1513900
  H        1.5467150     0.0000000    -1.2542590
  H        2.2680760     0.0000000     0.3724170
  H        0.4197390     1.4673530     1.1897290
  H        0.3465650     2.0011350    -0.5120140
  H        0.3465650    -2.0011350    -0.5120140
  H        0.4197390    -1.4673530     1.1897290
units angstrom
no_reorient  #important for SAPT in psi4, default
symmetry c1  #important for SAPT in psi4, default
}

set PROPERTIES_ORIGIN ["COM"]
properties('MP2/aug-cc-pvtz', properties = ['dipole'])
--------------------------------------------------------------------------

    Molecular point group: c1
  Charge       = 0
  Multiplicity = 1
  Basis Set: AUG-CC-PVTZ
    Blend: AUG-CC-PVTZ
  Basis Set: (AUG-CC-PVTZ AUX)
    Blend: AUG-CC-PVTZ-JKFIT

    Orbital Energies [Eh]
    ---------------------

    Doubly Occupied:

       1A    -91.942553     2A    -11.260267     3A    -11.259528
       4A    -11.239701     5A     -8.944510     6A     -6.625493
       7A     -6.625027     8A     -6.623661     9A     -1.144056
      10A     -0.922678    11A     -0.906896    12A     -0.752037
      13A     -0.651324    14A     -0.627891    15A     -0.553867
      16A     -0.519139    17A     -0.502671    18A     -0.463455
      19A     -0.418475    20A     -0.334659

  @DF-RHF Final Energy:  -514.64864373428361

   => Energetics <=

    Nuclear Repulsion Energy =            166.2631565161307776
    One-Electron Energy =               -1037.1878233877785078
    Two-Electron Energy =                 356.2760231373641204
    Total Energy =                       -514.6486437342837235
  Basis Set: (AUG-CC-PVTZ AUX)
    Blend: AUG-CC-PVTZ-RI
    Molecular point group: c1

    Geometry (in Angstrom), charge = 0, multiplicity = 1:

       Center              X                  Y                   Z               Mass
    ------------   -----------------  -----------------  -----------------  -----------------
         S           -1.004640394049     0.009991177759    -0.065822445666    31.972071174400
         C            1.408929605951     0.009991177759    -0.175726445666    12.000000000000
         C            0.349304105951     1.082588077759     0.147442954334    12.000000000000
         C            0.427097605951    -1.124233822241     0.159696554334    12.000000000000
         H            1.630594605951     0.009991177759    -1.245952445666     1.007825032230
         H            2.351955605951     0.009991177759     0.380723554334     1.007825032230
         H            0.503618605951     1.477344177759     1.198035554334     1.007825032230
         H            0.430444605951     2.011126177759    -0.503707445666     1.007825032230
         H            0.430444605951    -1.991143822241    -0.503707445666     1.007825032230
         H            0.503618605951    -1.457361822241     1.198035554334     1.007825032230

  Basis Set: AUG-CC-PVTZ
    Blend: AUG-CC-PVTZ
  Basis Set: (AUG-CC-PVTZ AUX)
    Blend: AUG-CC-PVTZ-JKFIT
	 Reference Energy          =    -514.6486437342836098 [Eh]
	 Singles Energy            =      -0.0000000000000000 [Eh]
	 Same-Spin Energy          =      -0.1817634625728168 [Eh]
	 Opposite-Spin Energy      =      -0.6172709802706485 [Eh]
	 Correlation Energy        =      -0.7990344428434653 [Eh]
	 Total Energy              =    -515.4476781771270453 [Eh]

	 ================> DF-SCS-MP2 Energies <==================
	-----------------------------------------------------------
	 SCS Same-Spin Scale       =       0.3333333333333333 [-]
	 SCS Opposite-Spin Scale   =       1.2000000000000000 [-]
	 SCS Same-Spin Energy      =      -0.0605878208576056 [Eh]
	 SCS Opposite-Spin Energy  =      -0.7407251763247782 [Eh]
	 SCS Correlation Energy    =      -0.8013129971823838 [Eh]
	 SCS Total Energy          =    -515.4499567314660453 [Eh]
	-----------------------------------------------------------

  Dipole Moment: [D]
     X:     1.8517      Y:    -0.1271      Z:     0.2313     Total:     1.8704

*** Psi4 exiting successfully. Buy a developer a beer!
