                               Psi4 1.3.2 release

  ==> Input File <==

--------------------------------------------------------------------------
#psi4
#
memory 32 gb

molecule  {
0 1
  S       -1.2012588     0.1500049    -0.0305474
  C        1.3250500     0.0000000    -0.1840330
  C        0.3432180     1.1342250     0.1513900
  C        0.3432180    -1.1342250     0.1513900
  H        1.5467150     0.0000000    -1.2542590
  H        2.2680760     0.0000000     0.3724170
  H        0.4197390     1.4673530     1.1897290
  H        0.3465650     2.0011350    -0.5120140
  H        0.3465650    -2.0011350    -0.5120140
  H        0.4197390    -1.4673530     1.1897290
units angstrom
no_reorient  #important for SAPT in psi4, default
symmetry c1  #important for SAPT in psi4, default
}

set PROPERTIES_ORIGIN ["COM"]
properties('MP2/aug-cc-pvtz', properties = ['dipole'])
--------------------------------------------------------------------------

    Molecular point group: c1
  Charge       = 0
  Multiplicity = 1
  Basis Set: AUG-CC-PVTZ
    Blend: AUG-CC-PVTZ
  Basis Set: (AUG-CC-PVTZ AUX)
    Blend: AUG-CC-PVTZ-JKFIT

    Orbital Energies [Eh]
    ---------------------

    Doubly Occupied:

       1A    -91.944770     2A    -11.276661     3A    -11.258878
       4A    -11.243518     5A     -8.943061     6A     -6.623789
       7A     -6.623223     8A     -6.622081     9A     -1.115095
      10A     -0.925856    11A     -0.893514    12A     -0.762059
      13A     -0.654620    14A     -0.621355    15A     -0.568285
      16A     -0.510194    17A     -0.506618    18A     -0.445025
      19A     -0.403981    20A     -0.337260

  @DF-RHF Final Energy:  -514.64640104466662

   => Energetics <=

    Nuclear Repulsion Energy =            160.7669302380818692
    One-Electron Energy =               -1026.2669782701827899
    Two-Electron Energy =                 350.8536469874343311
    Total Energy =                       -514.6464010446666180
  Basis Set: (AUG-CC-PVTZ AUX)
    Blend: AUG-CC-PVTZ-RI
    Molecular point group: c1

    Geometry (in Angstrom), charge = 0, multiplicity = 1:

       Center              X                  Y                   Z               Mass
    ------------   -----------------  -----------------  -----------------  -----------------
         S           -1.081294267656     0.085211185483    -0.043052215347    31.972071174400
         C            1.445014532344    -0.064793714517    -0.196537815347    12.000000000000
         C            0.463182532344     1.069431285483     0.138885184653    12.000000000000
         C            0.463182532344    -1.199018714517     0.138885184653    12.000000000000
         H            1.666679532344    -0.064793714517    -1.266763815347     1.007825032230
         H            2.388040532344    -0.064793714517     0.359912184653     1.007825032230
         H            0.539703532344     1.402559285483     1.177224184653     1.007825032230
         H            0.466529532344     1.936341285483    -0.524518815347     1.007825032230
         H            0.466529532344    -2.065928714517    -0.524518815347     1.007825032230
         H            0.539703532344    -1.532146714517     1.177224184653     1.007825032230

  Basis Set: AUG-CC-PVTZ
    Blend: AUG-CC-PVTZ
  Basis Set: (AUG-CC-PVTZ AUX)
    Blend: AUG-CC-PVTZ-JKFIT
	 Reference Energy          =    -514.6464010446666180 [Eh]
	 Singles Energy            =      -0.0000000000000000 [Eh]
	 Same-Spin Energy          =      -0.1804326587464976 [Eh]
	 Opposite-Spin Energy      =      -0.6183035762703903 [Eh]
	 Correlation Energy        =      -0.7987362350168880 [Eh]
	 Total Energy              =    -515.4451372796835358 [Eh]

	 ================> DF-SCS-MP2 Energies <==================
	-----------------------------------------------------------
	 SCS Same-Spin Scale       =       0.3333333333333333 [-]
	 SCS Opposite-Spin Scale   =       1.2000000000000000 [-]
	 SCS Same-Spin Energy      =      -0.0601442195821659 [Eh]
	 SCS Opposite-Spin Energy  =      -0.7419642915244684 [Eh]
	 SCS Correlation Energy    =      -0.8021085111066343 [Eh]
	 SCS Total Energy          =    -515.4485095557732848 [Eh]
	-----------------------------------------------------------

  Dipole Moment: [D]
     X:     2.1250      Y:    -0.1555      Z:     0.2363     Total:     2.1437

*** Psi4 exiting successfully. Buy a developer a beer!
