                               Psi4 1.3.2 release

  ==> Input File <==

--------------------------------------------------------------------------
#psi4
#
memory 32 gb

molecule  {
0 1
  S       -1.0885200     0.0000000    -0.0741290
  C        1.3250500     0.0000000    -0.1840330
  C        0.3432180     1.1342250     0.1513900
  C        0.3432180    -1.1342250     0.1513900
  H        1.5092296     0.0000000    -1.2613430
  H        2.2680760     0.0000000     0.3724170
  H        0.4197390     1.4673530     1.1897290
  H        0.3465650     2.0011350    -0.5120140
  H        0.3465650    -2.0011350    -0.5120140
  H        0.4197390    -1.4673530     1.1897290
units angstrom
no_reorient  #important for SAPT in psi4, default
symmetry c1  #important for SAPT in psi4, default
}

set PROPERTIES_ORIGIN ["COM"]
properties('MP2/aug-cc-pvtz', properties = ['dipole'])
--------------------------------------------------------------------------

    Molecular point group: c1
  Charge       = 0
  Multiplicity = 1
  Basis Set: AUG-CC-PVTZ
    Blend: AUG-CC-PVTZ
  Basis Set: (AUG-CC-PVTZ AUX)
    Blend: AUG-CC-PVTZ-JKFIT

    Orbital Energies [Eh]
    ---------------------

    Doubly Occupied:

       1A    -91.941874     2A    -11.258787     3A    -11.258786
       4A    -11.241238     5A     -8.942190     6A     -6.622984
       7A     -6.622654     8A     -6.621353     9A     -1.132538
      10A     -0.920603    11A     -0.904847    12A     -0.758802
      13A     -0.656792    14A     -0.621271    15A     -0.566613
      16A     -0.512961    17A     -0.506608    18A     -0.462476
      19A     -0.409576    20A     -0.336002

  @DF-RHF Final Energy:  -514.65775731959366

   => Energetics <=

    Nuclear Repulsion Energy =            164.7460948196260802
    One-Electron Energy =               -1034.2097949737453746
    Two-Electron Energy =                 354.8059428345257516
    Total Energy =                       -514.6577573195936566
  Basis Set: (AUG-CC-PVTZ AUX)
    Blend: AUG-CC-PVTZ-RI
    Molecular point group: c1

    Geometry (in Angstrom), charge = 0, multiplicity = 1:

       Center              X                  Y                   Z               Mass
    ------------   -----------------  -----------------  -----------------  -----------------
         S           -1.016741922264    -0.000000000000    -0.067712551275    31.972071174400
         C            1.396828077736    -0.000000000000    -0.177616551275    12.000000000000
         C            0.414996077736     1.134225000000     0.157806448725    12.000000000000
         C            0.414996077736    -1.134225000000     0.157806448725    12.000000000000
         H            1.581007677736    -0.000000000000    -1.254926551275     1.007825032230
         H            2.339854077736    -0.000000000000     0.378833448725     1.007825032230
         H            0.491517077736     1.467353000000     1.196145448725     1.007825032230
         H            0.418343077736     2.001135000000    -0.505597551275     1.007825032230
         H            0.418343077736    -2.001135000000    -0.505597551275     1.007825032230
         H            0.491517077736    -1.467353000000     1.196145448725     1.007825032230

  Basis Set: AUG-CC-PVTZ
    Blend: AUG-CC-PVTZ
  Basis Set: (AUG-CC-PVTZ AUX)
    Blend: AUG-CC-PVTZ-JKFIT
	 Reference Energy          =    -514.6577573195936566 [Eh]
	 Singles Energy            =      -0.0000000000000000 [Eh]
	 Same-Spin Energy          =      -0.1810034848135140 [Eh]
	 Opposite-Spin Energy      =      -0.6167096643650141 [Eh]
	 Correlation Energy        =      -0.7977131491785281 [Eh]
	 Total Energy              =    -515.4554704687722051 [Eh]

	 ================> DF-SCS-MP2 Energies <==================
	-----------------------------------------------------------
	 SCS Same-Spin Scale       =       0.3333333333333333 [-]
	 SCS Opposite-Spin Scale   =       1.2000000000000000 [-]
	 SCS Same-Spin Energy      =      -0.0603344949378380 [Eh]
	 SCS Opposite-Spin Energy  =      -0.7400515972380168 [Eh]
	 SCS Correlation Energy    =      -0.8003860921758548 [Eh]
	 SCS Total Energy          =    -515.4581434117694698 [Eh]
	-----------------------------------------------------------

  Dipole Moment: [D]
     X:     1.9306      Y:     0.0000      Z:     0.2516     Total:     1.9470

*** Psi4 exiting successfully. Buy a developer a beer!
