                               Psi4 1.3.2 release

  ==> Input File <==

--------------------------------------------------------------------------
#psi4
#
memory 32 gb

molecule  {
0 1
  S       -1.0885200     0.0000000    -0.0741290
  C        1.3250500     0.0000000    -0.1840330
  C        0.3812744     1.1697439     0.1383888
  C        0.3432180    -1.1342250     0.1513900
  H        1.5467150     0.0000000    -1.2542590
  H        2.2680760     0.0000000     0.3724170
  H        0.4197390     1.4673530     1.1897290
  H        0.3465650     2.0011350    -0.5120140
  H        0.3465650    -2.0011350    -0.5120140
  H        0.4197390    -1.4673530     1.1897290
units angstrom
no_reorient  #important for SAPT in psi4, default
symmetry c1  #important for SAPT in psi4, default
}

set PROPERTIES_ORIGIN ["COM"]
properties('MP2/aug-cc-pvtz', properties = ['dipole'])
--------------------------------------------------------------------------

    Molecular point group: c1
  Charge       = 0
  Multiplicity = 1
  Basis Set: AUG-CC-PVTZ
    Blend: AUG-CC-PVTZ
  Basis Set: (AUG-CC-PVTZ AUX)
    Blend: AUG-CC-PVTZ-JKFIT

    Orbital Energies [Eh]
    ---------------------

    Doubly Occupied:

       1A    -91.941167     2A    -11.260107     3A    -11.258606
       4A    -11.242526     5A     -8.940911     6A     -6.621665
       7A     -6.621307     8A     -6.620055     9A     -1.127195
      10A     -0.924359    11A     -0.901287    12A     -0.761726
      13A     -0.660005    14A     -0.619042    15A     -0.571640
      16A     -0.515095    17A     -0.506430    18A     -0.461643
      19A     -0.402317    20A     -0.335646

  @DF-RHF Final Energy:  -514.65634308132599

   => Energetics <=

    Nuclear Repulsion Energy =            163.9191254073944322
    One-Electron Energy =               -1032.5654832985676421
    Two-Electron Energy =                 353.9900148098471959
    Total Energy =                       -514.6563430813259856
  Basis Set: (AUG-CC-PVTZ AUX)
    Blend: AUG-CC-PVTZ-RI
    Molecular point group: c1

    Geometry (in Angstrom), charge = 0, multiplicity = 1:

       Center              X                  Y                   Z               Mass
    ------------   -----------------  -----------------  -----------------  -----------------
         S           -1.023422036582    -0.005758341466    -0.065701244388    31.972071174400
         C            1.390147963418    -0.005758341466    -0.175605244388    12.000000000000
         C            0.446372363418     1.163985558534     0.146816555612    12.000000000000
         C            0.408315963418    -1.139983341466     0.159817755612    12.000000000000
         H            1.611812963418    -0.005758341466    -1.245831244388     1.007825032230
         H            2.333173963418    -0.005758341466     0.380844755612     1.007825032230
         H            0.484836963418     1.461594658534     1.198156755612     1.007825032230
         H            0.411662963418     1.995376658534    -0.503586244388     1.007825032230
         H            0.411662963418    -2.006893341466    -0.503586244388     1.007825032230
         H            0.484836963418    -1.473111341466     1.198156755612     1.007825032230

  Basis Set: AUG-CC-PVTZ
    Blend: AUG-CC-PVTZ
  Basis Set: (AUG-CC-PVTZ AUX)
    Blend: AUG-CC-PVTZ-JKFIT
	 Reference Energy          =    -514.6563430813259856 [Eh]
	 Singles Energy            =      -0.0000000000000000 [Eh]
	 Same-Spin Energy          =      -0.1807348367554746 [Eh]
	 Opposite-Spin Energy      =      -0.6166986127809089 [Eh]
	 Correlation Energy        =      -0.7974334495363835 [Eh]
	 Total Energy              =    -515.4537765308623420 [Eh]

	 ================> DF-SCS-MP2 Energies <==================
	-----------------------------------------------------------
	 SCS Same-Spin Scale       =       0.3333333333333333 [-]
	 SCS Opposite-Spin Scale   =       1.2000000000000000 [-]
	 SCS Same-Spin Energy      =      -0.0602449455851582 [Eh]
	 SCS Opposite-Spin Energy  =      -0.7400383353370906 [Eh]
	 SCS Correlation Energy    =      -0.8002832809222489 [Eh]
	 SCS Total Energy          =    -515.4566263622482438 [Eh]
	-----------------------------------------------------------

  Dipole Moment: [D]
     X:     1.9796      Y:     0.0524      Z:     0.2445     Total:     1.9953

*** Psi4 exiting successfully. Buy a developer a beer!
