                               Psi4 1.3.2 release

  ==> Input File <==

--------------------------------------------------------------------------
#psi4
#
memory 32 gb

molecule  {
0 1
  S       -1.0885200     0.0000000    -0.0741290
  C        1.3250500     0.0000000    -0.1840330
  C        0.3432180     1.1342250     0.1513900
  C        0.3432180    -1.1342250     0.1513900
  H        1.5467150     0.0000000    -1.2542590
  H        2.2680760     0.0000000     0.3724170
  H        0.4174065     1.3940074     1.2106288
  H        0.3465650     2.0011350    -0.5120140
  H        0.3465650    -2.0011350    -0.5120140
  H        0.4197390    -1.4673530     1.1897290
units angstrom
no_reorient  #important for SAPT in psi4, default
symmetry c1  #important for SAPT in psi4, default
}

set PROPERTIES_ORIGIN ["COM"]
properties('MP2/aug-cc-pvtz', properties = ['dipole'])
--------------------------------------------------------------------------

    Molecular point group: c1
  Charge       = 0
  Multiplicity = 1
  Basis Set: AUG-CC-PVTZ
    Blend: AUG-CC-PVTZ
  Basis Set: (AUG-CC-PVTZ AUX)
    Blend: AUG-CC-PVTZ-JKFIT

    Orbital Energies [Eh]
    ---------------------

    Doubly Occupied:

       1A    -91.941258     2A    -11.259377     3A    -11.258911
       4A    -11.240670     5A     -8.941641     6A     -6.622434
       7A     -6.622106     8A     -6.620800     9A     -1.132816
      10A     -0.920298    11A     -0.905117    12A     -0.757424
      13A     -0.658441    14A     -0.620917    15A     -0.569176
      16A     -0.513005    17A     -0.506775    18A     -0.460353
      19A     -0.409584    20A     -0.335630

  @DF-RHF Final Energy:  -514.65732544052355

   => Energetics <=

    Nuclear Repulsion Energy =            164.7908444071889278
    One-Electron Energy =               -1034.3028770171360975
    Two-Electron Energy =                 354.8547071694235342
    Total Energy =                       -514.6573254405236639
  Basis Set: (AUG-CC-PVTZ AUX)
    Blend: AUG-CC-PVTZ-RI
    Molecular point group: c1

    Geometry (in Angstrom), charge = 0, multiplicity = 1:

       Center              X                  Y                   Z               Mass
    ------------   -----------------  -----------------  -----------------  -----------------
         S           -1.017220555619     0.000998655890    -0.068093571905    31.972071174400
         C            1.396349444381     0.000998655890    -0.177997571905    12.000000000000
         C            0.414517444381     1.135223655890     0.157425428095    12.000000000000
         C            0.414517444381    -1.133226344110     0.157425428095    12.000000000000
         H            1.618014444381     0.000998655890    -1.248223571905     1.007825032230
         H            2.339375444381     0.000998655890     0.378452428095     1.007825032230
         H            0.488705944381     1.395006055890     1.216664228095     1.007825032230
         H            0.417864444381     2.002133655890    -0.505978571905     1.007825032230
         H            0.417864444381    -2.000136344110    -0.505978571905     1.007825032230
         H            0.491038444381    -1.466354344110     1.195764428095     1.007825032230

  Basis Set: AUG-CC-PVTZ
    Blend: AUG-CC-PVTZ
  Basis Set: (AUG-CC-PVTZ AUX)
    Blend: AUG-CC-PVTZ-JKFIT
	 Reference Energy          =    -514.6573254405235502 [Eh]
	 Singles Energy            =      -0.0000000000000000 [Eh]
	 Same-Spin Energy          =      -0.1810483144440052 [Eh]
	 Opposite-Spin Energy      =      -0.6167740036043550 [Eh]
	 Correlation Energy        =      -0.7978223180483601 [Eh]
	 Total Energy              =    -515.4551477585719113 [Eh]

	 ================> DF-SCS-MP2 Energies <==================
	-----------------------------------------------------------
	 SCS Same-Spin Scale       =       0.3333333333333333 [-]
	 SCS Opposite-Spin Scale   =       1.2000000000000000 [-]
	 SCS Same-Spin Energy      =      -0.0603494381480017 [Eh]
	 SCS Opposite-Spin Energy  =      -0.7401288043252260 [Eh]
	 SCS Correlation Energy    =      -0.8004782424732277 [Eh]
	 SCS Total Energy          =    -515.4578036829967687 [Eh]
	-----------------------------------------------------------

  Dipole Moment: [D]
     X:     1.9444      Y:    -0.0054      Z:     0.2540     Total:     1.9610

*** Psi4 exiting successfully. Buy a developer a beer!
