                               Psi4 1.3.2 release

  ==> Input File <==

--------------------------------------------------------------------------
#psi4
#
memory 32 gb

molecule  {
0 1
  S       -1.1655021     0.0987214    -0.0453202
  C        1.3250500     0.0000000    -0.1840330
  C        0.3432180     1.1342250     0.1513900
  C        0.3432180    -1.1342250     0.1513900
  H        1.5467150     0.0000000    -1.2542590
  H        2.2680760     0.0000000     0.3724170
  H        0.4197390     1.4673530     1.1897290
  H        0.3465650     2.0011350    -0.5120140
  H        0.3465650    -2.0011350    -0.5120140
  H        0.4197390    -1.4673530     1.1897290
units angstrom
no_reorient  #important for SAPT in psi4, default
symmetry c1  #important for SAPT in psi4, default
}

set PROPERTIES_ORIGIN ["COM"]
properties('MP2/aug-cc-pvtz', properties = ['dipole'])
--------------------------------------------------------------------------

    Molecular point group: c1
  Charge       = 0
  Multiplicity = 1
  Basis Set: AUG-CC-PVTZ
    Blend: AUG-CC-PVTZ
  Basis Set: (AUG-CC-PVTZ AUX)
    Blend: AUG-CC-PVTZ-JKFIT

    Orbital Energies [Eh]
    ---------------------

    Doubly Occupied:

       1A    -91.944214     2A    -11.270719     3A    -11.258929
       4A    -11.242464     5A     -8.943024     6A     -6.623775
       7A     -6.623277     8A     -6.622102     9A     -1.119724
      10A     -0.922691    11A     -0.898089    12A     -0.761101
      13A     -0.654571    14A     -0.621306    15A     -0.567330
      16A     -0.510430    17A     -0.506203    18A     -0.449288
      19A     -0.408082    20A     -0.337316

  @DF-RHF Final Energy:  -514.65222631682832

   => Energetics <=

    Nuclear Repulsion Energy =            161.9963700730902190
    One-Electron Energy =               -1028.7279209266816906
    Two-Electron Energy =                 352.0793245367631812
    Total Energy =                       -514.6522263168283189
  Basis Set: (AUG-CC-PVTZ AUX)
    Blend: AUG-CC-PVTZ-RI
    Molecular point group: c1

    Geometry (in Angstrom), charge = 0, multiplicity = 1:

       Center              X                  Y                   Z               Mass
    ------------   -----------------  -----------------  -----------------  -----------------
         S           -1.060982459202     0.056079284921    -0.051443993222    31.972071174400
         C            1.429569640798    -0.042642115079    -0.190156793222    12.000000000000
         C            0.447737640798     1.091582884921     0.145266206778    12.000000000000
         C            0.447737640798    -1.176867115079     0.145266206778    12.000000000000
         H            1.651234640798    -0.042642115079    -1.260382793222     1.007825032230
         H            2.372595640798    -0.042642115079     0.366293206778     1.007825032230
         H            0.524258640798     1.424710884921     1.183605206778     1.007825032230
         H            0.451084640798     1.958492884921    -0.518137793222     1.007825032230
         H            0.451084640798    -2.043777115079    -0.518137793222     1.007825032230
         H            0.524258640798    -1.509995115079     1.183605206778     1.007825032230

  Basis Set: AUG-CC-PVTZ
    Blend: AUG-CC-PVTZ
  Basis Set: (AUG-CC-PVTZ AUX)
    Blend: AUG-CC-PVTZ-JKFIT
	 Reference Energy          =    -514.6522263168283189 [Eh]
	 Singles Energy            =      -0.0000000000000000 [Eh]
	 Same-Spin Energy          =      -0.1805262303316885 [Eh]
	 Opposite-Spin Energy      =      -0.6176144589454209 [Eh]
	 Correlation Energy        =      -0.7981406892771093 [Eh]
	 Total Energy              =    -515.4503670061054663 [Eh]

	 ================> DF-SCS-MP2 Energies <==================
	-----------------------------------------------------------
	 SCS Same-Spin Scale       =       0.3333333333333333 [-]
	 SCS Opposite-Spin Scale   =       1.2000000000000000 [-]
	 SCS Same-Spin Energy      =      -0.0601754101105628 [Eh]
	 SCS Opposite-Spin Energy  =      -0.7411373507345050 [Eh]
	 SCS Correlation Energy    =      -0.8013127608450679 [Eh]
	 SCS Total Energy          =    -515.4535390776734403 [Eh]
	-----------------------------------------------------------

  Dipole Moment: [D]
     X:     2.0564      Y:    -0.1015      Z:     0.2416     Total:     2.0730

*** Psi4 exiting successfully. Buy a developer a beer!
