                               Psi4 1.3.2 release

  ==> Input File <==

--------------------------------------------------------------------------
#psi4
#
memory 32 gb

molecule  {
0 1
  S       -1.0885200     0.0000000    -0.0741290
  C        1.3250500     0.0000000    -0.1840330
  C        0.3438359     1.1268190     0.1771689
  C        0.3432180    -1.1342250     0.1513900
  H        1.5467150     0.0000000    -1.2542590
  H        2.2680760     0.0000000     0.3724170
  H        0.4197390     1.4673530     1.1897290
  H        0.3465650     2.0011350    -0.5120140
  H        0.3465650    -2.0011350    -0.5120140
  H        0.4197390    -1.4673530     1.1897290
units angstrom
no_reorient  #important for SAPT in psi4, default
symmetry c1  #important for SAPT in psi4, default
}

set PROPERTIES_ORIGIN ["COM"]
properties('MP2/aug-cc-pvtz', properties = ['dipole'])
--------------------------------------------------------------------------

    Molecular point group: c1
  Charge       = 0
  Multiplicity = 1
  Basis Set: AUG-CC-PVTZ
    Blend: AUG-CC-PVTZ
  Basis Set: (AUG-CC-PVTZ AUX)
    Blend: AUG-CC-PVTZ-JKFIT

    Orbital Energies [Eh]
    ---------------------

    Doubly Occupied:

       1A    -91.941812     2A    -11.258926     3A    -11.258857
       4A    -11.241060     5A     -8.942157     6A     -6.622949
       7A     -6.622617     8A     -6.621313     9A     -1.132614
      10A     -0.920241    11A     -0.905294    12A     -0.760227
      13A     -0.653934    14A     -0.622247    15A     -0.568314
      16A     -0.512500    17A     -0.507317    18A     -0.459916
      19A     -0.410529    20A     -0.336284

  @DF-RHF Final Energy:  -514.65706432170805

   => Energetics <=

    Nuclear Repulsion Energy =            164.7366982919112104
    One-Electron Energy =               -1034.1893068045158088
    Two-Electron Energy =                 354.7955441908965213
    Total Energy =                       -514.6570643217080487
  Basis Set: (AUG-CC-PVTZ AUX)
    Blend: AUG-CC-PVTZ-RI
    Molecular point group: c1

    Geometry (in Angstrom), charge = 0, multiplicity = 1:

       Center              X                  Y                   Z               Mass
    ------------   -----------------  -----------------  -----------------  -----------------
         S           -1.017352488624     0.001200664348    -0.071988293195    31.972071174400
         C            1.396217511376     0.001200664348    -0.181892293195    12.000000000000
         C            0.415003411376     1.128019664348     0.179309606805    12.000000000000
         C            0.414385511376    -1.133024335652     0.153530706805    12.000000000000
         H            1.617882511376     0.001200664348    -1.252118293195     1.007825032230
         H            2.339243511376     0.001200664348     0.374557706805     1.007825032230
         H            0.490906511376     1.468553664348     1.191869706805     1.007825032230
         H            0.417732511376     2.002335664348    -0.509873293195     1.007825032230
         H            0.417732511376    -1.999934335652    -0.509873293195     1.007825032230
         H            0.490906511376    -1.466152335652     1.191869706805     1.007825032230

  Basis Set: AUG-CC-PVTZ
    Blend: AUG-CC-PVTZ
  Basis Set: (AUG-CC-PVTZ AUX)
    Blend: AUG-CC-PVTZ-JKFIT
	 Reference Energy          =    -514.6570643217080487 [Eh]
	 Singles Energy            =      -0.0000000000000000 [Eh]
	 Same-Spin Energy          =      -0.1809902707375693 [Eh]
	 Opposite-Spin Energy      =      -0.6166931708393723 [Eh]
	 Correlation Energy        =      -0.7976834415769416 [Eh]
	 Total Energy              =    -515.4547477632850132 [Eh]

	 ================> DF-SCS-MP2 Energies <==================
	-----------------------------------------------------------
	 SCS Same-Spin Scale       =       0.3333333333333333 [-]
	 SCS Opposite-Spin Scale   =       1.2000000000000000 [-]
	 SCS Same-Spin Energy      =      -0.0603300902458564 [Eh]
	 SCS Opposite-Spin Energy  =      -0.7400318050072466 [Eh]
	 SCS Correlation Energy    =      -0.8003618952531031 [Eh]
	 SCS Total Energy          =    -515.4574262169611529 [Eh]
	-----------------------------------------------------------

  Dipole Moment: [D]
     X:     1.9375      Y:    -0.0073      Z:     0.2611     Total:     1.9551

*** Psi4 exiting successfully. Buy a developer a beer!
