                               Psi4 1.3.2 release

  ==> Input File <==

--------------------------------------------------------------------------
#psi4
#
memory 32 gb

molecule  {
0 1
  S       -1.1084347     0.0241806    -0.0670244
  C        1.3250500     0.0000000    -0.1840330
  C        0.3432180     1.1342250     0.1513900
  C        0.3432180    -1.1342250     0.1513900
  H        1.5467150     0.0000000    -1.2542590
  H        2.2680760     0.0000000     0.3724170
  H        0.4197390     1.4673530     1.1897290
  H        0.3465650     2.0011350    -0.5120140
  H        0.3465650    -2.0011350    -0.5120140
  H        0.4197390    -1.4673530     1.1897290
units angstrom
no_reorient  #important for SAPT in psi4, default
symmetry c1  #important for SAPT in psi4, default
}

set PROPERTIES_ORIGIN ["COM"]
properties('MP2/aug-cc-pvtz', properties = ['dipole'])
--------------------------------------------------------------------------

    Molecular point group: c1
  Charge       = 0
  Multiplicity = 1
  Basis Set: AUG-CC-PVTZ
    Blend: AUG-CC-PVTZ
  Basis Set: (AUG-CC-PVTZ AUX)
    Blend: AUG-CC-PVTZ-JKFIT

    Orbital Energies [Eh]
    ---------------------

    Doubly Occupied:

       1A    -91.942619     2A    -11.261875     3A    -11.258963
       4A    -11.241364     5A     -8.942491     6A     -6.623272
       7A     -6.622902     8A     -6.621638     9A     -1.128618
      10A     -0.920027    11A     -0.904260    12A     -0.759573
      13A     -0.655253    14A     -0.621707    15A     -0.566614
      16A     -0.512015    17A     -0.506068    18A     -0.458800
      19A     -0.410104    20A     -0.336519

  @DF-RHF Final Energy:  -514.65743726672792

   => Energetics <=

    Nuclear Repulsion Energy =            163.9868471123835434
    One-Electron Energy =               -1032.6992041744326798
    Two-Electron Energy =                 354.0549197953212683
    Total Energy =                       -514.6574372667278112
  Basis Set: (AUG-CC-PVTZ AUX)
    Blend: AUG-CC-PVTZ-RI
    Molecular point group: c1

    Geometry (in Angstrom), charge = 0, multiplicity = 1:

       Center              X                  Y                   Z               Mass
    ------------   -----------------  -----------------  -----------------  -----------------
         S           -1.028564979463     0.013735935237    -0.063773194548    31.972071174400
         C            1.404919720537    -0.010444664763    -0.180781794548    12.000000000000
         C            0.423087720537     1.123780335237     0.154641205452    12.000000000000
         C            0.423087720537    -1.144669664763     0.154641205452    12.000000000000
         H            1.626584720537    -0.010444664763    -1.251007794548     1.007825032230
         H            2.347945720537    -0.010444664763     0.375668205452     1.007825032230
         H            0.499608720537     1.456908335237     1.192980205452     1.007825032230
         H            0.426434720537     1.990690335237    -0.508762794548     1.007825032230
         H            0.426434720537    -2.011579664763    -0.508762794548     1.007825032230
         H            0.499608720537    -1.477797664763     1.192980205452     1.007825032230

  Basis Set: AUG-CC-PVTZ
    Blend: AUG-CC-PVTZ
  Basis Set: (AUG-CC-PVTZ AUX)
    Blend: AUG-CC-PVTZ-JKFIT
	 Reference Energy          =    -514.6574372667279249 [Eh]
	 Singles Energy            =      -0.0000000000000000 [Eh]
	 Same-Spin Energy          =      -0.1808066110252872 [Eh]
	 Opposite-Spin Energy      =      -0.6168184910041241 [Eh]
	 Correlation Energy        =      -0.7976251020294114 [Eh]
	 Total Energy              =    -515.4550623687573534 [Eh]

	 ================> DF-SCS-MP2 Energies <==================
	-----------------------------------------------------------
	 SCS Same-Spin Scale       =       0.3333333333333333 [-]
	 SCS Opposite-Spin Scale   =       1.2000000000000000 [-]
	 SCS Same-Spin Energy      =      -0.0602688703417624 [Eh]
	 SCS Opposite-Spin Energy  =      -0.7401821892049489 [Eh]
	 SCS Correlation Energy    =      -0.8004510595467114 [Eh]
	 SCS Total Energy          =    -515.4578883262746558 [Eh]
	-----------------------------------------------------------

  Dipole Moment: [D]
     X:     1.9647      Y:    -0.0243      Z:     0.2470     Total:     1.9803

*** Psi4 exiting successfully. Buy a developer a beer!
