                               Psi4 1.3.2 release

  ==> Input File <==

--------------------------------------------------------------------------
#psi4
#
memory 32 gb

molecule  {
0 1
  S       -1.0885200     0.0000000    -0.0741290
  C        1.3250500     0.0000000    -0.1840330
  C        0.3432180     1.1342250     0.1513900
  C        0.3432180    -1.1342250     0.1513900
  H        1.6208302     0.0000000    -1.2361894
  H        2.2680760     0.0000000     0.3724170
  H        0.4197390     1.4673530     1.1897290
  H        0.3465650     2.0011350    -0.5120140
  H        0.3465650    -2.0011350    -0.5120140
  H        0.4197390    -1.4673530     1.1897290
units angstrom
no_reorient  #important for SAPT in psi4, default
symmetry c1  #important for SAPT in psi4, default
}

set PROPERTIES_ORIGIN ["COM"]
properties('MP2/aug-cc-pvtz', properties = ['dipole'])
--------------------------------------------------------------------------

    Molecular point group: c1
  Charge       = 0
  Multiplicity = 1
  Basis Set: AUG-CC-PVTZ
    Blend: AUG-CC-PVTZ
  Basis Set: (AUG-CC-PVTZ AUX)
    Blend: AUG-CC-PVTZ-JKFIT

    Orbital Energies [Eh]
    ---------------------

    Doubly Occupied:

       1A    -91.941904     2A    -11.259328     3A    -11.259328
       4A    -11.240955     5A     -8.942224     6A     -6.623015
       7A     -6.622689     8A     -6.621382     9A     -1.131577
      10A     -0.920678    11A     -0.906031    12A     -0.759670
      13A     -0.653838    14A     -0.623552    15A     -0.566608
      16A     -0.512939    17A     -0.504369    18A     -0.462599
      19A     -0.410333    20A     -0.335982

  @DF-RHF Final Energy:  -514.65746558947933

   => Energetics <=

    Nuclear Repulsion Energy =            164.5921394027483018
    One-Electron Energy =               -1033.9012118571072278
    Two-Electron Energy =                 354.6516068648796249
    Total Energy =                       -514.6574655894792159
  Basis Set: (AUG-CC-PVTZ AUX)
    Blend: AUG-CC-PVTZ-RI
    Molecular point group: c1

    Geometry (in Angstrom), charge = 0, multiplicity = 1:

       Center              X                  Y                   Z               Mass
    ------------   -----------------  -----------------  -----------------  -----------------
         S           -1.018261448950    -0.000000000000    -0.068055036589    31.972071174400
         C            1.395308551050    -0.000000000000    -0.177959036589    12.000000000000
         C            0.413476551050     1.134225000000     0.157463963411    12.000000000000
         C            0.413476551050    -1.134225000000     0.157463963411    12.000000000000
         H            1.691088751050    -0.000000000000    -1.230115436589     1.007825032230
         H            2.338334551050    -0.000000000000     0.378490963411     1.007825032230
         H            0.489997551050     1.467353000000     1.195802963411     1.007825032230
         H            0.416823551050     2.001135000000    -0.505940036589     1.007825032230
         H            0.416823551050    -2.001135000000    -0.505940036589     1.007825032230
         H            0.489997551050    -1.467353000000     1.195802963411     1.007825032230

  Basis Set: AUG-CC-PVTZ
    Blend: AUG-CC-PVTZ
  Basis Set: (AUG-CC-PVTZ AUX)
    Blend: AUG-CC-PVTZ-JKFIT
	 Reference Energy          =    -514.6574655894793295 [Eh]
	 Singles Energy            =      -0.0000000000000000 [Eh]
	 Same-Spin Energy          =      -0.1808735748787457 [Eh]
	 Opposite-Spin Energy      =      -0.6165196866601452 [Eh]
	 Correlation Energy        =      -0.7973932615388909 [Eh]
	 Total Energy              =    -515.4548588510182299 [Eh]

	 ================> DF-SCS-MP2 Energies <==================
	-----------------------------------------------------------
	 SCS Same-Spin Scale       =       0.3333333333333333 [-]
	 SCS Opposite-Spin Scale   =       1.2000000000000000 [-]
	 SCS Same-Spin Energy      =      -0.0602911916262486 [Eh]
	 SCS Opposite-Spin Energy  =      -0.7398236239921743 [Eh]
	 SCS Correlation Energy    =      -0.8001148156184228 [Eh]
	 SCS Total Energy          =    -515.4575804050977013 [Eh]
	-----------------------------------------------------------

  Dipole Moment: [D]
     X:     1.9532      Y:    -0.0000      Z:     0.2433     Total:     1.9683

*** Psi4 exiting successfully. Buy a developer a beer!
