                               Psi4 1.3.2 release

  ==> Input File <==

--------------------------------------------------------------------------
#psi4
#
memory 32 gb

molecule  {
0 1
  S       -1.0885200     0.0000000    -0.0741290
  C        1.3250500     0.0000000    -0.1840330
  C        0.3620995     1.1521599     0.1449395
  C        0.3432180    -1.1342250     0.1513900
  H        1.5467150     0.0000000    -1.2542590
  H        2.2680760     0.0000000     0.3724170
  H        0.4197390     1.4673530     1.1897290
  H        0.3465650     2.0011350    -0.5120140
  H        0.3465650    -2.0011350    -0.5120140
  H        0.4197390    -1.4673530     1.1897290
units angstrom
no_reorient  #important for SAPT in psi4, default
symmetry c1  #important for SAPT in psi4, default
}

set PROPERTIES_ORIGIN ["COM"]
properties('MP2/aug-cc-pvtz', properties = ['dipole'])
--------------------------------------------------------------------------

    Molecular point group: c1
  Charge       = 0
  Multiplicity = 1
  Basis Set: AUG-CC-PVTZ
    Blend: AUG-CC-PVTZ
  Basis Set: (AUG-CC-PVTZ AUX)
    Blend: AUG-CC-PVTZ-JKFIT

    Orbital Energies [Eh]
    ---------------------

    Doubly Occupied:

       1A    -91.941555     2A    -11.259407     3A    -11.258755
       4A    -11.241793     5A     -8.941565     6A     -6.622337
       7A     -6.621997     8A     -6.620721     9A     -1.129571
      10A     -0.922360    11A     -0.903257    12A     -0.760382
      13A     -0.657787    14A     -0.620457    15A     -0.569217
      16A     -0.513628    17A     -0.506340    18A     -0.462304
      19A     -0.406250    20A     -0.335856

  @DF-RHF Final Energy:  -514.65771799633842

   => Energetics <=

    Nuclear Repulsion Energy =            164.3012622746408624
    One-Electron Energy =               -1033.3268782015006764
    Two-Electron Energy =                 354.3678979305213943
    Total Energy =                       -514.6577179963384197
  Basis Set: (AUG-CC-PVTZ AUX)
    Blend: AUG-CC-PVTZ-RI
    Molecular point group: c1

    Geometry (in Angstrom), charge = 0, multiplicity = 1:

       Center              X                  Y                   Z               Mass
    ------------   -----------------  -----------------  -----------------  -----------------
         S           -1.020313392402    -0.002907614773    -0.066763247081    31.972071174400
         C            1.393256607598    -0.002907614773    -0.176667247081    12.000000000000
         C            0.430306107598     1.149252285227     0.152305252919    12.000000000000
         C            0.411424607598    -1.137132614773     0.158755752919    12.000000000000
         H            1.614921607598    -0.002907614773    -1.246893247081     1.007825032230
         H            2.336282607598    -0.002907614773     0.379782752919     1.007825032230
         H            0.487945607598     1.464445385227     1.197094752919     1.007825032230
         H            0.414771607598     1.998227385227    -0.504648247081     1.007825032230
         H            0.414771607598    -2.004042614773    -0.504648247081     1.007825032230
         H            0.487945607598    -1.470260614773     1.197094752919     1.007825032230

  Basis Set: AUG-CC-PVTZ
    Blend: AUG-CC-PVTZ
  Basis Set: (AUG-CC-PVTZ AUX)
    Blend: AUG-CC-PVTZ-JKFIT
	 Reference Energy          =    -514.6577179963384197 [Eh]
	 Singles Energy            =      -0.0000000000000000 [Eh]
	 Same-Spin Energy          =      -0.1808203278142077 [Eh]
	 Opposite-Spin Energy      =      -0.6166247723214238 [Eh]
	 Correlation Energy        =      -0.7974451001356315 [Eh]
	 Total Energy              =    -515.4551630964740525 [Eh]

	 ================> DF-SCS-MP2 Energies <==================
	-----------------------------------------------------------
	 SCS Same-Spin Scale       =       0.3333333333333333 [-]
	 SCS Opposite-Spin Scale   =       1.2000000000000000 [-]
	 SCS Same-Spin Energy      =      -0.0602734426047359 [Eh]
	 SCS Opposite-Spin Energy  =      -0.7399497267857085 [Eh]
	 SCS Correlation Energy    =      -0.8002231693904444 [Eh]
	 SCS Total Energy          =    -515.4579411657288119 [Eh]
	-----------------------------------------------------------

  Dipole Moment: [D]
     X:     1.9590      Y:     0.0277      Z:     0.2462     Total:     1.9746

*** Psi4 exiting successfully. Buy a developer a beer!
