                               Psi4 1.3.2 release

  ==> Input File <==

--------------------------------------------------------------------------
#psi4
#
memory 32 gb

molecule  {
0 1
  S       -1.0885200     0.0000000    -0.0741290
  C        1.3250500     0.0000000    -0.1840330
  C        0.3428991     1.1412855     0.1255089
  C        0.3432180    -1.1342250     0.1513900
  H        1.5467150     0.0000000    -1.2542590
  H        2.2680760     0.0000000     0.3724170
  H        0.4197390     1.4673530     1.1897290
  H        0.3465650     2.0011350    -0.5120140
  H        0.3465650    -2.0011350    -0.5120140
  H        0.4197390    -1.4673530     1.1897290
units angstrom
no_reorient  #important for SAPT in psi4, default
symmetry c1  #important for SAPT in psi4, default
}

set PROPERTIES_ORIGIN ["COM"]
properties('MP2/aug-cc-pvtz', properties = ['dipole'])
--------------------------------------------------------------------------

    Molecular point group: c1
  Charge       = 0
  Multiplicity = 1
  Basis Set: AUG-CC-PVTZ
    Blend: AUG-CC-PVTZ
  Basis Set: (AUG-CC-PVTZ AUX)
    Blend: AUG-CC-PVTZ-JKFIT

    Orbital Energies [Eh]
    ---------------------

    Doubly Occupied:

       1A    -91.942032     2A    -11.259197     3A    -11.259038
       4A    -11.241344     5A     -8.942307     6A     -6.623101
       7A     -6.622775     8A     -6.621473     9A     -1.131799
      10A     -0.921259    11A     -0.905169    12A     -0.758563
      13A     -0.657256    14A     -0.622075    15A     -0.564636
      16A     -0.514337    17A     -0.504132    18A     -0.464723
      19A     -0.409187    20A     -0.335593

  @DF-RHF Final Energy:  -514.65728196340399

   => Energetics <=

    Nuclear Repulsion Energy =            164.6452442832436134
    One-Electron Energy =               -1034.0050614058741303
    Two-Electron Energy =                 354.7025351592264428
    Total Energy =                       -514.6572819634041025
  Basis Set: (AUG-CC-PVTZ AUX)
    Blend: AUG-CC-PVTZ-RI
    Molecular point group: c1

    Geometry (in Angstrom), charge = 0, multiplicity = 1:

       Center              X                  Y                   Z               Mass
    ------------   -----------------  -----------------  -----------------  -----------------
         S           -1.017200614149    -0.001144651718    -0.063613148691    31.972071174400
         C            1.396369385851    -0.001144651718    -0.173517148691    12.000000000000
         C            0.414218485851     1.140140848282     0.136024751309    12.000000000000
         C            0.414537385851    -1.135369651718     0.161905851309    12.000000000000
         H            1.618034385851    -0.001144651718    -1.243743148691     1.007825032230
         H            2.339395385851    -0.001144651718     0.382932851309     1.007825032230
         H            0.491058385851     1.466208348282     1.200244851309     1.007825032230
         H            0.417884385851     1.999990348282    -0.501498148691     1.007825032230
         H            0.417884385851    -2.002279651718    -0.501498148691     1.007825032230
         H            0.491058385851    -1.468497651718     1.200244851309     1.007825032230

  Basis Set: AUG-CC-PVTZ
    Blend: AUG-CC-PVTZ
  Basis Set: (AUG-CC-PVTZ AUX)
    Blend: AUG-CC-PVTZ-JKFIT
	 Reference Energy          =    -514.6572819634039888 [Eh]
	 Singles Energy            =      -0.0000000000000000 [Eh]
	 Same-Spin Energy          =      -0.1809183515918742 [Eh]
	 Opposite-Spin Energy      =      -0.6166336644486585 [Eh]
	 Correlation Energy        =      -0.7975520160405327 [Eh]
	 Total Energy              =    -515.4548339794445155 [Eh]

	 ================> DF-SCS-MP2 Energies <==================
	-----------------------------------------------------------
	 SCS Same-Spin Scale       =       0.3333333333333333 [-]
	 SCS Opposite-Spin Scale   =       1.2000000000000000 [-]
	 SCS Same-Spin Energy      =      -0.0603061171972914 [Eh]
	 SCS Opposite-Spin Energy  =      -0.7399603973383903 [Eh]
	 SCS Correlation Energy    =      -0.8002665145356817 [Eh]
	 SCS Total Energy          =    -515.4575484779396675 [Eh]
	-----------------------------------------------------------

  Dipole Moment: [D]
     X:     1.9378      Y:     0.0037      Z:     0.2337     Total:     1.9518

*** Psi4 exiting successfully. Buy a developer a beer!
