                               Psi4 1.3.2 release

  ==> Input File <==

--------------------------------------------------------------------------
#psi4
#
memory 32 gb

molecule  {
0 1
  S       -1.0885200     0.0000000    -0.0741290
  C        1.3250500     0.0000000    -0.1840330
  C        0.4210115     1.1958531     0.1636436
  C        0.3432180    -1.1342250     0.1513900
  H        1.5467150     0.0000000    -1.2542590
  H        2.2680760     0.0000000     0.3724170
  H        0.4197390     1.4673530     1.1897290
  H        0.3465650     2.0011350    -0.5120140
  H        0.3465650    -2.0011350    -0.5120140
  H        0.4197390    -1.4673530     1.1897290
units angstrom
no_reorient  #important for SAPT in psi4, default
symmetry c1  #important for SAPT in psi4, default
}

set PROPERTIES_ORIGIN ["COM"]
properties('MP2/aug-cc-pvtz', properties = ['dipole'])
--------------------------------------------------------------------------

    Molecular point group: c1
  Charge       = 0
  Multiplicity = 1
  Basis Set: AUG-CC-PVTZ
    Blend: AUG-CC-PVTZ
  Basis Set: (AUG-CC-PVTZ AUX)
    Blend: AUG-CC-PVTZ-JKFIT

    Orbital Energies [Eh]
    ---------------------

    Doubly Occupied:

       1A    -91.939924     2A    -11.261832     3A    -11.258223
       4A    -11.244021     5A     -8.939272     6A     -6.619995
       7A     -6.619593     8A     -6.618383     9A     -1.123176
      10A     -0.927788    11A     -0.897530    12A     -0.764912
      13A     -0.662567    14A     -0.615777    15A     -0.579958
      16A     -0.516735    17A     -0.509297    18A     -0.457280
      19A     -0.394326    20A     -0.335331

  @DF-RHF Final Energy:  -514.65251089054493

   => Energetics <=

    Nuclear Repulsion Energy =            163.2033353754234781
    One-Electron Energy =               -1031.1398526453499471
    Two-Electron Energy =                 353.2840063793815943
    Total Energy =                       -514.6525108905449315
  Basis Set: (AUG-CC-PVTZ AUX)
    Blend: AUG-CC-PVTZ-RI
    Molecular point group: c1

    Geometry (in Angstrom), charge = 0, multiplicity = 1:

       Center              X                  Y                   Z               Mass
    ------------   -----------------  -----------------  -----------------  -----------------
         S           -1.029864234698    -0.009991177759    -0.069795564934    31.972071174400
         C            1.383705765302    -0.009991177759    -0.179699564934    12.000000000000
         C            0.479667265302     1.185861922241     0.167977035066    12.000000000000
         C            0.401873765302    -1.144216177759     0.155723435066    12.000000000000
         H            1.605370765302    -0.009991177759    -1.249925564934     1.007825032230
         H            2.326731765302    -0.009991177759     0.376750435066     1.007825032230
         H            0.478394765302     1.457361822241     1.194062435066     1.007825032230
         H            0.405220765302     1.991143822241    -0.507680564934     1.007825032230
         H            0.405220765302    -2.011126177759    -0.507680564934     1.007825032230
         H            0.478394765302    -1.477344177759     1.194062435066     1.007825032230

  Basis Set: AUG-CC-PVTZ
    Blend: AUG-CC-PVTZ
  Basis Set: (AUG-CC-PVTZ AUX)
    Blend: AUG-CC-PVTZ-JKFIT
	 Reference Energy          =    -514.6525108905449315 [Eh]
	 Singles Energy            =      -0.0000000000000000 [Eh]
	 Same-Spin Energy          =      -0.1806731345026914 [Eh]
	 Opposite-Spin Energy      =      -0.6169873965112183 [Eh]
	 Correlation Energy        =      -0.7976605310139097 [Eh]
	 Total Energy              =    -515.4501714215588208 [Eh]

	 ================> DF-SCS-MP2 Energies <==================
	-----------------------------------------------------------
	 SCS Same-Spin Scale       =       0.3333333333333333 [-]
	 SCS Opposite-Spin Scale   =       1.2000000000000000 [-]
	 SCS Same-Spin Energy      =      -0.0602243781675638 [Eh]
	 SCS Opposite-Spin Energy  =      -0.7403848758134619 [Eh]
	 SCS Correlation Energy    =      -0.8006092539810257 [Eh]
	 SCS Total Energy          =    -515.4531201445259967 [Eh]
	-----------------------------------------------------------

  Dipole Moment: [D]
     X:     2.0205      Y:     0.0923      Z:     0.2581     Total:     2.0390

*** Psi4 exiting successfully. Buy a developer a beer!
