                               Psi4 1.3.2 release

  ==> Input File <==

--------------------------------------------------------------------------
#psi4
#
memory 32 gb

molecule  {
0 1
  S       -1.0885200     0.0000000    -0.0741290
  C        1.3250500     0.0000000    -0.1840330
  C        0.3474819     1.1025513     0.2538143
  C        0.3432180    -1.1342250     0.1513900
  H        1.5467150     0.0000000    -1.2542590
  H        2.2680760     0.0000000     0.3724170
  H        0.4197390     1.4673530     1.1897290
  H        0.3465650     2.0011350    -0.5120140
  H        0.3465650    -2.0011350    -0.5120140
  H        0.4197390    -1.4673530     1.1897290
units angstrom
no_reorient  #important for SAPT in psi4, default
symmetry c1  #important for SAPT in psi4, default
}

set PROPERTIES_ORIGIN ["COM"]
properties('MP2/aug-cc-pvtz', properties = ['dipole'])
--------------------------------------------------------------------------

    Molecular point group: c1
  Charge       = 0
  Multiplicity = 1
  Basis Set: AUG-CC-PVTZ
    Blend: AUG-CC-PVTZ
  Basis Set: (AUG-CC-PVTZ AUX)
    Blend: AUG-CC-PVTZ-JKFIT

    Orbital Energies [Eh]
    ---------------------

    Doubly Occupied:

       1A    -91.942219     2A    -11.259439     3A    -11.259168
       4A    -11.241514     5A     -8.942566     6A     -6.623346
       7A     -6.623007     8A     -6.621698     9A     -1.134169
      10A     -0.920679    11A     -0.905779    12A     -0.767079
      13A     -0.647974    14A     -0.625632    15A     -0.571074
      16A     -0.517341    17A     -0.504670    18A     -0.450525
      19A     -0.412606    20A     -0.336719

  @DF-RHF Final Energy:  -514.64486975152170

   => Energetics <=

    Nuclear Repulsion Energy =            164.8537409120343398
    One-Electron Energy =               -1034.3828132884673323
    Two-Electron Energy =                 354.8842026249112678
    Total Energy =                       -514.6448697515216963
  Basis Set: (AUG-CC-PVTZ AUX)
    Blend: AUG-CC-PVTZ-RI
    Molecular point group: c1

    Geometry (in Angstrom), charge = 0, multiplicity = 1:

       Center              X                  Y                   Z               Mass
    ------------   -----------------  -----------------  -----------------  -----------------
         S           -1.017943579930     0.005134955758    -0.084414082986    31.972071174400
         C            1.395626420070     0.005134955758    -0.194318082986    12.000000000000
         C            0.418058320070     1.107686255758     0.243529217014    12.000000000000
         C            0.413794420070    -1.129090044242     0.141104917014    12.000000000000
         H            1.617291420070     0.005134955758    -1.264544082986     1.007825032230
         H            2.338652420070     0.005134955758     0.362131917014     1.007825032230
         H            0.490315420070     1.472487955758     1.179443917014     1.007825032230
         H            0.417141420070     2.006269955758    -0.522299082986     1.007825032230
         H            0.417141420070    -1.996000044242    -0.522299082986     1.007825032230
         H            0.490315420070    -1.462218044242     1.179443917014     1.007825032230

  Basis Set: AUG-CC-PVTZ
    Blend: AUG-CC-PVTZ
  Basis Set: (AUG-CC-PVTZ AUX)
    Blend: AUG-CC-PVTZ-JKFIT
	 Reference Energy          =    -514.6448697515216963 [Eh]
	 Singles Energy            =      -0.0000000000000000 [Eh]
	 Same-Spin Energy          =      -0.1812452978272117 [Eh]
	 Opposite-Spin Energy      =      -0.6173320080353935 [Eh]
	 Correlation Energy        =      -0.7985773058626051 [Eh]
	 Total Energy              =    -515.4434470573843328 [Eh]

	 ================> DF-SCS-MP2 Energies <==================
	-----------------------------------------------------------
	 SCS Same-Spin Scale       =       0.3333333333333333 [-]
	 SCS Opposite-Spin Scale   =       1.2000000000000000 [-]
	 SCS Same-Spin Energy      =      -0.0604150992757372 [Eh]
	 SCS Opposite-Spin Energy  =      -0.7407984096424721 [Eh]
	 SCS Correlation Energy    =      -0.8012135089182093 [Eh]
	 SCS Total Energy          =    -515.4460832604398774 [Eh]
	-----------------------------------------------------------

  Dipole Moment: [D]
     X:     1.9326      Y:    -0.0503      Z:     0.2932     Total:     1.9554

*** Psi4 exiting successfully. Buy a developer a beer!
