                               Psi4 1.3.2 release

  ==> Input File <==

--------------------------------------------------------------------------
#psi4
#
memory 32 gb

molecule  {
0 1
  O       -0.0048250     2.1741760     0.2178480
  O        2.2663170     0.9084740    -0.5920830
  C        0.2215980    -0.1887240    -0.0416380
  C       -0.5997910     0.9512430     0.0794500
  C       -0.3937360    -1.4453650    -0.1432710
  C        1.7133810    -0.0735570    -0.1011180
  C       -1.9917600     0.8092840     0.0995930
  C       -1.7801750    -1.5845230    -0.1400000
  C       -2.5802090    -0.4482640    -0.0192820
  C        2.5282213    -1.1362769     0.6384387
  H        0.2262520    -2.3327300    -0.2378970
  H       -2.6178000     1.6952910     0.2019520
  H       -2.2312480    -2.5684970    -0.2333300
  H       -3.6639410    -0.5356590    -0.0094230
  H        2.1619230    -1.5277990     1.4440180
  H        3.5676560    -0.9027370     0.5247450
  H        2.4738770    -2.0960730    -0.2017770
  H       -0.7089870     2.8349930     0.3487360
units angstrom
no_reorient  #important for SAPT in psi4, default
symmetry c1  #important for SAPT in psi4, default
}

set PROPERTIES_ORIGIN ["COM"]
properties('MP2/aug-cc-pvtz', properties = ['dipole'])
--------------------------------------------------------------------------

    Molecular point group: c1
  Charge       = 0
  Multiplicity = 1
  Basis Set: AUG-CC-PVTZ
    Blend: AUG-CC-PVTZ
  Basis Set: (AUG-CC-PVTZ AUX)
    Blend: AUG-CC-PVTZ-JKFIT

    Orbital Energies [Eh]
    ---------------------

    Doubly Occupied:

       1A    -20.597294     2A    -20.537602     3A    -11.336542
       4A    -11.325120     5A    -11.260958     6A    -11.260515
       7A    -11.250626     8A    -11.247680     9A    -11.241617
      10A    -11.240546    11A     -1.411021    12A     -1.367756
      13A     -1.163632    14A     -1.057235    15A     -1.019290
      16A     -0.997095    17A     -0.871578    18A     -0.848980
      19A     -0.766151    20A     -0.740518    21A     -0.686948
      22A     -0.674912    23A     -0.645073    24A     -0.622147
      25A     -0.610820    26A     -0.606302    27A     -0.584733
      28A     -0.576162    29A     -0.543960    30A     -0.534699
      31A     -0.520169    32A     -0.494420    33A     -0.464677
      34A     -0.409487    35A     -0.356768    36A     -0.327481

  @DF-RHF Final Energy:  -457.44894997142899

   => Energetics <=

    Nuclear Repulsion Energy =            494.6323712266463986
    One-Electron Energy =               -1603.7616144035393972
    Two-Electron Energy =                 651.6802932054639541
    Total Energy =                       -457.4489499714289877
  Basis Set: (AUG-CC-PVTZ AUX)
    Blend: AUG-CC-PVTZ-RI
    Molecular point group: c1

    Geometry (in Angstrom), charge = 0, multiplicity = 1:

       Center              X                  Y                   Z               Mass
    ------------   -----------------  -----------------  -----------------  -----------------
         O           -0.010589362556     2.126864807362     0.215410599208    15.994914619570
         O            2.260552637444     0.861162807362    -0.594520400792    15.994914619570
         C            0.215833637444    -0.236035192638    -0.044075400792    12.000000000000
         C           -0.605555362556     0.903931807362     0.077012599208    12.000000000000
         C           -0.399500362556    -1.492676192638    -0.145708400792    12.000000000000
         C            1.707616637444    -0.120868192638    -0.103555400792    12.000000000000
         C           -1.997524362556     0.761972807362     0.097155599208    12.000000000000
         C           -1.785939362556    -1.631834192638    -0.142437400792    12.000000000000
         C           -2.585973362556    -0.495575192638    -0.021719400792    12.000000000000
         C            2.522456937444    -1.183588092638     0.636001299208    12.000000000000
         H            0.220487637444    -2.380041192638    -0.240334400792     1.007825032230
         H           -2.623564362556     1.647979807362     0.199514599208     1.007825032230
         H           -2.237012362556    -2.615808192638    -0.235767400792     1.007825032230
         H           -3.669705362556    -0.582970192638    -0.011860400792     1.007825032230
         H            2.156158637444    -1.575110192638     1.441580599208     1.007825032230
         H            3.561891637444    -0.950048192638     0.522307599208     1.007825032230
         H            2.468112637444    -2.143384192638    -0.204214400792     1.007825032230
         H           -0.714751362556     2.787681807362     0.346298599208     1.007825032230

  Basis Set: AUG-CC-PVTZ
    Blend: AUG-CC-PVTZ
  Basis Set: (AUG-CC-PVTZ AUX)
    Blend: AUG-CC-PVTZ-JKFIT
	 Reference Energy          =    -457.4489499714289877 [Eh]
	 Singles Energy            =      -0.0000000000000000 [Eh]
	 Same-Spin Energy          =      -0.4788891968781112 [Eh]
	 Opposite-Spin Energy      =      -1.4754040509470592 [Eh]
	 Correlation Energy        =      -1.9542932478251704 [Eh]
	 Total Energy              =    -459.4032432192541364 [Eh]

	 ================> DF-SCS-MP2 Energies <==================
	-----------------------------------------------------------
	 SCS Same-Spin Scale       =       0.3333333333333333 [-]
	 SCS Opposite-Spin Scale   =       1.2000000000000000 [-]
	 SCS Same-Spin Energy      =      -0.1596297322927037 [Eh]
	 SCS Opposite-Spin Energy  =      -1.7704848611364710 [Eh]
	 SCS Correlation Energy    =      -1.9301145934291748 [Eh]
	 SCS Total Energy          =    -459.3790645648581403 [Eh]
	-----------------------------------------------------------

  Dipole Moment: [D]
     X:    -2.9119      Y:    -1.4793      Z:     1.2826     Total:     3.5089

*** Psi4 exiting successfully. Buy a developer a beer!
