                               Psi4 1.3.2 release

  ==> Input File <==

--------------------------------------------------------------------------
#psi4
#
memory 32 gb

molecule  {
0 1
  O       -0.0048250     2.1741760     0.2178480
  O        2.2663170     0.9084740    -0.5920830
  C        0.2215980    -0.1887240    -0.0416380
  C       -0.5997910     0.9512430     0.0794500
  C       -0.3937360    -1.4453650    -0.1432710
  C        1.7133810    -0.0735570    -0.1011180
  C       -1.9917600     0.8092840     0.0995930
  C       -1.7801750    -1.5845230    -0.1400000
  C       -2.5802090    -0.4482640    -0.0192820
  C        2.5278181    -1.1805170     0.5487579
  H        0.2262520    -2.3327300    -0.2378970
  H       -2.6178000     1.6952910     0.2019520
  H       -2.2312480    -2.5684970    -0.2333300
  H       -3.6639410    -0.5356590    -0.0094230
  H        2.1619230    -1.5277990     1.4440180
  H        3.5676560    -0.9027370     0.5247450
  H        2.4738770    -2.0960730    -0.2017770
  H       -0.7089870     2.8349930     0.3487360
units angstrom
no_reorient  #important for SAPT in psi4, default
symmetry c1  #important for SAPT in psi4, default
}

set PROPERTIES_ORIGIN ["COM"]
properties('MP2/aug-cc-pvtz', properties = ['dipole'])
--------------------------------------------------------------------------

    Molecular point group: c1
  Charge       = 0
  Multiplicity = 1
  Basis Set: AUG-CC-PVTZ
    Blend: AUG-CC-PVTZ
  Basis Set: (AUG-CC-PVTZ AUX)
    Blend: AUG-CC-PVTZ-JKFIT

    Orbital Energies [Eh]
    ---------------------

    Doubly Occupied:

       1A    -20.597181     2A    -20.537352     3A    -11.334018
       4A    -11.324875     5A    -11.261040     6A    -11.260841
       7A    -11.250108     8A    -11.247540     9A    -11.241698
      10A    -11.235523    11A     -1.410849    12A     -1.367383
      13A     -1.163604    14A     -1.057157    15A     -1.019239
      16A     -0.995539    17A     -0.871256    18A     -0.848355
      19A     -0.764629    20A     -0.740371    21A     -0.681806
      22A     -0.671709    23A     -0.640238    24A     -0.620257
      25A     -0.610236    26A     -0.603657    27A     -0.583607
      28A     -0.575324    29A     -0.552024    30A     -0.534501
      31A     -0.520665    32A     -0.497129    33A     -0.474947
      34A     -0.410204    35A     -0.356635    36A     -0.327348

  @DF-RHF Final Energy:  -457.47483282527969

   => Energetics <=

    Nuclear Repulsion Energy =            494.7781383800293611
    One-Electron Energy =               -1604.1282470226985879
    Two-Electron Energy =                 651.8752758173895927
    Total Energy =                       -457.4748328252796910
  Basis Set: (AUG-CC-PVTZ AUX)
    Blend: AUG-CC-PVTZ-RI
    Molecular point group: c1

    Geometry (in Angstrom), charge = 0, multiplicity = 1:

       Center              X                  Y                   Z               Mass
    ------------   -----------------  -----------------  -----------------  -----------------
         O           -0.010553799795     2.130766841320     0.223320561596    15.994914619570
         O            2.260588200205     0.865064841320    -0.586610438404    15.994914619570
         C            0.215869200205    -0.232133158680    -0.036165438404    12.000000000000
         C           -0.605519799795     0.907833841320     0.084922561596    12.000000000000
         C           -0.399464799795    -1.488774158680    -0.137798438404    12.000000000000
         C            1.707652200205    -0.116966158680    -0.095645438404    12.000000000000
         C           -1.997488799795     0.765874841320     0.105065561596    12.000000000000
         C           -1.785903799795    -1.627932158680    -0.134527438404    12.000000000000
         C           -2.585937799795    -0.491673158680    -0.013809438404    12.000000000000
         C            2.522089300205    -1.223926158680     0.554230461596    12.000000000000
         H            0.220523200205    -2.376139158680    -0.232424438404     1.007825032230
         H           -2.623528799795     1.651881841320     0.207424561596     1.007825032230
         H           -2.236976799795    -2.611906158680    -0.227857438404     1.007825032230
         H           -3.669669799795    -0.579068158680    -0.003950438404     1.007825032230
         H            2.156194200205    -1.571208158680     1.449490561596     1.007825032230
         H            3.561927200205    -0.946146158680     0.530217561596     1.007825032230
         H            2.468148200205    -2.139482158680    -0.196304438404     1.007825032230
         H           -0.714715799795     2.791583841320     0.354208561596     1.007825032230

  Basis Set: AUG-CC-PVTZ
    Blend: AUG-CC-PVTZ
  Basis Set: (AUG-CC-PVTZ AUX)
    Blend: AUG-CC-PVTZ-JKFIT
	 Reference Energy          =    -457.4748328252796910 [Eh]
	 Singles Energy            =      -0.0000000000000000 [Eh]
	 Same-Spin Energy          =      -0.4784541736059817 [Eh]
	 Opposite-Spin Energy      =      -1.4741267061845251 [Eh]
	 Correlation Energy        =      -1.9525808797905069 [Eh]
	 Total Energy              =    -459.4274137050701938 [Eh]

	 ================> DF-SCS-MP2 Energies <==================
	-----------------------------------------------------------
	 SCS Same-Spin Scale       =       0.3333333333333333 [-]
	 SCS Opposite-Spin Scale   =       1.2000000000000000 [-]
	 SCS Same-Spin Energy      =      -0.1594847245353272 [Eh]
	 SCS Opposite-Spin Energy  =      -1.7689520474214302 [Eh]
	 SCS Correlation Energy    =      -1.9284367719567574 [Eh]
	 SCS Total Energy          =    -459.4032695972364309 [Eh]
	-----------------------------------------------------------

  Dipole Moment: [D]
     X:    -2.9207      Y:    -1.4935      Z:     1.2540     Total:     3.5119

*** Psi4 exiting successfully. Buy a developer a beer!
