                               Psi4 1.3.2 release

  ==> Input File <==

--------------------------------------------------------------------------
#psi4
#
memory 32 gb

molecule  {
0 1
  O       -0.0048250     2.1741760     0.2178480
  O        2.2663170     0.9084740    -0.5920830
  C        0.2215980    -0.1887240    -0.0416380
  C       -0.5997910     0.9512430     0.0794500
  C       -0.3937360    -1.4453650    -0.1432710
  C        1.7133810    -0.0735570    -0.1011180
  C       -1.9947297     0.8308325    -0.0992206
  C       -1.7801750    -1.5845230    -0.1400000
  C       -2.5802090    -0.4482640    -0.0192820
  C        2.5274150    -1.2247570     0.4590770
  H        0.2262520    -2.3327300    -0.2378970
  H       -2.6178000     1.6952910     0.2019520
  H       -2.2312480    -2.5684970    -0.2333300
  H       -3.6639410    -0.5356590    -0.0094230
  H        2.1619230    -1.5277990     1.4440180
  H        3.5676560    -0.9027370     0.5247450
  H        2.4738770    -2.0960730    -0.2017770
  H       -0.7089870     2.8349930     0.3487360
units angstrom
no_reorient  #important for SAPT in psi4, default
symmetry c1  #important for SAPT in psi4, default
}

set PROPERTIES_ORIGIN ["COM"]
properties('MP2/aug-cc-pvtz', properties = ['dipole'])
--------------------------------------------------------------------------

    Molecular point group: c1
  Charge       = 0
  Multiplicity = 1
  Basis Set: AUG-CC-PVTZ
    Blend: AUG-CC-PVTZ
  Basis Set: (AUG-CC-PVTZ AUX)
    Blend: AUG-CC-PVTZ-JKFIT

    Orbital Energies [Eh]
    ---------------------

    Doubly Occupied:

       1A    -20.598157     2A    -20.537980     3A    -11.333454
       4A    -11.327609     5A    -11.264485     6A    -11.263401
       7A    -11.250400     8A    -11.249711     9A    -11.241802
      10A    -11.233476    11A     -1.411410    12A     -1.367771
      13A     -1.162661    14A     -1.056221    15A     -1.018303
      16A     -0.994832    17A     -0.870382    18A     -0.847085
      19A     -0.762932    20A     -0.739693    21A     -0.679637
      22A     -0.668507    23A     -0.637760    24A     -0.620954
      25A     -0.605847    26A     -0.601317    27A     -0.588617
      28A     -0.574422    29A     -0.551326    30A     -0.531141
      31A     -0.518694    32A     -0.497108    33A     -0.480230
      34A     -0.410940    35A     -0.356382    36A     -0.327126

  @DF-RHF Final Energy:  -457.47302349841425

   => Energetics <=

    Nuclear Repulsion Energy =            494.3792404235969684
    One-Electron Energy =               -1603.3409890494087904
    Two-Electron Energy =                 651.4887251273976290
    Total Energy =                       -457.4730234984142498
  Basis Set: (AUG-CC-PVTZ AUX)
    Blend: AUG-CC-PVTZ-RI
    Molecular point group: c1

    Geometry (in Angstrom), charge = 0, multiplicity = 1:

       Center              X                  Y                   Z               Mass
    ------------   -----------------  -----------------  -----------------  -----------------
         O           -0.010256314479     2.132768260927     0.248766149100    15.994914619570
         O            2.260885685521     0.867066260927    -0.561164850900    15.994914619570
         C            0.216166685521    -0.230131739073    -0.010719850900    12.000000000000
         C           -0.605222314479     0.909835260927     0.110368149100    12.000000000000
         C           -0.399167314479    -1.486772739073    -0.112352850900    12.000000000000
         C            1.707949685521    -0.114964739073    -0.070199850900    12.000000000000
         C           -2.000161014479     0.789424760927    -0.068302450900    12.000000000000
         C           -1.785606314479    -1.625930739073    -0.109081850900    12.000000000000
         C           -2.585640314479    -0.489671739073     0.011636149100    12.000000000000
         C            2.521983685521    -1.266164739073     0.489995149100    12.000000000000
         H            0.220820685521    -2.374137739073    -0.206978850900     1.007825032230
         H           -2.623231314479     1.653883260927     0.232870149100     1.007825032230
         H           -2.236679314479    -2.609904739073    -0.202411850900     1.007825032230
         H           -3.669372314479    -0.577066739073     0.021495149100     1.007825032230
         H            2.156491685521    -1.569206739073     1.474936149100     1.007825032230
         H            3.562224685521    -0.944144739073     0.555663149100     1.007825032230
         H            2.468445685521    -2.137480739073    -0.170858850900     1.007825032230
         H           -0.714418314479     2.793585260927     0.379654149100     1.007825032230

  Basis Set: AUG-CC-PVTZ
    Blend: AUG-CC-PVTZ
  Basis Set: (AUG-CC-PVTZ AUX)
    Blend: AUG-CC-PVTZ-JKFIT
	 Reference Energy          =    -457.4730234984142498 [Eh]
	 Singles Energy            =      -0.0000000000000000 [Eh]
	 Same-Spin Energy          =      -0.4787195391581662 [Eh]
	 Opposite-Spin Energy      =      -1.4751991230513812 [Eh]
	 Correlation Energy        =      -1.9539186622095475 [Eh]
	 Total Energy              =    -459.4269421606238097 [Eh]

	 ================> DF-SCS-MP2 Energies <==================
	-----------------------------------------------------------
	 SCS Same-Spin Scale       =       0.3333333333333333 [-]
	 SCS Opposite-Spin Scale   =       1.2000000000000000 [-]
	 SCS Same-Spin Energy      =      -0.1595731797193887 [Eh]
	 SCS Opposite-Spin Energy  =      -1.7702389476616573 [Eh]
	 SCS Correlation Energy    =      -1.9298121273810460 [Eh]
	 SCS Total Energy          =    -459.4028356257953192 [Eh]
	-----------------------------------------------------------

  Dipole Moment: [D]
     X:    -2.8529      Y:    -1.5585      Z:     1.3430     Total:     3.5173

*** Psi4 exiting successfully. Buy a developer a beer!
