                               Psi4 1.3.2 release

  ==> Input File <==

--------------------------------------------------------------------------
#psi4
#
memory 32 gb

molecule  {
0 1
  O       -0.0048250     2.1741760     0.2178480
  O        2.2663170     0.9084740    -0.5920830
  C        0.2215980    -0.1887240    -0.0416380
  C       -0.5997910     0.9512430     0.0794500
  C       -0.3937360    -1.4453650    -0.1432710
  C        1.7152895    -0.0780176    -0.0513539
  C       -1.9917600     0.8092840     0.0995930
  C       -1.7801750    -1.5845230    -0.1400000
  C       -2.5802090    -0.4482640    -0.0192820
  C        2.5274150    -1.2247570     0.4590770
  H        0.2262520    -2.3327300    -0.2378970
  H       -2.6178000     1.6952910     0.2019520
  H       -2.2312480    -2.5684970    -0.2333300
  H       -3.6639410    -0.5356590    -0.0094230
  H        2.1619230    -1.5277990     1.4440180
  H        3.5676560    -0.9027370     0.5247450
  H        2.4738770    -2.0960730    -0.2017770
  H       -0.7089870     2.8349930     0.3487360
units angstrom
no_reorient  #important for SAPT in psi4, default
symmetry c1  #important for SAPT in psi4, default
}

set PROPERTIES_ORIGIN ["COM"]
properties('MP2/aug-cc-pvtz', properties = ['dipole'])
--------------------------------------------------------------------------

    Molecular point group: c1
  Charge       = 0
  Multiplicity = 1
  Basis Set: AUG-CC-PVTZ
    Blend: AUG-CC-PVTZ
  Basis Set: (AUG-CC-PVTZ AUX)
    Blend: AUG-CC-PVTZ-JKFIT

    Orbital Energies [Eh]
    ---------------------

    Doubly Occupied:

       1A    -20.596866     2A    -20.536547     3A    -11.335197
       4A    -11.324818     5A    -11.261347     6A    -11.261163
       7A    -11.250975     8A    -11.247526     9A    -11.241972
      10A    -11.234794    11A     -1.410252    12A     -1.352892
      13A     -1.163721    14A     -1.058755    15A     -1.019355
      16A     -1.000447    17A     -0.871335    18A     -0.848133
      19A     -0.764624    20A     -0.740485    21A     -0.680972
      22A     -0.668887    23A     -0.636718    24A     -0.620926
      25A     -0.611389    26A     -0.597909    27A     -0.589115
      28A     -0.574406    29A     -0.551425    30A     -0.530546
      31A     -0.519862    32A     -0.498728    33A     -0.473520
      34A     -0.413475    35A     -0.356139    36A     -0.327069

  @DF-RHF Final Energy:  -457.47958612970672

   => Energetics <=

    Nuclear Repulsion Energy =            494.6651284242230986
    One-Electron Energy =               -1603.9448528808941319
    Two-Electron Energy =                 651.8001383269642020
    Total Energy =                       -457.4795861297067177
  Basis Set: (AUG-CC-PVTZ AUX)
    Blend: AUG-CC-PVTZ-RI
    Molecular point group: c1

    Geometry (in Angstrom), charge = 0, multiplicity = 1:

       Center              X                  Y                   Z               Mass
    ------------   -----------------  -----------------  -----------------  -----------------
         O           -0.010686578019     2.135062297139     0.226841274910    15.994914619570
         O            2.260455421981     0.869360297139    -0.583089725090    15.994914619570
         C            0.215736421981    -0.227837702861    -0.032644725090    12.000000000000
         C           -0.605652578019     0.912129297139     0.088443274910    12.000000000000
         C           -0.399597578019    -1.484478702861    -0.134277725090    12.000000000000
         C            1.709427921981    -0.117131302861    -0.042360625090    12.000000000000
         C           -1.997621578019     0.770170297139     0.108586274910    12.000000000000
         C           -1.786036578019    -1.623636702861    -0.131006725090    12.000000000000
         C           -2.586070578019    -0.487377702861    -0.010288725090    12.000000000000
         C            2.521553421981    -1.263870702861     0.468070274910    12.000000000000
         H            0.220390421981    -2.371843702861    -0.228903725090     1.007825032230
         H           -2.623661578019     1.656177297139     0.210945274910     1.007825032230
         H           -2.237109578019    -2.607610702861    -0.224336725090     1.007825032230
         H           -3.669802578019    -0.574772702861    -0.000429725090     1.007825032230
         H            2.156061421981    -1.566912702861     1.453011274910     1.007825032230
         H            3.561794421981    -0.941850702861     0.533738274910     1.007825032230
         H            2.468015421981    -2.135186702861    -0.192783725090     1.007825032230
         H           -0.714848578019     2.795879297139     0.357729274910     1.007825032230

  Basis Set: AUG-CC-PVTZ
    Blend: AUG-CC-PVTZ
  Basis Set: (AUG-CC-PVTZ AUX)
    Blend: AUG-CC-PVTZ-JKFIT
	 Reference Energy          =    -457.4795861297067177 [Eh]
	 Singles Energy            =      -0.0000000000000000 [Eh]
	 Same-Spin Energy          =      -0.4790740295868706 [Eh]
	 Opposite-Spin Energy      =      -1.4754169085675832 [Eh]
	 Correlation Energy        =      -1.9544909381544540 [Eh]
	 Total Energy              =    -459.4340770678611534 [Eh]

	 ================> DF-SCS-MP2 Energies <==================
	-----------------------------------------------------------
	 SCS Same-Spin Scale       =       0.3333333333333333 [-]
	 SCS Opposite-Spin Scale   =       1.2000000000000000 [-]
	 SCS Same-Spin Energy      =      -0.1596913431956235 [Eh]
	 SCS Opposite-Spin Energy  =      -1.7705002902810998 [Eh]
	 SCS Correlation Energy    =      -1.9301916334767233 [Eh]
	 SCS Total Energy          =    -459.4097777631834560 [Eh]
	-----------------------------------------------------------

  Dipole Moment: [D]
     X:    -2.8939      Y:    -1.5740      Z:     1.2895     Total:     3.5377

*** Psi4 exiting successfully. Buy a developer a beer!
