                               Psi4 1.3.2 release

  ==> Input File <==

--------------------------------------------------------------------------
#psi4
#
memory 32 gb

molecule  {
0 1
  O       -0.0048250     2.1741760     0.2178480
  O        2.2663170     0.9084740    -0.5920830
  C        0.2215980    -0.1887240    -0.0416380
  C       -0.5997910     0.9512430     0.0794500
  C       -0.3937360    -1.4453650    -0.1432710
  C        1.7133810    -0.0735570    -0.1011180
  C       -1.9917600     0.8092840     0.0995930
  C       -1.7801750    -1.5845230    -0.1400000
  C       -2.5802090    -0.4482640    -0.0192820
  C        2.5280197    -1.1583970     0.5935983
  H        0.2262520    -2.3327300    -0.2378970
  H       -2.6178000     1.6952910     0.2019520
  H       -2.2312480    -2.5684970    -0.2333300
  H       -3.6639410    -0.5356590    -0.0094230
  H        2.1619230    -1.5277990     1.4440180
  H        3.5676560    -0.9027370     0.5247450
  H        2.4738770    -2.0960730    -0.2017770
  H       -0.7089870     2.8349930     0.3487360
units angstrom
no_reorient  #important for SAPT in psi4, default
symmetry c1  #important for SAPT in psi4, default
}

set PROPERTIES_ORIGIN ["COM"]
properties('MP2/aug-cc-pvtz', properties = ['dipole'])
--------------------------------------------------------------------------

    Molecular point group: c1
  Charge       = 0
  Multiplicity = 1
  Basis Set: AUG-CC-PVTZ
    Blend: AUG-CC-PVTZ
  Basis Set: (AUG-CC-PVTZ AUX)
    Blend: AUG-CC-PVTZ-JKFIT

    Orbital Energies [Eh]
    ---------------------

    Doubly Occupied:

       1A    -20.597226     2A    -20.537424     3A    -11.335090
       4A    -11.324988     5A    -11.260995     6A    -11.260676
       7A    -11.250339     8A    -11.247604     9A    -11.241655
      10A    -11.237688    11A     -1.410922    12A     -1.367523
      13A     -1.163611    14A     -1.057182    15A     -1.019258
      16A     -0.996214    17A     -0.871380    18A     -0.848642
      19A     -0.765283    20A     -0.740414    21A     -0.683590
      22A     -0.673450    23A     -0.642610    24A     -0.621078
      25A     -0.610479    26A     -0.605199    27A     -0.584005
      28A     -0.575712    29A     -0.548049    30A     -0.534911
      31A     -0.520463    32A     -0.495651    33A     -0.470540
      34A     -0.409897    35A     -0.356704    36A     -0.327408

  @DF-RHF Final Energy:  -457.46377048211008

   => Energetics <=

    Nuclear Repulsion Energy =            494.7172531817026879
    One-Electron Energy =               -1603.9743225471092956
    Two-Electron Energy =                 651.7932988832964156
    Total Energy =                       -457.4637704821101352
  Basis Set: (AUG-CC-PVTZ AUX)
    Blend: AUG-CC-PVTZ-RI
    Molecular point group: c1

    Geometry (in Angstrom), charge = 0, multiplicity = 1:

       Center              X                  Y                   Z               Mass
    ------------   -----------------  -----------------  -----------------  -----------------
         O           -0.010571581175     2.128815828751     0.219365580402    15.994914619570
         O            2.260570418825     0.863113828751    -0.590565419598    15.994914619570
         C            0.215851418825    -0.234084171249    -0.040120419598    12.000000000000
         C           -0.605537581175     0.905882828751     0.080967580402    12.000000000000
         C           -0.399482581175    -1.490725171249    -0.141753419598    12.000000000000
         C            1.707634418825    -0.118917171249    -0.099600419598    12.000000000000
         C           -1.997506581175     0.763923828751     0.101110580402    12.000000000000
         C           -1.785921581175    -1.629883171249    -0.138482419598    12.000000000000
         C           -2.585955581175    -0.493624171249    -0.017764419598    12.000000000000
         C            2.522273118825    -1.203757171249     0.595115880402    12.000000000000
         H            0.220505418825    -2.378090171249    -0.236379419598     1.007825032230
         H           -2.623546581175     1.649930828751     0.203469580402     1.007825032230
         H           -2.236994581175    -2.613857171249    -0.231812419598     1.007825032230
         H           -3.669687581175    -0.581019171249    -0.007905419598     1.007825032230
         H            2.156176418825    -1.573159171249     1.445535580402     1.007825032230
         H            3.561909418825    -0.948097171249     0.526262580402     1.007825032230
         H            2.468130418825    -2.141433171249    -0.200259419598     1.007825032230
         H           -0.714733581175     2.789632828751     0.350253580402     1.007825032230

  Basis Set: AUG-CC-PVTZ
    Blend: AUG-CC-PVTZ
  Basis Set: (AUG-CC-PVTZ AUX)
    Blend: AUG-CC-PVTZ-JKFIT
	 Reference Energy          =    -457.4637704821100783 [Eh]
	 Singles Energy            =      -0.0000000000000000 [Eh]
	 Same-Spin Energy          =      -0.4786396398607767 [Eh]
	 Opposite-Spin Energy      =      -1.4746529723232018 [Eh]
	 Correlation Energy        =      -1.9532926121839784 [Eh]
	 Total Energy              =    -459.4170630942940647 [Eh]

	 ================> DF-SCS-MP2 Energies <==================
	-----------------------------------------------------------
	 SCS Same-Spin Scale       =       0.3333333333333333 [-]
	 SCS Opposite-Spin Scale   =       1.2000000000000000 [-]
	 SCS Same-Spin Energy      =      -0.1595465466202589 [Eh]
	 SCS Opposite-Spin Energy  =      -1.7695835667878421 [Eh]
	 SCS Correlation Energy    =      -1.9291301134081009 [Eh]
	 SCS Total Energy          =    -459.3929005955181992 [Eh]
	-----------------------------------------------------------

  Dipole Moment: [D]
     X:    -2.9162      Y:    -1.4879      Z:     1.2694     Total:     3.5113

*** Psi4 exiting successfully. Buy a developer a beer!
