                               Psi4 1.3.2 release

  ==> Input File <==

--------------------------------------------------------------------------
#psi4
#
memory 32 gb

molecule  {
0 1
  O       -0.0048250     2.1741760     0.2178480
  O        2.2663170     0.9084740    -0.5920830
  C        0.2215980    -0.1887240    -0.0416380
  C       -0.5997910     0.9512430     0.0794500
  C       -0.3937360    -1.4453650    -0.1432710
  C        1.7210148    -0.0913993     0.0979382
  C       -1.9917600     0.8092840     0.0995930
  C       -1.7801750    -1.5845230    -0.1400000
  C       -2.5802090    -0.4482640    -0.0192820
  C        2.5274150    -1.2247570     0.4590770
  H        0.2262520    -2.3327300    -0.2378970
  H       -2.6178000     1.6952910     0.2019520
  H       -2.2312480    -2.5684970    -0.2333300
  H       -3.6639410    -0.5356590    -0.0094230
  H        2.1619230    -1.5277990     1.4440180
  H        3.5676560    -0.9027370     0.5247450
  H        2.4738770    -2.0960730    -0.2017770
  H       -0.7089870     2.8349930     0.3487360
units angstrom
no_reorient  #important for SAPT in psi4, default
symmetry c1  #important for SAPT in psi4, default
}

set PROPERTIES_ORIGIN ["COM"]
properties('MP2/aug-cc-pvtz', properties = ['dipole'])
--------------------------------------------------------------------------

    Molecular point group: c1
  Charge       = 0
  Multiplicity = 1
  Basis Set: AUG-CC-PVTZ
    Blend: AUG-CC-PVTZ
  Basis Set: (AUG-CC-PVTZ AUX)
    Blend: AUG-CC-PVTZ-JKFIT

    Orbital Energies [Eh]
    ---------------------

    Doubly Occupied:

       1A    -20.595915     2A    -20.536132     3A    -11.343633
       4A    -11.324810     5A    -11.261458     6A    -11.260947
       7A    -11.255677     8A    -11.247639     9A    -11.242357
      10A    -11.238420    11A     -1.408972    12A     -1.310540
      13A     -1.163516    14A     -1.064043    15A     -1.019805
      16A     -1.014146    17A     -0.870495    18A     -0.848014
      19A     -0.766093    20A     -0.740420    21A     -0.682167
      22A     -0.667911    23A     -0.635938    24A     -0.620848
      25A     -0.615465    26A     -0.594720    27A     -0.589770
      28A     -0.572387    29A     -0.547316    30A     -0.523744
      31A     -0.515889    32A     -0.497137    33A     -0.451708
      34A     -0.418008    35A     -0.353916    36A     -0.325760

  @DF-RHF Final Energy:  -457.44385921257299

   => Energetics <=

    Nuclear Repulsion Energy =            493.9149791161457301
    One-Electron Energy =               -1602.4662413865371491
    Two-Electron Energy =                 651.1074030578183738
    Total Energy =                       -457.4438592125729883
  Basis Set: (AUG-CC-PVTZ AUX)
    Blend: AUG-CC-PVTZ-RI
    Molecular point group: c1

    Geometry (in Angstrom), charge = 0, multiplicity = 1:

       Center              X                  Y                   Z               Mass
    ------------   -----------------  -----------------  -----------------  -----------------
         O           -0.011191556874     2.136242580362     0.213673518872    15.994914619570
         O            2.259950443126     0.870540580362    -0.596257481128    15.994914619570
         C            0.215231443126    -0.226657419638    -0.045812481128    12.000000000000
         C           -0.606157556874     0.913309580362     0.075275518872    12.000000000000
         C           -0.400102556874    -1.483298419638    -0.147445481128    12.000000000000
         C            1.714648243126    -0.129332719638     0.093763718872    12.000000000000
         C           -1.998126556874     0.771350580362     0.095418518872    12.000000000000
         C           -1.786541556874    -1.622456419638    -0.144174481128    12.000000000000
         C           -2.586575556874    -0.486197419638    -0.023456481128    12.000000000000
         C            2.521048443126    -1.262690419638     0.454902518872    12.000000000000
         H            0.219885443126    -2.370663419638    -0.242071481128     1.007825032230
         H           -2.624166556874     1.657357580362     0.197777518872     1.007825032230
         H           -2.237614556874    -2.606430419638    -0.237504481128     1.007825032230
         H           -3.670307556874    -0.573592419638    -0.013597481128     1.007825032230
         H            2.155556443126    -1.565732419638     1.439843518872     1.007825032230
         H            3.561289443126    -0.940670419638     0.520570518872     1.007825032230
         H            2.467510443126    -2.134006419638    -0.205951481128     1.007825032230
         H           -0.715353556874     2.797059580362     0.344561518872     1.007825032230

  Basis Set: AUG-CC-PVTZ
    Blend: AUG-CC-PVTZ
  Basis Set: (AUG-CC-PVTZ AUX)
    Blend: AUG-CC-PVTZ-JKFIT
	 Reference Energy          =    -457.4438592125729883 [Eh]
	 Singles Energy            =      -0.0000000000000000 [Eh]
	 Same-Spin Energy          =      -0.4824623465421348 [Eh]
	 Opposite-Spin Energy      =      -1.4830485198339454 [Eh]
	 Correlation Energy        =      -1.9655108663760803 [Eh]
	 Total Energy              =    -459.4093700789490526 [Eh]

	 ================> DF-SCS-MP2 Energies <==================
	-----------------------------------------------------------
	 SCS Same-Spin Scale       =       0.3333333333333333 [-]
	 SCS Opposite-Spin Scale   =       1.2000000000000000 [-]
	 SCS Same-Spin Energy      =      -0.1608207821807116 [Eh]
	 SCS Opposite-Spin Energy  =      -1.7796582238007344 [Eh]
	 SCS Correlation Energy    =      -1.9404790059814458 [Eh]
	 SCS Total Energy          =    -459.3843382185544328 [Eh]
	-----------------------------------------------------------

  Dipole Moment: [D]
     X:    -2.7417      Y:    -1.7353      Z:     1.4282     Total:     3.5451

*** Psi4 exiting successfully. Buy a developer a beer!
