                               Psi4 1.3.2 release

  ==> Input File <==

--------------------------------------------------------------------------
#psi4
#
memory 32 gb

molecule  {
0 1
  O       -0.0048250     2.1741760     0.2178480
  O        2.2663170     0.9084740    -0.5920830
  C        0.2215980    -0.1887240    -0.0416380
  C       -0.5997910     0.9512430     0.0794500
  C       -0.3937360    -1.4453650    -0.1432710
  C        1.7171979    -0.0824782    -0.0015899
  C       -1.9917600     0.8092840     0.0995930
  C       -1.7801750    -1.5845230    -0.1400000
  C       -2.5802090    -0.4482640    -0.0192820
  C        2.5274150    -1.2247570     0.4590770
  H        0.2262520    -2.3327300    -0.2378970
  H       -2.6178000     1.6952910     0.2019520
  H       -2.2312480    -2.5684970    -0.2333300
  H       -3.6639410    -0.5356590    -0.0094230
  H        2.1619230    -1.5277990     1.4440180
  H        3.5676560    -0.9027370     0.5247450
  H        2.4738770    -2.0960730    -0.2017770
  H       -0.7089870     2.8349930     0.3487360
units angstrom
no_reorient  #important for SAPT in psi4, default
symmetry c1  #important for SAPT in psi4, default
}

set PROPERTIES_ORIGIN ["COM"]
properties('MP2/aug-cc-pvtz', properties = ['dipole'])
--------------------------------------------------------------------------

    Molecular point group: c1
  Charge       = 0
  Multiplicity = 1
  Basis Set: AUG-CC-PVTZ
    Blend: AUG-CC-PVTZ
  Basis Set: (AUG-CC-PVTZ AUX)
    Blend: AUG-CC-PVTZ-JKFIT

    Orbital Energies [Eh]
    ---------------------

    Doubly Occupied:

       1A    -20.596555     2A    -20.535976     3A    -11.337687
       4A    -11.324870     5A    -11.261453     6A    -11.261133
       7A    -11.252345     8A    -11.247587     9A    -11.242126
      10A    -11.236134    11A     -1.409796    12A     -1.338425
      13A     -1.163734    14A     -1.060388    15A     -1.019455
      16A     -1.005608    17A     -0.871232    18A     -0.848191
      19A     -0.765158    20A     -0.740477    21A     -0.681199
      22A     -0.668502    23A     -0.636293    24A     -0.620676
      25A     -0.612519    26A     -0.596192    27A     -0.590297
      28A     -0.573498    29A     -0.550755    30A     -0.528720
      31A     -0.518798    32A     -0.498089    33A     -0.466313
      34A     -0.415637    35A     -0.355570    36A     -0.326752

  @DF-RHF Final Energy:  -457.47126389572321

   => Energetics <=

    Nuclear Repulsion Energy =            494.4549883930312149
    One-Electron Energy =               -1603.5362242552314456
    Two-Electron Energy =                 651.6099719664770191
    Total Energy =                       -457.4712638957231547
  Basis Set: (AUG-CC-PVTZ AUX)
    Blend: AUG-CC-PVTZ-RI
    Molecular point group: c1

    Geometry (in Angstrom), charge = 0, multiplicity = 1:

       Center              X                  Y                   Z               Mass
    ------------   -----------------  -----------------  -----------------  -----------------
         O           -0.010854901364     2.135455727820     0.222452025837    15.994914619570
         O            2.260287098636     0.869753727820    -0.587478974163    15.994914619570
         C            0.215568098636    -0.227444272180    -0.037033974163    12.000000000000
         C           -0.605820901364     0.912522727820     0.084054025837    12.000000000000
         C           -0.399765901364    -1.484085272180    -0.138666974163    12.000000000000
         C            1.711167998636    -0.121198472180     0.003014125837    12.000000000000
         C           -1.997789901364     0.770563727820     0.104197025837    12.000000000000
         C           -1.786204901364    -1.623243272180    -0.135395974163    12.000000000000
         C           -2.586238901364    -0.486984272180    -0.014677974163    12.000000000000
         C            2.521385098636    -1.263477272180     0.463681025837    12.000000000000
         H            0.220222098636    -2.371450272180    -0.233292974163     1.007825032230
         H           -2.623829901364     1.656570727820     0.206556025837     1.007825032230
         H           -2.237277901364    -2.607217272180    -0.228725974163     1.007825032230
         H           -3.669970901364    -0.574379272180    -0.004818974163     1.007825032230
         H            2.155893098636    -1.566519272180     1.448622025837     1.007825032230
         H            3.561626098636    -0.941457272180     0.529349025837     1.007825032230
         H            2.467847098636    -2.134793272180    -0.197172974163     1.007825032230
         H           -0.715016901364     2.796272727820     0.353340025837     1.007825032230

  Basis Set: AUG-CC-PVTZ
    Blend: AUG-CC-PVTZ
  Basis Set: (AUG-CC-PVTZ AUX)
    Blend: AUG-CC-PVTZ-JKFIT
	 Reference Energy          =    -457.4712638957232116 [Eh]
	 Singles Energy            =      -0.0000000000000000 [Eh]
	 Same-Spin Energy          =      -0.4800403141705627 [Eh]
	 Opposite-Spin Energy      =      -1.4775326740505801 [Eh]
	 Correlation Energy        =      -1.9575729882211428 [Eh]
	 Total Energy              =    -459.4288368839443706 [Eh]

	 ================> DF-SCS-MP2 Energies <==================
	-----------------------------------------------------------
	 SCS Same-Spin Scale       =       0.3333333333333333 [-]
	 SCS Opposite-Spin Scale   =       1.2000000000000000 [-]
	 SCS Same-Spin Energy      =      -0.1600134380568542 [Eh]
	 SCS Opposite-Spin Energy  =      -1.7730392088606961 [Eh]
	 SCS Correlation Energy    =      -1.9330526469175504 [Eh]
	 SCS Total Energy          =    -459.4043165426407427 [Eh]
	-----------------------------------------------------------

  Dipole Moment: [D]
     X:    -2.8508      Y:    -1.6425      Z:     1.3483     Total:     3.5557

*** Psi4 exiting successfully. Buy a developer a beer!
