                               Psi4 1.3.2 release

  ==> Input File <==

--------------------------------------------------------------------------
#psi4
#
memory 32 gb

molecule  {
0 1
  O       -0.0048250     2.1741760     0.2178480
  O        2.2663170     0.9084740    -0.5920830
  C        0.2215980    -0.1887240    -0.0416380
  C       -0.5997910     0.9512430     0.0794500
  C       -0.3937360    -1.4453650    -0.1432710
  C        1.7133810    -0.0735570    -0.1011180
  C       -1.9939873     0.8254454    -0.0495172
  C       -1.7801750    -1.5845230    -0.1400000
  C       -2.5802090    -0.4482640    -0.0192820
  C        2.5274150    -1.2247570     0.4590770
  H        0.2262520    -2.3327300    -0.2378970
  H       -2.6178000     1.6952910     0.2019520
  H       -2.2312480    -2.5684970    -0.2333300
  H       -3.6639410    -0.5356590    -0.0094230
  H        2.1619230    -1.5277990     1.4440180
  H        3.5676560    -0.9027370     0.5247450
  H        2.4738770    -2.0960730    -0.2017770
  H       -0.7089870     2.8349930     0.3487360
units angstrom
no_reorient  #important for SAPT in psi4, default
symmetry c1  #important for SAPT in psi4, default
}

set PROPERTIES_ORIGIN ["COM"]
properties('MP2/aug-cc-pvtz', properties = ['dipole'])
--------------------------------------------------------------------------

    Molecular point group: c1
  Charge       = 0
  Multiplicity = 1
  Basis Set: AUG-CC-PVTZ
    Blend: AUG-CC-PVTZ
  Basis Set: (AUG-CC-PVTZ AUX)
    Blend: AUG-CC-PVTZ-JKFIT

    Orbital Energies [Eh]
    ---------------------

    Doubly Occupied:

       1A    -20.597692     2A    -20.537849     3A    -11.333327
       4A    -11.326238     5A    -11.263072     6A    -11.262435
       7A    -11.249730     8A    -11.249098     9A    -11.241801
      10A    -11.233377    11A     -1.411101    12A     -1.367646
      13A     -1.163051    14A     -1.056616    15A     -1.018749
      16A     -0.994829    17A     -0.870772    18A     -0.847440
      19A     -0.763401    20A     -0.739994    21A     -0.680197
      22A     -0.668855    23A     -0.637575    24A     -0.621417
      25A     -0.607462    26A     -0.600800    27A     -0.588318
      28A     -0.574776    29A     -0.551321    30A     -0.531562
      31A     -0.519632    32A     -0.498006    33A     -0.480306
      34A     -0.410834    35A     -0.356381    36A     -0.327178

  @DF-RHF Final Energy:  -457.47798364413768

   => Energetics <=

    Nuclear Repulsion Energy =            494.5775785419382942
    One-Electron Energy =               -1603.7454513201494137
    Two-Electron Energy =                 651.6898891340734963
    Total Energy =                       -457.4779836441376801
  Basis Set: (AUG-CC-PVTZ AUX)
    Blend: AUG-CC-PVTZ-RI
    Molecular point group: c1

    Geometry (in Angstrom), charge = 0, multiplicity = 1:

       Center              X                  Y                   Z               Mass
    ------------   -----------------  -----------------  -----------------  -----------------
         O           -0.010321795118     2.133243410105     0.244382245026    15.994914619570
         O            2.260820204882     0.867541410105    -0.565548754974    15.994914619570
         C            0.216101204882    -0.229656589895    -0.015103754974    12.000000000000
         C           -0.605287795118     0.910310410105     0.105984245026    12.000000000000
         C           -0.399232795118    -1.486297589895    -0.116736754974    12.000000000000
         C            1.707884204882    -0.114489589895    -0.074583754974    12.000000000000
         C           -1.999484095118     0.784512810105    -0.022982954974    12.000000000000
         C           -1.785671795118    -1.625455589895    -0.113465754974    12.000000000000
         C           -2.585705795118    -0.489196589895     0.007252245026    12.000000000000
         C            2.521918204882    -1.265689589895     0.485611245026    12.000000000000
         H            0.220755204882    -2.373662589895    -0.211362754974     1.007825032230
         H           -2.623296795118     1.654358410105     0.228486245026     1.007825032230
         H           -2.236744795118    -2.609429589895    -0.206795754974     1.007825032230
         H           -3.669437795118    -0.576591589895     0.017111245026     1.007825032230
         H            2.156426204882    -1.568731589895     1.470552245026     1.007825032230
         H            3.562159204882    -0.943669589895     0.551279245026     1.007825032230
         H            2.468380204882    -2.137005589895    -0.175242754974     1.007825032230
         H           -0.714483795118     2.794060410105     0.375270245026     1.007825032230

  Basis Set: AUG-CC-PVTZ
    Blend: AUG-CC-PVTZ
  Basis Set: (AUG-CC-PVTZ AUX)
    Blend: AUG-CC-PVTZ-JKFIT
	 Reference Energy          =    -457.4779836441376801 [Eh]
	 Singles Energy            =      -0.0000000000000000 [Eh]
	 Same-Spin Energy          =      -0.4785289697345091 [Eh]
	 Opposite-Spin Energy      =      -1.4745311251984994 [Eh]
	 Correlation Energy        =      -1.9530600949330084 [Eh]
	 Total Energy              =    -459.4310437390706738 [Eh]

	 ================> DF-SCS-MP2 Energies <==================
	-----------------------------------------------------------
	 SCS Same-Spin Scale       =       0.3333333333333333 [-]
	 SCS Opposite-Spin Scale   =       1.2000000000000000 [-]
	 SCS Same-Spin Energy      =      -0.1595096565781697 [Eh]
	 SCS Opposite-Spin Energy  =      -1.7694373502381993 [Eh]
	 SCS Correlation Energy    =      -1.9289470068163690 [Eh]
	 SCS Total Energy          =    -459.4069306509540525 [Eh]
	-----------------------------------------------------------

  Dipole Moment: [D]
     X:    -2.8862      Y:    -1.5315      Z:     1.3124     Total:     3.5211

*** Psi4 exiting successfully. Buy a developer a beer!
