                               Psi4 1.3.2 release

  ==> Input File <==

--------------------------------------------------------------------------
#psi4
#
memory 32 gb

molecule  {
0 1
  O       -0.0048250     2.1741760     0.2178480
  O        2.2663170     0.9084740    -0.5920830
  C        0.2215980    -0.1887240    -0.0416380
  C       -0.5997910     0.9512430     0.0794500
  C       -0.3937360    -1.4453650    -0.1432710
  C        1.7191064    -0.0869387     0.0481742
  C       -1.9917600     0.8092840     0.0995930
  C       -1.7801750    -1.5845230    -0.1400000
  C       -2.5802090    -0.4482640    -0.0192820
  C        2.5274150    -1.2247570     0.4590770
  H        0.2262520    -2.3327300    -0.2378970
  H       -2.6178000     1.6952910     0.2019520
  H       -2.2312480    -2.5684970    -0.2333300
  H       -3.6639410    -0.5356590    -0.0094230
  H        2.1619230    -1.5277990     1.4440180
  H        3.5676560    -0.9027370     0.5247450
  H        2.4738770    -2.0960730    -0.2017770
  H       -0.7089870     2.8349930     0.3487360
units angstrom
no_reorient  #important for SAPT in psi4, default
symmetry c1  #important for SAPT in psi4, default
}

set PROPERTIES_ORIGIN ["COM"]
properties('MP2/aug-cc-pvtz', properties = ['dipole'])
--------------------------------------------------------------------------

    Molecular point group: c1
  Charge       = 0
  Multiplicity = 1
  Basis Set: AUG-CC-PVTZ
    Blend: AUG-CC-PVTZ
  Basis Set: (AUG-CC-PVTZ AUX)
    Blend: AUG-CC-PVTZ-JKFIT

    Orbital Energies [Eh]
    ---------------------

    Doubly Occupied:

       1A    -20.596239     2A    -20.535837     3A    -11.340528
       4A    -11.324870     5A    -11.261490     6A    -11.261063
       7A    -11.253924     8A    -11.247626     9A    -11.242256
      10A    -11.237343    11A     -1.409378    12A     -1.324247
      13A     -1.163668    14A     -1.062139    15A     -1.019570
      16A     -1.010238    17A     -0.870952    18A     -0.848154
      19A     -0.765650    20A     -0.740458    21A     -0.681610
      22A     -0.668194    23A     -0.636040    24A     -0.620637
      25A     -0.613957    26A     -0.594943    27A     -0.590671
      28A     -0.572840    29A     -0.549288    30A     -0.526431
      31A     -0.517570    32A     -0.497629    33A     -0.458908
      34A     -0.417135    35A     -0.354817    36A     -0.326319

  @DF-RHF Final Energy:  -457.45929383244834

   => Energetics <=

    Nuclear Repulsion Energy =            494.2043057687208147
    One-Electron Energy =               -1603.0419657918910161
    Two-Electron Energy =                 651.3783661907218629
    Total Energy =                       -457.4592938324483384
  Basis Set: (AUG-CC-PVTZ AUX)
    Blend: AUG-CC-PVTZ-RI
    Molecular point group: c1

    Geometry (in Angstrom), charge = 0, multiplicity = 1:

       Center              X                  Y                   Z               Mass
    ------------   -----------------  -----------------  -----------------  -----------------
         O           -0.011023233529     2.135849149681     0.218062767945    15.994914619570
         O            2.260118766471     0.870147149681    -0.591868232055    15.994914619570
         C            0.215399766471    -0.227050850319    -0.041423232055    12.000000000000
         C           -0.605989233529     0.912916149681     0.079664767945    12.000000000000
         C           -0.399934233529    -1.483691850319    -0.143056232055    12.000000000000
         C            1.712908166471    -0.125265550319     0.048388967945    12.000000000000
         C           -1.997958233529     0.770957149681     0.099807767945    12.000000000000
         C           -1.786373233529    -1.622849850319    -0.139785232055    12.000000000000
         C           -2.586407233529    -0.486590850319    -0.019067232055    12.000000000000
         C            2.521216766471    -1.263083850319     0.459291767945    12.000000000000
         H            0.220053766471    -2.371056850319    -0.237682232055     1.007825032230
         H           -2.623998233529     1.656964149681     0.202166767945     1.007825032230
         H           -2.237446233529    -2.606823850319    -0.233115232055     1.007825032230
         H           -3.670139233529    -0.573985850319    -0.009208232055     1.007825032230
         H            2.155724766471    -1.566125850319     1.444232767945     1.007825032230
         H            3.561457766471    -0.941063850319     0.524959767945     1.007825032230
         H            2.467678766471    -2.134399850319    -0.201562232055     1.007825032230
         H           -0.715185233529     2.796666149681     0.348950767945     1.007825032230

  Basis Set: AUG-CC-PVTZ
    Blend: AUG-CC-PVTZ
  Basis Set: (AUG-CC-PVTZ AUX)
    Blend: AUG-CC-PVTZ-JKFIT
	 Reference Energy          =    -457.4592938324483384 [Eh]
	 Singles Energy            =      -0.0000000000000000 [Eh]
	 Same-Spin Energy          =      -0.4811725251334915 [Eh]
	 Opposite-Spin Energy      =      -1.4800797695611658 [Eh]
	 Correlation Energy        =      -1.9612522946946573 [Eh]
	 Total Energy              =    -459.4205461271429840 [Eh]

	 ================> DF-SCS-MP2 Energies <==================
	-----------------------------------------------------------
	 SCS Same-Spin Scale       =       0.3333333333333333 [-]
	 SCS Opposite-Spin Scale   =       1.2000000000000000 [-]
	 SCS Same-Spin Energy      =      -0.1603908417111638 [Eh]
	 SCS Opposite-Spin Energy  =      -1.7760957234733989 [Eh]
	 SCS Correlation Energy    =      -1.9364865651845629 [Eh]
	 SCS Total Energy          =    -459.3957803976329046 [Eh]
	-----------------------------------------------------------

  Dipole Moment: [D]
     X:    -2.8005      Y:    -1.6964      Z:     1.3947     Total:     3.5590

*** Psi4 exiting successfully. Buy a developer a beer!
