                               Psi4 1.3.2 release

  ==> Input File <==

--------------------------------------------------------------------------
#psi4
#
memory 32 gb

molecule  {
0 1
  O       -0.0048250     2.1741760     0.2178480
  O        2.2663170     0.9084740    -0.5920830
  C        0.2215980    -0.1887240    -0.0416380
  C       -0.5997910     0.9512430     0.0794500
  C       -0.3937360    -1.4453650    -0.1432710
  C        1.7133810    -0.0735570    -0.1011180
  C       -1.9925024     0.8146711     0.0498896
  C       -1.7801750    -1.5845230    -0.1400000
  C       -2.5802090    -0.4482640    -0.0192820
  C        2.5274150    -1.2247570     0.4590770
  H        0.2262520    -2.3327300    -0.2378970
  H       -2.6178000     1.6952910     0.2019520
  H       -2.2312480    -2.5684970    -0.2333300
  H       -3.6639410    -0.5356590    -0.0094230
  H        2.1619230    -1.5277990     1.4440180
  H        3.5676560    -0.9027370     0.5247450
  H        2.4738770    -2.0960730    -0.2017770
  H       -0.7089870     2.8349930     0.3487360
units angstrom
no_reorient  #important for SAPT in psi4, default
symmetry c1  #important for SAPT in psi4, default
}

set PROPERTIES_ORIGIN ["COM"]
properties('MP2/aug-cc-pvtz', properties = ['dipole'])
--------------------------------------------------------------------------

    Molecular point group: c1
  Charge       = 0
  Multiplicity = 1
  Basis Set: AUG-CC-PVTZ
    Blend: AUG-CC-PVTZ
  Basis Set: (AUG-CC-PVTZ AUX)
    Blend: AUG-CC-PVTZ-JKFIT

    Orbital Energies [Eh]
    ---------------------

    Doubly Occupied:

       1A    -20.597204     2A    -20.537640     3A    -11.333169
       4A    -11.324784     5A    -11.261397     6A    -11.261324
       7A    -11.249802     8A    -11.247611     9A    -11.241808
      10A    -11.233304    11A     -1.410794    12A     -1.367474
      13A     -1.163550    14A     -1.057112    15A     -1.019214
      16A     -0.994854    17A     -0.871227    18A     -0.847901
      19A     -0.763989    20A     -0.740414    21A     -0.680872
      22A     -0.669324    23A     -0.637359    24A     -0.621702
      25A     -0.609839    26A     -0.599920    27A     -0.587804
      28A     -0.575328    29A     -0.551283    30A     -0.531987
      31A     -0.520706    32A     -0.499366    33A     -0.480191
      34A     -0.410664    35A     -0.356449    36A     -0.327260

  @DF-RHF Final Energy:  -457.48352450768698

   => Energetics <=

    Nuclear Repulsion Energy =            494.8053641507237330
    One-Electron Energy =               -1604.2085278782674322
    Two-Electron Energy =                 651.9196392198566627
    Total Energy =                       -457.4835245076869796
  Basis Set: (AUG-CC-PVTZ AUX)
    Blend: AUG-CC-PVTZ-RI
    Molecular point group: c1

    Geometry (in Angstrom), charge = 0, multiplicity = 1:

       Center              X                  Y                   Z               Mass
    ------------   -----------------  -----------------  -----------------  -----------------
         O           -0.010452765215     2.134193717280     0.235614436877    15.994914619570
         O            2.260689234785     0.868491717280    -0.574316563123    15.994914619570
         C            0.215970234785    -0.228706282720    -0.023871563123    12.000000000000
         C           -0.605418765215     0.911260717280     0.097216436877    12.000000000000
         C           -0.399363765215    -1.485347282720    -0.125504563123    12.000000000000
         C            1.707753234785    -0.113539282720    -0.083351563123    12.000000000000
         C           -1.998130165215     0.774688817280     0.067656036877    12.000000000000
         C           -1.785802765215    -1.624505282720    -0.122233563123    12.000000000000
         C           -2.585836765215    -0.488246282720    -0.001515563123    12.000000000000
         C            2.521787234785    -1.264739282720     0.476843436877    12.000000000000
         H            0.220624234785    -2.372712282720    -0.220130563123     1.007825032230
         H           -2.623427765215     1.655308717280     0.219718436877     1.007825032230
         H           -2.236875765215    -2.608479282720    -0.215563563123     1.007825032230
         H           -3.669568765215    -0.575641282720     0.008343436877     1.007825032230
         H            2.156295234785    -1.567781282720     1.461784436877     1.007825032230
         H            3.562028234785    -0.942719282720     0.542511436877     1.007825032230
         H            2.468249234785    -2.136055282720    -0.184010563123     1.007825032230
         H           -0.714614765215     2.795010717280     0.366502436877     1.007825032230

  Basis Set: AUG-CC-PVTZ
    Blend: AUG-CC-PVTZ
  Basis Set: (AUG-CC-PVTZ AUX)
    Blend: AUG-CC-PVTZ-JKFIT
	 Reference Energy          =    -457.4835245076869796 [Eh]
	 Singles Energy            =      -0.0000000000000000 [Eh]
	 Same-Spin Energy          =      -0.4783052526993242 [Eh]
	 Opposite-Spin Energy      =      -1.4738205698315097 [Eh]
	 Correlation Energy        =      -1.9521258225308338 [Eh]
	 Total Energy              =    -459.4356503302178112 [Eh]

	 ================> DF-SCS-MP2 Energies <==================
	-----------------------------------------------------------
	 SCS Same-Spin Scale       =       0.3333333333333333 [-]
	 SCS Opposite-Spin Scale   =       1.2000000000000000 [-]
	 SCS Same-Spin Energy      =      -0.1594350842331080 [Eh]
	 SCS Opposite-Spin Energy  =      -1.7685846837978116 [Eh]
	 SCS Correlation Energy    =      -1.9280197680309197 [Eh]
	 SCS Total Energy          =    -459.4115442757179153 [Eh]
	-----------------------------------------------------------

  Dipole Moment: [D]
     X:    -2.9254      Y:    -1.4982      Z:     1.2509     Total:     3.5167

*** Psi4 exiting successfully. Buy a developer a beer!
