                               Psi4 1.3.2 release

  ==> Input File <==

--------------------------------------------------------------------------
#psi4
#
memory 32 gb

molecule  {
0 1
  O       -0.0048250     2.1741760     0.2178480
  O        2.2663170     0.9084740    -0.5920830
  C        0.2215980    -0.1887240    -0.0416380
  C       -0.5997910     0.9512430     0.0794500
  C       -0.3937360    -1.4453650    -0.1432710
  C        1.7133810    -0.0735570    -0.1011180
  C       -1.9932449     0.8200582     0.0001862
  C       -1.7801750    -1.5845230    -0.1400000
  C       -2.5802090    -0.4482640    -0.0192820
  C        2.5274150    -1.2247570     0.4590770
  H        0.2262520    -2.3327300    -0.2378970
  H       -2.6178000     1.6952910     0.2019520
  H       -2.2312480    -2.5684970    -0.2333300
  H       -3.6639410    -0.5356590    -0.0094230
  H        2.1619230    -1.5277990     1.4440180
  H        3.5676560    -0.9027370     0.5247450
  H        2.4738770    -2.0960730    -0.2017770
  H       -0.7089870     2.8349930     0.3487360
units angstrom
no_reorient  #important for SAPT in psi4, default
symmetry c1  #important for SAPT in psi4, default
}

set PROPERTIES_ORIGIN ["COM"]
properties('MP2/aug-cc-pvtz', properties = ['dipole'])
--------------------------------------------------------------------------

    Molecular point group: c1
  Charge       = 0
  Multiplicity = 1
  Basis Set: AUG-CC-PVTZ
    Blend: AUG-CC-PVTZ
  Basis Set: (AUG-CC-PVTZ AUX)
    Blend: AUG-CC-PVTZ-JKFIT

    Orbital Energies [Eh]
    ---------------------

    Doubly Occupied:

       1A    -20.597375     2A    -20.537737     3A    -11.333233
       4A    -11.325291     5A    -11.262036     6A    -11.261744
       7A    -11.249763     8A    -11.248162     9A    -11.241806
      10A    -11.233320    11A     -1.410896    12A     -1.367548
      13A     -1.163351    14A     -1.056915    15A     -1.019050
      16A     -0.994836    17A     -0.871059    18A     -0.847715
      19A     -0.763762    20A     -0.740242    21A     -0.680613
      22A     -0.669136    23A     -0.637447    24A     -0.621687
      25A     -0.608774    26A     -0.600336    27A     -0.588045
      28A     -0.575088    29A     -0.551307    30A     -0.531837
      31A     -0.520295    32A     -0.498758    33A     -0.480290
      34A     -0.410742    35A     -0.356408    36A     -0.327224

  @DF-RHF Final Energy:  -457.48147422893197

   => Energetics <=

    Nuclear Repulsion Energy =            494.7200763067000366
    One-Electron Energy =               -1604.0354438923104681
    Two-Electron Energy =                 651.8338933566783453
    Total Energy =                       -457.4814742289320293
  Basis Set: (AUG-CC-PVTZ AUX)
    Blend: AUG-CC-PVTZ-RI
    Molecular point group: c1

    Geometry (in Angstrom), charge = 0, multiplicity = 1:

       Center              X                  Y                   Z               Mass
    ------------   -----------------  -----------------  -----------------  -----------------
         O           -0.010387275757     2.133718568103     0.239998340952    15.994914619570
         O            2.260754724243     0.868016568103    -0.569932659048    15.994914619570
         C            0.216035724243    -0.229181431897    -0.019487659048    12.000000000000
         C           -0.605353275757     0.910785568103     0.101600340952    12.000000000000
         C           -0.399298275757    -1.485822431897    -0.121120659048    12.000000000000
         C            1.707818724243    -0.114014431897    -0.078967659048    12.000000000000
         C           -1.998807175757     0.779600768103     0.022336540952    12.000000000000
         C           -1.785737275757    -1.624980431897    -0.117849659048    12.000000000000
         C           -2.585771275757    -0.488721431897     0.002868340952    12.000000000000
         C            2.521852724243    -1.265214431897     0.481227340952    12.000000000000
         H            0.220689724243    -2.373187431897    -0.215746659048     1.007825032230
         H           -2.623362275757     1.654833568103     0.224102340952     1.007825032230
         H           -2.236810275757    -2.608954431897    -0.211179659048     1.007825032230
         H           -3.669503275757    -0.576116431897     0.012727340952     1.007825032230
         H            2.156360724243    -1.568256431897     1.466168340952     1.007825032230
         H            3.562093724243    -0.943194431897     0.546895340952     1.007825032230
         H            2.468314724243    -2.136530431897    -0.179626659048     1.007825032230
         H           -0.714549275757     2.794535568103     0.370886340952     1.007825032230

  Basis Set: AUG-CC-PVTZ
    Blend: AUG-CC-PVTZ
  Basis Set: (AUG-CC-PVTZ AUX)
    Blend: AUG-CC-PVTZ-JKFIT
	 Reference Energy          =    -457.4814742289319724 [Eh]
	 Singles Energy            =      -0.0000000000000000 [Eh]
	 Same-Spin Energy          =      -0.4783897128328906 [Eh]
	 Opposite-Spin Energy      =      -1.4740687442099214 [Eh]
	 Correlation Energy        =      -1.9524584570428121 [Eh]
	 Total Energy              =    -459.4339326859748098 [Eh]

	 ================> DF-SCS-MP2 Energies <==================
	-----------------------------------------------------------
	 SCS Same-Spin Scale       =       0.3333333333333333 [-]
	 SCS Opposite-Spin Scale   =       1.2000000000000000 [-]
	 SCS Same-Spin Energy      =      -0.1594632376109635 [Eh]
	 SCS Opposite-Spin Energy  =      -1.7688824930519056 [Eh]
	 SCS Correlation Energy    =      -1.9283457306628691 [Eh]
	 SCS Total Energy          =    -459.4098199595948699 [Eh]
	-----------------------------------------------------------

  Dipole Moment: [D]
     X:    -2.9104      Y:    -1.5113      Z:     1.2818     Total:     3.5210

*** Psi4 exiting successfully. Buy a developer a beer!
