                               Psi4 1.3.2 release

  ==> Input File <==

--------------------------------------------------------------------------
#psi4
#
memory 32 gb

molecule  {
0 1
  O       -0.0048250     2.1741760     0.2178480
  O        2.2663170     0.9084740    -0.5920830
  C        0.2215980    -0.1887240    -0.0416380
  C       -0.5997910     0.9512430     0.0794500
  C       -0.3937360    -1.4453650    -0.1432710
  C        1.7229233    -0.0958599     0.1477023
  C       -1.9917600     0.8092840     0.0995930
  C       -1.7801750    -1.5845230    -0.1400000
  C       -2.5802090    -0.4482640    -0.0192820
  C        2.5274150    -1.2247570     0.4590770
  H        0.2262520    -2.3327300    -0.2378970
  H       -2.6178000     1.6952910     0.2019520
  H       -2.2312480    -2.5684970    -0.2333300
  H       -3.6639410    -0.5356590    -0.0094230
  H        2.1619230    -1.5277990     1.4440180
  H        3.5676560    -0.9027370     0.5247450
  H        2.4738770    -2.0960730    -0.2017770
  H       -0.7089870     2.8349930     0.3487360
units angstrom
no_reorient  #important for SAPT in psi4, default
symmetry c1  #important for SAPT in psi4, default
}

set PROPERTIES_ORIGIN ["COM"]
properties('MP2/aug-cc-pvtz', properties = ['dipole'])
--------------------------------------------------------------------------

    Molecular point group: c1
  Charge       = 0
  Multiplicity = 1
  Basis Set: AUG-CC-PVTZ
    Blend: AUG-CC-PVTZ
  Basis Set: (AUG-CC-PVTZ AUX)
    Blend: AUG-CC-PVTZ-JKFIT

    Orbital Energies [Eh]
    ---------------------

    Doubly Occupied:

       1A    -20.595581     2A    -20.536871     3A    -11.346907
       4A    -11.324685     5A    -11.261362     6A    -11.260783
       7A    -11.257557     8A    -11.247619     9A    -11.242423
      10A    -11.239365    11A     -1.408567    12A     -1.297461
      13A     -1.163273    14A     -1.066124    15A     -1.020562
      16A     -1.016856    17A     -0.869868    18A     -0.847763
      19A     -0.766477    20A     -0.740356    21A     -0.682825
      22A     -0.667612    23A     -0.635950    24A     -0.621445
      25A     -0.616714    26A     -0.595057    27A     -0.588141
      28A     -0.571989    29A     -0.545234    30A     -0.521173
      31A     -0.513150    32A     -0.496396    33A     -0.445096
      34A     -0.418227    35A     -0.352907    36A     -0.325071

  @DF-RHF Final Energy:  -457.42521100310006

   => Energetics <=

    Nuclear Repulsion Energy =            493.5886883396565850
    One-Electron Energy =               -1601.8129054352480125
    Two-Electron Energy =                 650.7990060924913678
    Total Energy =                       -457.4252110031001166
  Basis Set: (AUG-CC-PVTZ AUX)
    Blend: AUG-CC-PVTZ-RI
    Molecular point group: c1

    Geometry (in Angstrom), charge = 0, multiplicity = 1:

       Center              X                  Y                   Z               Mass
    ------------   -----------------  -----------------  -----------------  -----------------
         O           -0.011359889039     2.136636011043     0.209284260979    15.994914619570
         O            2.259782110961     0.870934011043    -0.600646739021    15.994914619570
         C            0.215063110961    -0.226263988957    -0.050201739021    12.000000000000
         C           -0.606325889039     0.913703011043     0.070886260979    12.000000000000
         C           -0.400270889039    -1.482904988957    -0.151834739021    12.000000000000
         C            1.716388410961    -0.133399888957     0.139138560979    12.000000000000
         C           -1.998294889039     0.771744011043     0.091029260979    12.000000000000
         C           -1.786709889039    -1.622062988957    -0.148563739021    12.000000000000
         C           -2.586743889039    -0.485803988957    -0.027845739021    12.000000000000
         C            2.520880110961    -1.262296988957     0.450513260979    12.000000000000
         H            0.219717110961    -2.370269988957    -0.246460739021     1.007825032230
         H           -2.624334889039     1.657751011043     0.193388260979     1.007825032230
         H           -2.237782889039    -2.606036988957    -0.241893739021     1.007825032230
         H           -3.670475889039    -0.573198988957    -0.017986739021     1.007825032230
         H            2.155388110961    -1.565338988957     1.435454260979     1.007825032230
         H            3.561121110961    -0.940276988957     0.516181260979     1.007825032230
         H            2.467342110961    -2.133612988957    -0.210340739021     1.007825032230
         H           -0.715521889039     2.797453011043     0.340172260979     1.007825032230

  Basis Set: AUG-CC-PVTZ
    Blend: AUG-CC-PVTZ
  Basis Set: (AUG-CC-PVTZ AUX)
    Blend: AUG-CC-PVTZ-JKFIT
	 Reference Energy          =    -457.4252110031000598 [Eh]
	 Singles Energy            =      -0.0000000000000000 [Eh]
	 Same-Spin Energy          =      -0.4838950853301504 [Eh]
	 Opposite-Spin Energy      =      -1.4864225669618158 [Eh]
	 Correlation Energy        =      -1.9703176522919663 [Eh]
	 Total Energy              =    -459.3955286553920132 [Eh]

	 ================> DF-SCS-MP2 Energies <==================
	-----------------------------------------------------------
	 SCS Same-Spin Scale       =       0.3333333333333333 [-]
	 SCS Opposite-Spin Scale   =       1.2000000000000000 [-]
	 SCS Same-Spin Energy      =      -0.1612983617767168 [Eh]
	 SCS Opposite-Spin Energy  =      -1.7837070803541790 [Eh]
	 SCS Correlation Energy    =      -1.9450054421308958 [Eh]
	 SCS Total Energy          =    -459.3702164452309376 [Eh]
	-----------------------------------------------------------

  Dipole Moment: [D]
     X:    -2.6729      Y:    -1.7586      Z:     1.4484     Total:     3.5121

*** Psi4 exiting successfully. Buy a developer a beer!
