                               Psi4 1.3.2 release

  ==> Input File <==

--------------------------------------------------------------------------
#psi4
#
memory 32 gb

molecule  {
0 1
  O       -0.0048250     2.1741760     0.2178480
  O        2.2663170     0.9084740    -0.5920830
  C        0.2215980    -0.1887240    -0.0416380
  C       -0.5997910     0.9512430     0.0794500
  C       -0.3937360    -1.4453650    -0.1432710
  C        1.7133810    -0.0735570    -0.1011180
  C       -1.9954722     0.8362196    -0.1489240
  C       -1.7801750    -1.5845230    -0.1400000
  C       -2.5802090    -0.4482640    -0.0192820
  C        2.5274150    -1.2247570     0.4590770
  H        0.2262520    -2.3327300    -0.2378970
  H       -2.6178000     1.6952910     0.2019520
  H       -2.2312480    -2.5684970    -0.2333300
  H       -3.6639410    -0.5356590    -0.0094230
  H        2.1619230    -1.5277990     1.4440180
  H        3.5676560    -0.9027370     0.5247450
  H        2.4738770    -2.0960730    -0.2017770
  H       -0.7089870     2.8349930     0.3487360
units angstrom
no_reorient  #important for SAPT in psi4, default
symmetry c1  #important for SAPT in psi4, default
}

set PROPERTIES_ORIGIN ["COM"]
properties('MP2/aug-cc-pvtz', properties = ['dipole'])
--------------------------------------------------------------------------

    Molecular point group: c1
  Charge       = 0
  Multiplicity = 1
  Basis Set: AUG-CC-PVTZ
    Blend: AUG-CC-PVTZ
  Basis Set: (AUG-CC-PVTZ AUX)
    Blend: AUG-CC-PVTZ-JKFIT

    Orbital Energies [Eh]
    ---------------------

    Doubly Occupied:

       1A    -20.598770     2A    -20.538132     3A    -11.333617
       4A    -11.329377     5A    -11.266244     6A    -11.264644
       7A    -11.252042     8A    -11.249711     9A    -11.241815
      10A    -11.233621    11A     -1.411824    12A     -1.367926
      13A     -1.162200    14A     -1.055741    15A     -1.017702
      16A     -0.994848    17A     -0.869907    18A     -0.846667
      19A     -0.762390    20A     -0.739369    21A     -0.678948
      22A     -0.668122    23A     -0.638017    24A     -0.620377
      25A     -0.603884    26A     -0.601888    27A     -0.588937
      28A     -0.574060    29A     -0.551323    30A     -0.530546
      31A     -0.517454    32A     -0.496059    33A     -0.480046
      34A     -0.411062    35A     -0.356430    36A     -0.327078

  @DF-RHF Final Energy:  -457.46656053902655

   => Energetics <=

    Nuclear Repulsion Energy =            494.1269232241413079
    One-Electron Energy =               -1602.8254109843969673
    Two-Electron Energy =                 651.2319272212290571
    Total Energy =                       -457.4665605390265455
  Basis Set: (AUG-CC-PVTZ AUX)
    Blend: AUG-CC-PVTZ-RI
    Molecular point group: c1

    Geometry (in Angstrom), charge = 0, multiplicity = 1:

       Center              X                  Y                   Z               Mass
    ------------   -----------------  -----------------  -----------------  -----------------
         O           -0.010190825020     2.132293111750     0.253150053175    15.994914619570
         O            2.260951174980     0.866591111750    -0.556780946825    15.994914619570
         C            0.216232174980    -0.230606888250    -0.006335946825    12.000000000000
         C           -0.605156825020     0.909360111750     0.114752053175    12.000000000000
         C           -0.399101825020    -1.487247888250    -0.107968946825    12.000000000000
         C            1.708015174980    -0.115439888250    -0.065815946825    12.000000000000
         C           -2.000838025020     0.794336711750    -0.113621946825    12.000000000000
         C           -1.785540825020    -1.626405888250    -0.104697946825    12.000000000000
         C           -2.585574825020    -0.490146888250     0.016020053175    12.000000000000
         C            2.522049174980    -1.266639888250     0.494379053175    12.000000000000
         H            0.220886174980    -2.374612888250    -0.202594946825     1.007825032230
         H           -2.623165825020     1.653408111750     0.237254053175     1.007825032230
         H           -2.236613825020    -2.610379888250    -0.198027946825     1.007825032230
         H           -3.669306825020    -0.577541888250     0.025879053175     1.007825032230
         H            2.156557174980    -1.569681888250     1.479320053175     1.007825032230
         H            3.562290174980    -0.944619888250     0.560047053175     1.007825032230
         H            2.468511174980    -2.137955888250    -0.166474946825     1.007825032230
         H           -0.714352825020     2.793110111750     0.384038053175     1.007825032230

  Basis Set: AUG-CC-PVTZ
    Blend: AUG-CC-PVTZ
  Basis Set: (AUG-CC-PVTZ AUX)
    Blend: AUG-CC-PVTZ-JKFIT
	 Reference Energy          =    -457.4665605390265455 [Eh]
	 Singles Energy            =      -0.0000000000000000 [Eh]
	 Same-Spin Energy          =      -0.4789570164414566 [Eh]
	 Opposite-Spin Energy      =      -1.4760581429431427 [Eh]
	 Correlation Energy        =      -1.9550151593845992 [Eh]
	 Total Energy              =    -459.4215756984111181 [Eh]

	 ================> DF-SCS-MP2 Energies <==================
	-----------------------------------------------------------
	 SCS Same-Spin Scale       =       0.3333333333333333 [-]
	 SCS Opposite-Spin Scale   =       1.2000000000000000 [-]
	 SCS Same-Spin Energy      =      -0.1596523388138189 [Eh]
	 SCS Opposite-Spin Energy  =      -1.7712697715317713 [Eh]
	 SCS Correlation Energy    =      -1.9309221103455902 [Eh]
	 SCS Total Energy          =    -459.3974826493721366 [Eh]
	-----------------------------------------------------------

  Dipole Moment: [D]
     X:    -2.8106      Y:    -1.5920      Z:     1.3736     Total:     3.5101

*** Psi4 exiting successfully. Buy a developer a beer!
