                               Psi4 1.3.2 release

  ==> Input File <==

--------------------------------------------------------------------------
#psi4
#
memory 32 gb

molecule  {
0 1
  O       -0.0048250     2.1741760     0.2178480
  O        2.2663170     0.9084740    -0.5920830
  C        0.2215980    -0.1887240    -0.0416380
  C       -0.5997910     0.9512430     0.0794500
  C       -0.3937360    -1.4453650    -0.1432710
  C        1.7133810    -0.0735570    -0.1011180
  C       -1.9917600     0.8092840     0.0995930
  C       -1.7801750    -1.5845230    -0.1400000
  C       -2.5802090    -0.4482640    -0.0192820
  C        2.5276166    -1.2026370     0.5039174
  H        0.2262520    -2.3327300    -0.2378970
  H       -2.6178000     1.6952910     0.2019520
  H       -2.2312480    -2.5684970    -0.2333300
  H       -3.6639410    -0.5356590    -0.0094230
  H        2.1619230    -1.5277990     1.4440180
  H        3.5676560    -0.9027370     0.5247450
  H        2.4738770    -2.0960730    -0.2017770
  H       -0.7089870     2.8349930     0.3487360
units angstrom
no_reorient  #important for SAPT in psi4, default
symmetry c1  #important for SAPT in psi4, default
}

set PROPERTIES_ORIGIN ["COM"]
properties('MP2/aug-cc-pvtz', properties = ['dipole'])
--------------------------------------------------------------------------

    Molecular point group: c1
  Charge       = 0
  Multiplicity = 1
  Basis Set: AUG-CC-PVTZ
    Blend: AUG-CC-PVTZ
  Basis Set: (AUG-CC-PVTZ AUX)
    Blend: AUG-CC-PVTZ-JKFIT

    Orbital Energies [Eh]
    ---------------------

    Doubly Occupied:

       1A    -20.597163     2A    -20.537393     3A    -11.333357
       4A    -11.324786     5A    -11.261096     6A    -11.261007
       7A    -11.249939     8A    -11.247487     9A    -11.241746
      10A    -11.234069    11A     -1.410805    12A     -1.367347
      13A     -1.163612    14A     -1.057162    15A     -1.019233
      16A     -0.995086    17A     -0.871214    18A     -0.848131
      19A     -0.764207    20A     -0.740394    21A     -0.681069
      22A     -0.670234    23A     -0.638381    24A     -0.620171
      25A     -0.610285    26A     -0.601710    27A     -0.584631
      28A     -0.575306    29A     -0.553480    30A     -0.533587
      31A     -0.520797    32A     -0.498635    33A     -0.478000
      34A     -0.410432    35A     -0.356564    36A     -0.327303

  @DF-RHF Final Energy:  -457.48176206502256

   => Energetics <=

    Nuclear Repulsion Energy =            494.8161623894881700
    One-Electron Energy =               -1604.2242090513395851
    Two-Electron Energy =                 651.9262845968288502
    Total Energy =                       -457.4817620650225081
  Basis Set: (AUG-CC-PVTZ AUX)
    Blend: AUG-CC-PVTZ-RI
    Molecular point group: c1

    Geometry (in Angstrom), charge = 0, multiplicity = 1:

       Center              X                  Y                   Z               Mass
    ------------   -----------------  -----------------  -----------------  -----------------
         O           -0.010536027235     2.132717853889     0.227275551609    15.994914619570
         O            2.260605972765     0.867015853889    -0.582655448391    15.994914619570
         C            0.215886972765    -0.230182146111    -0.032210448391    12.000000000000
         C           -0.605502027235     0.909784853889     0.088877551609    12.000000000000
         C           -0.399447027235    -1.486823146111    -0.133843448391    12.000000000000
         C            1.707669972765    -0.115015146111    -0.091690448391    12.000000000000
         C           -1.997471027235     0.767825853889     0.109020551609    12.000000000000
         C           -1.785886027235    -1.625981146111    -0.130572448391    12.000000000000
         C           -2.585920027235    -0.489722146111    -0.009854448391    12.000000000000
         C            2.521905572765    -1.244095146111     0.513344951609    12.000000000000
         H            0.220540972765    -2.374188146111    -0.228469448391     1.007825032230
         H           -2.623511027235     1.653832853889     0.211379551609     1.007825032230
         H           -2.236959027235    -2.609955146111    -0.223902448391     1.007825032230
         H           -3.669652027235    -0.577117146111     0.000004551609     1.007825032230
         H            2.156211972765    -1.569257146111     1.453445551609     1.007825032230
         H            3.561944972765    -0.944195146111     0.534172551609     1.007825032230
         H            2.468165972765    -2.137531146111    -0.192349448391     1.007825032230
         H           -0.714698027235     2.793534853889     0.358163551609     1.007825032230

  Basis Set: AUG-CC-PVTZ
    Blend: AUG-CC-PVTZ
  Basis Set: (AUG-CC-PVTZ AUX)
    Blend: AUG-CC-PVTZ-JKFIT
	 Reference Energy          =    -457.4817620650225649 [Eh]
	 Singles Energy            =      -0.0000000000000000 [Eh]
	 Same-Spin Energy          =      -0.4783330878026425 [Eh]
	 Opposite-Spin Energy      =      -1.4738214689865332 [Eh]
	 Correlation Energy        =      -1.9521545567891758 [Eh]
	 Total Energy              =    -459.4339166218117612 [Eh]

	 ================> DF-SCS-MP2 Energies <==================
	-----------------------------------------------------------
	 SCS Same-Spin Scale       =       0.3333333333333333 [-]
	 SCS Opposite-Spin Scale   =       1.2000000000000000 [-]
	 SCS Same-Spin Energy      =      -0.1594443626008808 [Eh]
	 SCS Opposite-Spin Energy  =      -1.7685857627838397 [Eh]
	 SCS Correlation Energy    =      -1.9280301253847205 [Eh]
	 SCS Total Energy          =    -459.4097921904073019 [Eh]
	-----------------------------------------------------------

  Dipole Moment: [D]
     X:    -2.9257      Y:    -1.4952      Z:     1.2371     Total:     3.5108

*** Psi4 exiting successfully. Buy a developer a beer!
