                               Psi4 1.3.2 release

  ==> Input File <==

--------------------------------------------------------------------------
#psi4
#
memory 32 gb

molecule  {
0 1
  O       -0.0048250     2.1741760     0.2178480
  O        2.2663170     0.9084740    -0.5920830
  C        0.2215980    -0.1887240    -0.0416380
  C       -0.5997910     0.9512430     0.0794500
  C       -0.3937360    -1.4453650    -0.1432710
  C        1.7133810    -0.0735570    -0.1011180
  C       -1.9917600     0.8092840     0.0995930
  C       -1.7801750    -1.5845230    -0.1400000
  C       -2.5802090    -0.4482640    -0.0192820
  C        2.5284229    -1.1141569     0.6832792
  H        0.2262520    -2.3327300    -0.2378970
  H       -2.6178000     1.6952910     0.2019520
  H       -2.2312480    -2.5684970    -0.2333300
  H       -3.6639410    -0.5356590    -0.0094230
  H        2.1619230    -1.5277990     1.4440180
  H        3.5676560    -0.9027370     0.5247450
  H        2.4738770    -2.0960730    -0.2017770
  H       -0.7089870     2.8349930     0.3487360
units angstrom
no_reorient  #important for SAPT in psi4, default
symmetry c1  #important for SAPT in psi4, default
}

set PROPERTIES_ORIGIN ["COM"]
properties('MP2/aug-cc-pvtz', properties = ['dipole'])
--------------------------------------------------------------------------

    Molecular point group: c1
  Charge       = 0
  Multiplicity = 1
  Basis Set: AUG-CC-PVTZ
    Blend: AUG-CC-PVTZ
  Basis Set: (AUG-CC-PVTZ AUX)
    Blend: AUG-CC-PVTZ-JKFIT

    Orbital Energies [Eh]
    ---------------------

    Doubly Occupied:

       1A    -20.597383     2A    -20.537877     3A    -11.338335
       4A    -11.325268     5A    -11.260928     6A    -11.260358
       7A    -11.250962     8A    -11.247764     9A    -11.244061
      10A    -11.241585    11A     -1.411141    12A     -1.368073
      13A     -1.163663    14A     -1.057312    15A     -1.019332
      16A     -0.998171    17A     -0.871846    18A     -0.849358
      19A     -0.767229    20A     -0.740678    21A     -0.691830
      22A     -0.675854    23A     -0.647198    24A     -0.623170
      25A     -0.611114    26A     -0.607053    27A     -0.585256
      28A     -0.576553    29A     -0.541299    30A     -0.533553
      31A     -0.519763    32A     -0.493507    33A     -0.457579
      34A     -0.408935    35A     -0.356824    36A     -0.327564

  @DF-RHF Final Energy:  -457.43074491337291

   => Energetics <=

    Nuclear Repulsion Energy =            494.5224777723536818
    One-Electron Energy =               -1603.4896880119706566
    Two-Electron Energy =                 651.5364653262441834
    Total Energy =                       -457.4307449133729051
  Basis Set: (AUG-CC-PVTZ AUX)
    Blend: AUG-CC-PVTZ-RI
    Molecular point group: c1

    Geometry (in Angstrom), charge = 0, multiplicity = 1:

       Center              X                  Y                   Z               Mass
    ------------   -----------------  -----------------  -----------------  -----------------
         O           -0.010607143936     2.124913794793     0.211455609195    15.994914619570
         O            2.260534856064     0.859211794793    -0.598475390805    15.994914619570
         C            0.215815856064    -0.237986205207    -0.048030390805    12.000000000000
         C           -0.605573143936     0.901980794793     0.073057609195    12.000000000000
         C           -0.399518143936    -1.494627205207    -0.149663390805    12.000000000000
         C            1.707598856064    -0.122819205207    -0.107510390805    12.000000000000
         C           -1.997542143936     0.760021794793     0.093200609195    12.000000000000
         C           -1.785957143936    -1.633785205207    -0.146392390805    12.000000000000
         C           -2.585991143936    -0.497526205207    -0.025674390805    12.000000000000
         C            2.522640756064    -1.163419105207     0.676886809195    12.000000000000
         H            0.220469856064    -2.381992205207    -0.244289390805     1.007825032230
         H           -2.623582143936     1.646028794793     0.195559609195     1.007825032230
         H           -2.237030143936    -2.617759205207    -0.239722390805     1.007825032230
         H           -3.669723143936    -0.584921205207    -0.015815390805     1.007825032230
         H            2.156140856064    -1.577061205207     1.437625609195     1.007825032230
         H            3.561873856064    -0.951999205207     0.518352609195     1.007825032230
         H            2.468094856064    -2.145335205207    -0.208169390805     1.007825032230
         H           -0.714769143936     2.785730794793     0.342343609195     1.007825032230

  Basis Set: AUG-CC-PVTZ
    Blend: AUG-CC-PVTZ
  Basis Set: (AUG-CC-PVTZ AUX)
    Blend: AUG-CC-PVTZ-JKFIT
	 Reference Energy          =    -457.4307449133729051 [Eh]
	 Singles Energy            =      -0.0000000000000000 [Eh]
	 Same-Spin Energy          =      -0.4792036229611205 [Eh]
	 Opposite-Spin Energy      =      -1.4763858322818844 [Eh]
	 Correlation Energy        =      -1.9555894552430049 [Eh]
	 Total Energy              =    -459.3863343686159055 [Eh]

	 ================> DF-SCS-MP2 Energies <==================
	-----------------------------------------------------------
	 SCS Same-Spin Scale       =       0.3333333333333333 [-]
	 SCS Opposite-Spin Scale   =       1.2000000000000000 [-]
	 SCS Same-Spin Energy      =      -0.1597345409870402 [Eh]
	 SCS Opposite-Spin Energy  =      -1.7716629987382613 [Eh]
	 SCS Correlation Energy    =      -1.9313975397253014 [Eh]
	 SCS Total Energy          =    -459.3621424530982154 [Eh]
	-----------------------------------------------------------

  Dipole Moment: [D]
     X:    -2.9078      Y:    -1.4691      Z:     1.2929     Total:     3.5051

*** Psi4 exiting successfully. Buy a developer a beer!
