                               Psi4 1.3.2 release

  ==> Input File <==

--------------------------------------------------------------------------
#psi4
#
memory 32 gb

molecule  {
0 1
  O       -0.0048250     2.1741760     0.2178480
  O        2.2663170     0.9084740    -0.5920830
  C        0.2215980    -0.1887240    -0.0416380
  C       -0.5997910     0.9512430     0.0794500
  C       -0.3937360    -1.4453650    -0.1432710
  C        1.7133810    -0.0735570    -0.1011180
  C       -1.9917600     0.8092840     0.0995930
  C       -1.7801750    -1.5845230    -0.1400000
  C       -2.5802090    -0.4482640    -0.0192820
  C        2.5274150    -1.2247570     0.4590770
  H        0.2262520    -2.3327300    -0.2378970
  H       -2.6178000     1.6952910     0.2019520
  H       -2.2312480    -2.5684970    -0.2333300
  H       -3.6639410    -0.5356590    -0.0094230
  H        2.1619230    -1.5277990     1.4440180
  H        3.5676560    -0.9027370     0.5247450
  H        2.4738770    -2.0960730    -0.2017770
  H       -0.7089870     2.8349930     0.3487360
units angstrom
no_reorient  #important for SAPT in psi4, default
symmetry c1  #important for SAPT in psi4, default
}

set PROPERTIES_ORIGIN ["COM"]
properties('MP2/aug-cc-pvtz', properties = ['dipole'])
--------------------------------------------------------------------------

    Molecular point group: c1
  Charge       = 0
  Multiplicity = 1
  Basis Set: AUG-CC-PVTZ
    Blend: AUG-CC-PVTZ
  Basis Set: (AUG-CC-PVTZ AUX)
    Blend: AUG-CC-PVTZ-JKFIT

    Orbital Energies [Eh]
    ---------------------

    Doubly Occupied:

       1A    -20.597175     2A    -20.537553     3A    -11.333132
       4A    -11.324723     5A    -11.261185     6A    -11.261153
       7A    -11.249840     8A    -11.247450     9A    -11.241801
      10A    -11.233325    11A     -1.410793    12A     -1.367421
      13A     -1.163637    14A     -1.057201    15A     -1.019243
      16A     -0.994879    17A     -0.871263    18A     -0.847988
      19A     -0.764062    20A     -0.740490    21A     -0.680964
      22A     -0.669398    23A     -0.637302    24A     -0.621414
      25A     -0.610706    26A     -0.599547    27A     -0.587598
      28A     -0.575471    29A     -0.551246    30A     -0.532017
      31A     -0.520874    32A     -0.499834    33A     -0.480009
      34A     -0.410596    35A     -0.356493    36A     -0.327278

  @DF-RHF Final Energy:  -457.48415404812567

   => Energetics <=

    Nuclear Repulsion Energy =            494.8326102219846803
    One-Electron Energy =               -1604.2634100827708608
    Two-Electron Energy =                 651.9466458126605630
    Total Energy =                       -457.4841540481256743
  Basis Set: (AUG-CC-PVTZ AUX)
    Blend: AUG-CC-PVTZ-RI
    Molecular point group: c1

    Geometry (in Angstrom), charge = 0, multiplicity = 1:

       Center              X                  Y                   Z               Mass
    ------------   -----------------  -----------------  -----------------  -----------------
         O           -0.010518245854     2.134668866458     0.231230532803    15.994914619570
         O            2.260623754146     0.868966866458    -0.578700467197    15.994914619570
         C            0.215904754146    -0.228231133542    -0.028255467197    12.000000000000
         C           -0.605484245854     0.911735866458     0.092832532803    12.000000000000
         C           -0.399429245854    -1.484872133542    -0.129888467197    12.000000000000
         C            1.707687754146    -0.113064133542    -0.087735467197    12.000000000000
         C           -1.997453245854     0.769776866458     0.112975532803    12.000000000000
         C           -1.785868245854    -1.624030133542    -0.126617467197    12.000000000000
         C           -2.585902245854    -0.487771133542    -0.005899467197    12.000000000000
         C            2.521721754146    -1.264264133542     0.472459532803    12.000000000000
         H            0.220558754146    -2.372237133542    -0.224514467197     1.007825032230
         H           -2.623493245854     1.655783866458     0.215334532803     1.007825032230
         H           -2.236941245854    -2.608004133542    -0.219947467197     1.007825032230
         H           -3.669634245854    -0.575166133542     0.003959532803     1.007825032230
         H            2.156229754146    -1.567306133542     1.457400532803     1.007825032230
         H            3.561962754146    -0.942244133542     0.538127532803     1.007825032230
         H            2.468183754146    -2.135580133542    -0.188394467197     1.007825032230
         H           -0.714680245854     2.795485866458     0.362118532803     1.007825032230

  Basis Set: AUG-CC-PVTZ
    Blend: AUG-CC-PVTZ
  Basis Set: (AUG-CC-PVTZ AUX)
    Blend: AUG-CC-PVTZ-JKFIT
	 Reference Energy          =    -457.4841540481256743 [Eh]
	 Singles Energy            =      -0.0000000000000000 [Eh]
	 Same-Spin Energy          =      -0.4782778749691747 [Eh]
	 Opposite-Spin Energy      =      -1.4737373587916618 [Eh]
	 Correlation Energy        =      -1.9520152337608365 [Eh]
	 Total Energy              =    -459.4361692818865208 [Eh]

	 ================> DF-SCS-MP2 Energies <==================
	-----------------------------------------------------------
	 SCS Same-Spin Scale       =       0.3333333333333333 [-]
	 SCS Opposite-Spin Scale   =       1.2000000000000000 [-]
	 SCS Same-Spin Energy      =      -0.1594259583230582 [Eh]
	 SCS Opposite-Spin Energy  =      -1.7684848305499941 [Eh]
	 SCS Correlation Energy    =      -1.9279107888730522 [Eh]
	 SCS Total Energy          =    -459.4120648369987521 [Eh]
	-----------------------------------------------------------

  Dipole Moment: [D]
     X:    -2.9312      Y:    -1.4921      Z:     1.2192     Total:     3.5078

*** Psi4 exiting successfully. Buy a developer a beer!
