                               Psi4 1.3.2 release

  ==> Input File <==

--------------------------------------------------------------------------
#psi4
#
memory 32 gb

molecule  {
0 1
  C        0.0298960     1.2151600    -0.5253010
  C       -1.3371621     0.3874470    -0.2802738
  C        1.2387340     0.3598870    -0.1935000
  C        0.1038590     2.5478040     0.2258340
  C       -1.5567990    -0.6199760    -1.1655540
  C        2.3476650     0.3323920    -1.0476860
  C       -2.1272630     0.6989940     0.7661610
  C        1.2925180    -0.3667490     1.0043040
  C       -2.7057380    -1.3882370    -0.9902370
  C        3.4841570    -0.4112490    -0.7213440
  C       -3.2813200    -0.0705980     0.9462280
  C        2.4271420    -1.1078630     1.3345690
  C       -3.5735090    -1.1167760     0.0719390
  C        3.5283310    -1.1302700     0.4741930
  H        0.0764800     1.4411670    -1.6006990
  H        0.1404440     2.3872360     1.3072550
  H       -0.7568690     3.1831820    -0.0065830
  H        1.0165510     3.0793450    -0.0591360
  H       -0.8776040    -0.8405290    -1.9883130
  H        2.3169530     0.8915480    -1.9822160
  H       -1.9259890     1.5154960     1.4543950
  H        0.4297020    -0.3695730     1.6680340
  H       -2.9244160    -2.2005870    -1.6797290
  H        4.3341360    -0.4274460    -1.3999430
  H       -3.9507500     0.1497620     1.7748780
  H        2.4522940    -1.6709080     2.2649740
  H       -4.4717450    -1.7133490     0.2118480
  H        4.4104250    -1.7123070     0.7301740
units angstrom
no_reorient  #important for SAPT in psi4, default
symmetry c1  #important for SAPT in psi4, default
}

set PROPERTIES_ORIGIN ["COM"]
properties('MP2/aug-cc-pvtz', properties = ['dipole'])
--------------------------------------------------------------------------

    Molecular point group: c1
  Charge       = 0
  Multiplicity = 1
  Basis Set: AUG-CC-PVTZ
    Blend: AUG-CC-PVTZ
  Basis Set: (AUG-CC-PVTZ AUX)
    Blend: AUG-CC-PVTZ-JKFIT

    Orbital Energies [Eh]
    ---------------------

    Doubly Occupied:

       1A    -11.244693     2A    -11.238653     3A    -11.236344
       4A    -11.235876     5A    -11.235263     6A    -11.234383
       7A    -11.233650     8A    -11.231363     9A    -11.230669
      10A    -11.230316    11A    -11.228087    12A    -11.226563
      13A    -11.226388    14A    -11.218580    15A     -1.167229
      16A     -1.147461    17A     -1.073476    18A     -1.018257
      19A     -1.010946    20A     -1.007241    21A     -0.975445
      22A     -0.869689    23A     -0.829186    24A     -0.822916
      25A     -0.811422    26A     -0.770417    27A     -0.701459
      28A     -0.687093    29A     -0.643152    30A     -0.634393
      31A     -0.627997    32A     -0.616707    33A     -0.594290
      34A     -0.593039    35A     -0.581904    36A     -0.575057
      37A     -0.545619    38A     -0.530810    39A     -0.513365
      40A     -0.509092    41A     -0.498795    42A     -0.493354
      43A     -0.478016    44A     -0.472836    45A     -0.445301
      46A     -0.341236    47A     -0.338012    48A     -0.332728
      49A     -0.316145

  @DF-RHF Final Energy:  -538.47964563572191

   => Energetics <=

    Nuclear Repulsion Energy =            807.5414738421039829
    One-Electron Energy =               -2330.3924133919999804
    Two-Electron Energy =                 984.3712939141739753
    Total Energy =                       -538.4796456357219085
  Basis Set: (AUG-CC-PVTZ AUX)
    Blend: AUG-CC-PVTZ-RI
    Molecular point group: c1

    Geometry (in Angstrom), charge = 0, multiplicity = 1:

       Center              X                  Y                   Z               Mass
    ------------   -----------------  -----------------  -----------------  -----------------
         C            0.036936528485     1.238762915691    -0.522513465361    12.000000000000
         C           -1.330121571515     0.411049915691    -0.277486265361    12.000000000000
         C            1.245774528485     0.383489915691    -0.190712465361    12.000000000000
         C            0.110899528485     2.571406915691     0.228621534639    12.000000000000
         C           -1.549758471515    -0.596373084309    -1.162766465361    12.000000000000
         C            2.354705528485     0.355994915691    -1.044898465361    12.000000000000
         C           -2.120222471515     0.722596915691     0.768948534639    12.000000000000
         C            1.299558528485    -0.343146084309     1.007091534639    12.000000000000
         C           -2.698697471515    -1.364634084309    -0.987449465361    12.000000000000
         C            3.491197528485    -0.387646084309    -0.718556465361    12.000000000000
         C           -3.274279471515    -0.046995084309     0.949015534639    12.000000000000
         C            2.434182528485    -1.084260084309     1.337356534639    12.000000000000
         C           -3.566468471515    -1.093173084309     0.074726534639    12.000000000000
         C            3.535371528485    -1.106667084309     0.476980534639    12.000000000000
         H            0.083520528485     1.464769915691    -1.597911465361     1.007825032230
         H            0.147484528485     2.410838915691     1.310042534639     1.007825032230
         H           -0.749828471515     3.206784915691    -0.003795465361     1.007825032230
         H            1.023591528485     3.102947915691    -0.056348465361     1.007825032230
         H           -0.870563471515    -0.816926084309    -1.985525465361     1.007825032230
         H            2.323993528485     0.915150915691    -1.979428465361     1.007825032230
         H           -1.918948471515     1.539098915691     1.457182534639     1.007825032230
         H            0.436742528485    -0.345970084309     1.670821534639     1.007825032230
         H           -2.917375471515    -2.176984084309    -1.676941465361     1.007825032230
         H            4.341176528485    -0.403843084309    -1.397155465361     1.007825032230
         H           -3.943709471515     0.173364915691     1.777665534639     1.007825032230
         H            2.459334528485    -1.647305084309     2.267761534639     1.007825032230
         H           -4.464704471515    -1.689746084309     0.214635534639     1.007825032230
         H            4.417465528485    -1.688704084309     0.732961534639     1.007825032230

  Basis Set: AUG-CC-PVTZ
    Blend: AUG-CC-PVTZ
  Basis Set: (AUG-CC-PVTZ AUX)
    Blend: AUG-CC-PVTZ-JKFIT
	 Reference Energy          =    -538.4796456357219085 [Eh]
	 Singles Energy            =      -0.0000000000000000 [Eh]
	 Same-Spin Energy          =      -0.6094933947018218 [Eh]
	 Opposite-Spin Energy      =      -1.9372001012756568 [Eh]
	 Correlation Energy        =      -2.5466934959774785 [Eh]
	 Total Energy              =    -541.0263391316993875 [Eh]

	 ================> DF-SCS-MP2 Energies <==================
	-----------------------------------------------------------
	 SCS Same-Spin Scale       =       0.3333333333333333 [-]
	 SCS Opposite-Spin Scale   =       1.2000000000000000 [-]
	 SCS Same-Spin Energy      =      -0.2031644649006073 [Eh]
	 SCS Opposite-Spin Energy  =      -2.3246401215307881 [Eh]
	 SCS Correlation Energy    =      -2.5278045864313956 [Eh]
	 SCS Total Energy          =    -541.0074502221533521 [Eh]
	-----------------------------------------------------------

  Dipole Moment: [D]
     X:    -0.1035      Y:     0.1691      Z:    -0.0665     Total:     0.2091

*** Psi4 exiting successfully. Buy a developer a beer!
