                               Psi4 1.3.2 release

  ==> Input File <==

--------------------------------------------------------------------------
#psi4
#
memory 32 gb

molecule  {
0 1
  C        0.0298960     1.2151600    -0.5253010
  C       -1.2526080     0.4386420    -0.2954290
  C        1.2387340     0.3598870    -0.1935000
  C        0.1038590     2.5478040     0.2258340
  C       -1.5567990    -0.6199760    -1.1655540
  C        2.3476650     0.3323920    -1.0476860
  C       -2.1897419     0.7175916     0.8419932
  C        1.2925180    -0.3667490     1.0043040
  C       -2.7057380    -1.3882370    -0.9902370
  C        3.4841570    -0.4112490    -0.7213440
  C       -3.2813200    -0.0705980     0.9462280
  C        2.4271420    -1.1078630     1.3345690
  C       -3.5735090    -1.1167760     0.0719390
  C        3.5283310    -1.1302700     0.4741930
  H        0.0764800     1.4411670    -1.6006990
  H        0.1404440     2.3872360     1.3072550
  H       -0.7568690     3.1831820    -0.0065830
  H        1.0165510     3.0793450    -0.0591360
  H       -0.8776040    -0.8405290    -1.9883130
  H        2.3169530     0.8915480    -1.9822160
  H       -1.9259890     1.5154960     1.4543950
  H        0.4297020    -0.3695730     1.6680340
  H       -2.9244160    -2.2005870    -1.6797290
  H        4.3341360    -0.4274460    -1.3999430
  H       -3.9507500     0.1497620     1.7748780
  H        2.4522940    -1.6709080     2.2649740
  H       -4.4717450    -1.7133490     0.2118480
  H        4.4104250    -1.7123070     0.7301740
units angstrom
no_reorient  #important for SAPT in psi4, default
symmetry c1  #important for SAPT in psi4, default
}

set PROPERTIES_ORIGIN ["COM"]
properties('MP2/aug-cc-pvtz', properties = ['dipole'])
--------------------------------------------------------------------------

    Molecular point group: c1
  Charge       = 0
  Multiplicity = 1
  Basis Set: AUG-CC-PVTZ
    Blend: AUG-CC-PVTZ
  Basis Set: (AUG-CC-PVTZ AUX)
    Blend: AUG-CC-PVTZ-JKFIT

    Orbital Energies [Eh]
    ---------------------

    Doubly Occupied:

       1A    -11.250906     2A    -11.243977     3A    -11.240578
       4A    -11.236490     5A    -11.235358     6A    -11.234596
       7A    -11.233124     8A    -11.231944     9A    -11.231898
      10A    -11.231346    11A    -11.230444    12A    -11.229365
      13A    -11.229323    14A    -11.221065    15A     -1.161715
      16A     -1.141866    17A     -1.081885    18A     -1.019537
      19A     -1.010916    20A     -1.001152    21A     -0.972917
      22A     -0.879030    23A     -0.827745    24A     -0.818661
      25A     -0.812398    26A     -0.769028    27A     -0.701284
      28A     -0.689928    29A     -0.648660    30A     -0.639296
      31A     -0.628735    32A     -0.609875    33A     -0.595047
      34A     -0.589928    35A     -0.583375    36A     -0.577946
      37A     -0.549279    38A     -0.536104    39A     -0.513291
      40A     -0.507297    41A     -0.494027    42A     -0.488780
      43A     -0.478859    44A     -0.474133    45A     -0.457280
      46A     -0.345417    47A     -0.334335    48A     -0.330843
      49A     -0.307657

  @DF-RHF Final Energy:  -538.47646117455349

   => Energetics <=

    Nuclear Repulsion Energy =            805.9805348975056631
    One-Electron Energy =               -2327.1967181452423574
    Two-Electron Energy =                 982.7397220731833158
    Total Energy =                       -538.4764611745534921
  Basis Set: (AUG-CC-PVTZ AUX)
    Blend: AUG-CC-PVTZ-RI
    Molecular point group: c1

    Geometry (in Angstrom), charge = 0, multiplicity = 1:

       Center              X                  Y                   Z               Mass
    ------------   -----------------  -----------------  -----------------  -----------------
         C            0.035481896373     1.234163974021    -0.526511740016    12.000000000000
         C           -1.247022103627     0.457645974021    -0.296639740016    12.000000000000
         C            1.244319896373     0.378890974021    -0.194710740016    12.000000000000
         C            0.109444896373     2.566807974021     0.224623259984    12.000000000000
         C           -1.551213103627    -0.600972025979    -1.166764740016    12.000000000000
         C            2.353250896373     0.351395974021    -1.048896740016    12.000000000000
         C           -2.184156003627     0.736595574021     0.840782459984    12.000000000000
         C            1.298103896373    -0.347745025979     1.003093259984    12.000000000000
         C           -2.700152103627    -1.369233025979    -0.991447740016    12.000000000000
         C            3.489742896373    -0.392245025979    -0.722554740016    12.000000000000
         C           -3.275734103627    -0.051594025979     0.945017259984    12.000000000000
         C            2.432727896373    -1.088859025979     1.333358259984    12.000000000000
         C           -3.567923103627    -1.097772025979     0.070728259984    12.000000000000
         C            3.533916896373    -1.111266025979     0.472982259984    12.000000000000
         H            0.082065896373     1.460170974021    -1.601909740016     1.007825032230
         H            0.146029896373     2.406239974021     1.306044259984     1.007825032230
         H           -0.751283103627     3.202185974021    -0.007793740016     1.007825032230
         H            1.022136896373     3.098348974021    -0.060346740016     1.007825032230
         H           -0.872018103627    -0.821525025979    -1.989523740016     1.007825032230
         H            2.322538896373     0.910551974021    -1.983426740016     1.007825032230
         H           -1.920403103627     1.534499974021     1.453184259984     1.007825032230
         H            0.435287896373    -0.350569025979     1.666823259984     1.007825032230
         H           -2.918830103627    -2.181583025979    -1.680939740016     1.007825032230
         H            4.339721896373    -0.408442025979    -1.401153740016     1.007825032230
         H           -3.945164103627     0.168765974021     1.773667259984     1.007825032230
         H            2.457879896373    -1.651904025979     2.263763259984     1.007825032230
         H           -4.466159103627    -1.694345025979     0.210637259984     1.007825032230
         H            4.416010896373    -1.693303025979     0.728963259984     1.007825032230

  Basis Set: AUG-CC-PVTZ
    Blend: AUG-CC-PVTZ
  Basis Set: (AUG-CC-PVTZ AUX)
    Blend: AUG-CC-PVTZ-JKFIT
	 Reference Energy          =    -538.4764611745534921 [Eh]
	 Singles Energy            =      -0.0000000000000000 [Eh]
	 Same-Spin Energy          =      -0.6099633452648948 [Eh]
	 Opposite-Spin Energy      =      -1.9387947861937684 [Eh]
	 Correlation Energy        =      -2.5487581314586634 [Eh]
	 Total Energy              =    -541.0252193060121044 [Eh]

	 ================> DF-SCS-MP2 Energies <==================
	-----------------------------------------------------------
	 SCS Same-Spin Scale       =       0.3333333333333333 [-]
	 SCS Opposite-Spin Scale   =       1.2000000000000000 [-]
	 SCS Same-Spin Energy      =      -0.2033211150882983 [Eh]
	 SCS Opposite-Spin Energy  =      -2.3265537434325219 [Eh]
	 SCS Correlation Energy    =      -2.5298748585208202 [Eh]
	 SCS Total Energy          =    -541.0063360330742626 [Eh]
	-----------------------------------------------------------

  Dipole Moment: [D]
     X:     0.0683      Y:     0.2221      Z:    -0.0778     Total:     0.2451

*** Psi4 exiting successfully. Buy a developer a beer!
