                               Psi4 1.3.2 release

  ==> Input File <==

--------------------------------------------------------------------------
#psi4
#
memory 32 gb

molecule  {
0 1
  C        0.0298960     1.2151600    -0.5253010
  C       -1.2526080     0.4386420    -0.2954290
  C        1.2387340     0.3598870    -0.1935000
  C        0.0990297     2.4607907     0.1767896
  C       -1.5567990    -0.6199760    -1.1655540
  C        2.3476650     0.3323920    -1.0476860
  C       -2.1272630     0.6989940     0.7661610
  C        1.2925180    -0.3667490     1.0043040
  C       -2.7057380    -1.3882370    -0.9902370
  C        3.4841570    -0.4112490    -0.7213440
  C       -3.2813200    -0.0705980     0.9462280
  C        2.4271420    -1.1078630     1.3345690
  C       -3.5735090    -1.1167760     0.0719390
  C        3.5283310    -1.1302700     0.4741930
  H        0.0764800     1.4411670    -1.6006990
  H        0.1404440     2.3872360     1.3072550
  H       -0.7568690     3.1831820    -0.0065830
  H        1.0165510     3.0793450    -0.0591360
  H       -0.8776040    -0.8405290    -1.9883130
  H        2.3169530     0.8915480    -1.9822160
  H       -1.9259890     1.5154960     1.4543950
  H        0.4297020    -0.3695730     1.6680340
  H       -2.9244160    -2.2005870    -1.6797290
  H        4.3341360    -0.4274460    -1.3999430
  H       -3.9507500     0.1497620     1.7748780
  H        2.4522940    -1.6709080     2.2649740
  H       -4.4717450    -1.7133490     0.2118480
  H        4.4104250    -1.7123070     0.7301740
units angstrom
no_reorient  #important for SAPT in psi4, default
symmetry c1  #important for SAPT in psi4, default
}

set PROPERTIES_ORIGIN ["COM"]
properties('MP2/aug-cc-pvtz', properties = ['dipole'])
--------------------------------------------------------------------------

    Molecular point group: c1
  Charge       = 0
  Multiplicity = 1
  Basis Set: AUG-CC-PVTZ
    Blend: AUG-CC-PVTZ
  Basis Set: (AUG-CC-PVTZ AUX)
    Blend: AUG-CC-PVTZ-JKFIT

    Orbital Energies [Eh]
    ---------------------

    Doubly Occupied:

       1A    -11.241390     2A    -11.240777     3A    -11.238809
       4A    -11.235798     5A    -11.235401     6A    -11.235338
       7A    -11.234649     8A    -11.232336     9A    -11.232263
      10A    -11.231773    11A    -11.231580    12A    -11.230961
      13A    -11.229610    14A    -11.225140    15A     -1.168157
      16A     -1.144218    17A     -1.091218    18A     -1.012630
      19A     -1.011024    20A     -1.006402    21A     -0.980604
      22A     -0.871224    23A     -0.829112    24A     -0.818777
      25A     -0.814502    26A     -0.770008    27A     -0.701132
      28A     -0.689910    29A     -0.650629    30A     -0.638920
      31A     -0.627365    32A     -0.615479    33A     -0.595733
      34A     -0.589757    35A     -0.581932    36A     -0.578645
      37A     -0.559260    38A     -0.522078    39A     -0.508906
      40A     -0.505537    41A     -0.493274    42A     -0.490248
      43A     -0.481978    44A     -0.466587    45A     -0.459789
      46A     -0.340028    47A     -0.334777    48A     -0.333843
      49A     -0.313761

  @DF-RHF Final Energy:  -538.47658827745840

   => Energetics <=

    Nuclear Repulsion Energy =            809.5072906100790533
    One-Electron Energy =               -2334.2212179402540642
    Two-Electron Energy =                 986.2373390527166066
    Total Energy =                       -538.4765882774584043
  Basis Set: (AUG-CC-PVTZ AUX)
    Blend: AUG-CC-PVTZ-RI
    Molecular point group: c1

    Geometry (in Angstrom), charge = 0, multiplicity = 1:

       Center              X                  Y                   Z               Mass
    ------------   -----------------  -----------------  -----------------  -----------------
         C            0.031683110432     1.241123141165    -0.518283071084    12.000000000000
         C           -1.250820889568     0.464605141165    -0.288411071084    12.000000000000
         C            1.240521110432     0.385850141165    -0.186482071084    12.000000000000
         C            0.100816810432     2.486753841165     0.183807528916    12.000000000000
         C           -1.555011889568    -0.594012858835    -1.158536071084    12.000000000000
         C            2.349452110432     0.358355141165    -1.040668071084    12.000000000000
         C           -2.125475889568     0.724957141165     0.773178928916    12.000000000000
         C            1.294305110432    -0.340785858835     1.011321928916    12.000000000000
         C           -2.703950889568    -1.362273858835    -0.983219071084    12.000000000000
         C            3.485944110432    -0.385285858835    -0.714326071084    12.000000000000
         C           -3.279532889568    -0.044634858835     0.953245928916    12.000000000000
         C            2.428929110432    -1.081899858835     1.341586928916    12.000000000000
         C           -3.571721889568    -1.090812858835     0.078956928916    12.000000000000
         C            3.530118110432    -1.104306858835     0.481210928916    12.000000000000
         H            0.078267110432     1.467130141165    -1.593681071084     1.007825032230
         H            0.142231110432     2.413199141165     1.314272928916     1.007825032230
         H           -0.755081889568     3.209145141165     0.000434928916     1.007825032230
         H            1.018338110432     3.105308141165    -0.052118071084     1.007825032230
         H           -0.875816889568    -0.814565858835    -1.981295071084     1.007825032230
         H            2.318740110432     0.917511141165    -1.975198071084     1.007825032230
         H           -1.924201889568     1.541459141165     1.461412928916     1.007825032230
         H            0.431489110432    -0.343609858835     1.675051928916     1.007825032230
         H           -2.922628889568    -2.174623858835    -1.672711071084     1.007825032230
         H            4.335923110432    -0.401482858835    -1.392925071084     1.007825032230
         H           -3.948962889568     0.175725141165     1.781895928916     1.007825032230
         H            2.454081110432    -1.644944858835     2.271991928916     1.007825032230
         H           -4.469957889568    -1.687385858835     0.218865928916     1.007825032230
         H            4.412212110432    -1.686343858835     0.737191928916     1.007825032230

  Basis Set: AUG-CC-PVTZ
    Blend: AUG-CC-PVTZ
  Basis Set: (AUG-CC-PVTZ AUX)
    Blend: AUG-CC-PVTZ-JKFIT
	 Reference Energy          =    -538.4765882774584043 [Eh]
	 Singles Energy            =      -0.0000000000000000 [Eh]
	 Same-Spin Energy          =      -0.6111833369701571 [Eh]
	 Opposite-Spin Energy      =      -1.9395549054731629 [Eh]
	 Correlation Energy        =      -2.5507382424433200 [Eh]
	 Total Energy              =    -541.0273265199017487 [Eh]

	 ================> DF-SCS-MP2 Energies <==================
	-----------------------------------------------------------
	 SCS Same-Spin Scale       =       0.3333333333333333 [-]
	 SCS Opposite-Spin Scale   =       1.2000000000000000 [-]
	 SCS Same-Spin Energy      =      -0.2037277789900524 [Eh]
	 SCS Opposite-Spin Energy  =      -2.3274658865677953 [Eh]
	 SCS Correlation Energy    =      -2.5311936655578475 [Eh]
	 SCS Total Energy          =    -541.0077819430161981 [Eh]
	-----------------------------------------------------------

  Dipole Moment: [D]
     X:     0.0520      Y:     0.1842      Z:    -0.0614     Total:     0.2010

*** Psi4 exiting successfully. Buy a developer a beer!
