                               Psi4 1.4a3.dev225

  ==> Input File <==

--------------------------------------------------------------------------
#psi4
#
memory 32 gb

molecule  {
0 1
  C        0.0298960     1.2151600    -0.5253010
  C       -1.2103310     0.4642395    -0.3030066
  C        1.2387340     0.3598870    -0.1935000
  C        0.1038590     2.5478040     0.2258340
  C       -1.5567990    -0.6199760    -1.1655540
  C        2.3476650     0.3323920    -1.0476860
  C       -2.1272630     0.6989940     0.7661610
  C        1.2925180    -0.3667490     1.0043040
  C       -2.7057380    -1.3882370    -0.9902370
  C        3.4841570    -0.4112490    -0.7213440
  C       -3.2813200    -0.0705980     0.9462280
  C        2.4271420    -1.1078630     1.3345690
  C       -3.5735090    -1.1167760     0.0719390
  C        3.5283310    -1.1302700     0.4741930
  H        0.0764800     1.4411670    -1.6006990
  H        0.1404440     2.3872360     1.3072550
  H       -0.7568690     3.1831820    -0.0065830
  H        1.0165510     3.0793450    -0.0591360
  H       -0.8776040    -0.8405290    -1.9883130
  H        2.3169530     0.8915480    -1.9822160
  H       -1.9259890     1.5154960     1.4543950
  H        0.4297020    -0.3695730     1.6680340
  H       -2.9244160    -2.2005870    -1.6797290
  H        4.3341360    -0.4274460    -1.3999430
  H       -3.9507500     0.1497620     1.7748780
  H        2.4522940    -1.6709080     2.2649740
  H       -4.4717450    -1.7133490     0.2118480
  H        4.4104250    -1.7123070     0.7301740
units angstrom
no_reorient  #important for SAPT in psi4, default
symmetry c1  #important for SAPT in psi4, default
}

set PROPERTIES_ORIGIN ["COM"]
properties('MP2/aug-cc-pvtz', properties = ['dipole'])
--------------------------------------------------------------------------

    Molecular point group: c1
  Charge       = 0
  Multiplicity = 1
  Basis Set: AUG-CC-PVTZ
    Blend: AUG-CC-PVTZ
  Basis Set: (AUG-CC-PVTZ AUX)
    Blend: AUG-CC-PVTZ-JKFIT

    Orbital Energies [Eh]
    ---------------------

    Doubly Occupied:

       1A    -11.244871     2A    -11.241792     3A    -11.241058
       4A    -11.235734     5A    -11.235701     6A    -11.235199
       7A    -11.234955     8A    -11.234282     9A    -11.232964
      10A    -11.232454    11A    -11.232270    12A    -11.231794
      13A    -11.229773    14A    -11.220822    15A     -1.165234
      16A     -1.141522    17A     -1.086362    18A     -1.011828
      19A     -1.009008    20A     -1.005161    21A     -0.974105
      22A     -0.882023    23A     -0.829181    24A     -0.816689
      25A     -0.814639    26A     -0.769321    27A     -0.700149
      28A     -0.687773    29A     -0.650990    30A     -0.639358
      31A     -0.623271    32A     -0.614205    33A     -0.597233
      34A     -0.589738    35A     -0.581175    36A     -0.577068
      37A     -0.547881    38A     -0.531233    39A     -0.514819
      40A     -0.507630    41A     -0.494752    42A     -0.490049
      43A     -0.478599    44A     -0.473065    45A     -0.465536
      46A     -0.338849    47A     -0.334016    48A     -0.332792
      49A     -0.310581

  @DF-RHF Final Energy:  -538.48347523163295

   => Energetics <=

    Nuclear Repulsion Energy =            807.5315152716344755
    One-Electron Energy =               -2330.2909740742338727
    Two-Electron Energy =                 984.2759835709665595
    Total Energy =                       -538.4834752316329514
  Basis Set: (AUG-CC-PVTZ AUX)
    Blend: AUG-CC-PVTZ-RI
    Molecular point group: c1

    Geometry (in Angstrom), charge = 0, multiplicity = 1:

       Center              X                  Y                   Z               Mass
    ------------   -----------------  -----------------  -----------------  -----------------
         C            0.028579068944     1.233702719794    -0.521015501090    12.000000000000
         C           -1.211647931056     0.482782219794    -0.298721101090    12.000000000000
         C            1.237417068944     0.378429719794    -0.189214501090    12.000000000000
         C            0.102542068944     2.566346719794     0.230119498910    12.000000000000
         C           -1.558115931056    -0.601433280206    -1.161268501090    12.000000000000
         C            2.346348068944     0.350934719794    -1.043400501090    12.000000000000
         C           -2.128579931056     0.717536719794     0.770446498910    12.000000000000
         C            1.291201068944    -0.348206280206     1.008589498910    12.000000000000
         C           -2.707054931056    -1.369694280206    -0.985951501090    12.000000000000
         C            3.482840068944    -0.392706280206    -0.717058501090    12.000000000000
         C           -3.282636931056    -0.052055280206     0.950513498910    12.000000000000
         C            2.425825068944    -1.089320280206     1.338854498910    12.000000000000
         C           -3.574825931056    -1.098233280206     0.076224498910    12.000000000000
         C            3.527014068944    -1.111727280206     0.478478498910    12.000000000000
         H            0.075163068944     1.459709719794    -1.596413501090     1.007825032230
         H            0.139127068944     2.405778719794     1.311540498910     1.007825032230
         H           -0.758185931056     3.201724719794    -0.002297501090     1.007825032230
         H            1.015234068944     3.097887719794    -0.054850501090     1.007825032230
         H           -0.878920931056    -0.821986280206    -1.984027501090     1.007825032230
         H            2.315636068944     0.910090719794    -1.977930501090     1.007825032230
         H           -1.927305931056     1.534038719794     1.458680498910     1.007825032230
         H            0.428385068944    -0.351030280206     1.672319498910     1.007825032230
         H           -2.925732931056    -2.182044280206    -1.675443501090     1.007825032230
         H            4.332819068944    -0.408903280206    -1.395657501090     1.007825032230
         H           -3.952066931056     0.168304719794     1.779163498910     1.007825032230
         H            2.450977068944    -1.652365280206     2.269259498910     1.007825032230
         H           -4.473061931056    -1.694806280206     0.216133498910     1.007825032230
         H            4.409108068944    -1.693764280206     0.734459498910     1.007825032230

  Basis Set: AUG-CC-PVTZ
    Blend: AUG-CC-PVTZ
  Basis Set: (AUG-CC-PVTZ AUX)
    Blend: AUG-CC-PVTZ-JKFIT
	 Reference Energy          =    -538.4834752316329514 [Eh]
	 Singles Energy            =      -0.0000000000000000 [Eh]
	 Same-Spin Energy          =      -0.6107416687285265 [Eh]
	 Opposite-Spin Energy      =      -1.9393599569654005 [Eh]
	 Correlation Energy        =      -2.5501016256939271 [Eh]
	 Total Energy              =    -541.0335768573269206 [Eh]

	 ================> DF-SCS-MP2 Energies <==================
	-----------------------------------------------------------
	 SCS Same-Spin Scale       =       0.3333333333333333 [-]
	 SCS Opposite-Spin Scale   =       1.2000000000000000 [-]
	 SCS Same-Spin Energy      =      -0.2035805562428422 [Eh]
	 SCS Opposite-Spin Energy  =      -2.3272319483584805 [Eh]
	 SCS Correlation Energy    =      -2.5308125046013226 [Eh]
	 SCS Total Energy          =    -541.0142877362342233 [Eh]
	-----------------------------------------------------------

  Dipole Moment: [D]
     X:     0.1135      Y:     0.2208      Z:    -0.0637     Total:     0.2563

*** Psi4 exiting successfully. Buy a developer a beer!
