                               Psi4 1.3.2 release

  ==> Input File <==

--------------------------------------------------------------------------
#psi4
#
memory 32 gb

molecule  {
0 1
  C        0.0308641     1.1896920    -0.4783094
  C       -1.2526080     0.4386420    -0.2954290
  C        1.2387340     0.3598870    -0.1935000
  C        0.1038590     2.5478040     0.2258340
  C       -1.5567990    -0.6199760    -1.1655540
  C        2.3476650     0.3323920    -1.0476860
  C       -2.1272630     0.6989940     0.7661610
  C        1.2925180    -0.3667490     1.0043040
  C       -2.7057380    -1.3882370    -0.9902370
  C        3.4841570    -0.4112490    -0.7213440
  C       -3.2813200    -0.0705980     0.9462280
  C        2.4271420    -1.1078630     1.3345690
  C       -3.5735090    -1.1167760     0.0719390
  C        3.5283310    -1.1302700     0.4741930
  H        0.0764800     1.4411670    -1.6006990
  H        0.1404440     2.3872360     1.3072550
  H       -0.7568690     3.1831820    -0.0065830
  H        1.0165510     3.0793450    -0.0591360
  H       -0.8776040    -0.8405290    -1.9883130
  H        2.3169530     0.8915480    -1.9822160
  H       -1.9259890     1.5154960     1.4543950
  H        0.4297020    -0.3695730     1.6680340
  H       -2.9244160    -2.2005870    -1.6797290
  H        4.3341360    -0.4274460    -1.3999430
  H       -3.9507500     0.1497620     1.7748780
  H        2.4522940    -1.6709080     2.2649740
  H       -4.4717450    -1.7133490     0.2118480
  H        4.4104250    -1.7123070     0.7301740
units angstrom
no_reorient  #important for SAPT in psi4, default
symmetry c1  #important for SAPT in psi4, default
}

set PROPERTIES_ORIGIN ["COM"]
properties('MP2/aug-cc-pvtz', properties = ['dipole'])
--------------------------------------------------------------------------

    Molecular point group: c1
  Charge       = 0
  Multiplicity = 1
  Basis Set: AUG-CC-PVTZ
    Blend: AUG-CC-PVTZ
  Basis Set: (AUG-CC-PVTZ AUX)
    Blend: AUG-CC-PVTZ-JKFIT

    Orbital Energies [Eh]
    ---------------------

    Doubly Occupied:

       1A    -11.244727     2A    -11.240916     3A    -11.239417
       4A    -11.235835     5A    -11.235703     6A    -11.235574
       7A    -11.234483     8A    -11.232707     9A    -11.232393
      10A    -11.231719    11A    -11.231597    12A    -11.231125
      13A    -11.228943    14A    -11.220492    15A     -1.166532
      16A     -1.144502    17A     -1.083444    18A     -1.012781
      19A     -1.010988    20A     -1.007216    21A     -0.974628
      22A     -0.878266    23A     -0.829290    24A     -0.819542
      25A     -0.815820    26A     -0.767651    27A     -0.701592
      28A     -0.686137    29A     -0.646949    30A     -0.639382
      31A     -0.625091    32A     -0.615333    33A     -0.596856
      34A     -0.589089    35A     -0.582048    36A     -0.576322
      37A     -0.550586    38A     -0.532013    39A     -0.509608
      40A     -0.507136    41A     -0.494722    42A     -0.492532
      43A     -0.476701    44A     -0.473932    45A     -0.461805
      46A     -0.339498    47A     -0.334725    48A     -0.333622
      49A     -0.313082

  @DF-RHF Final Energy:  -538.48437937161475

   => Energetics <=

    Nuclear Repulsion Energy =            808.1544948332099239
    One-Electron Energy =               -2331.5476499248943583
    Two-Electron Energy =                 984.9087757200697979
    Total Energy =                       -538.4843793716147502
  Basis Set: (AUG-CC-PVTZ AUX)
    Blend: AUG-CC-PVTZ-RI
    Molecular point group: c1

    Geometry (in Angstrom), charge = 0, multiplicity = 1:

       Center              X                  Y                   Z               Mass
    ------------   -----------------  -----------------  -----------------  -----------------
         C            0.032269194224     1.211599650400    -0.477619705914    12.000000000000
         C           -1.251202905776     0.460549650400    -0.294739305914    12.000000000000
         C            1.240139094224     0.381794650400    -0.192810305914    12.000000000000
         C            0.105264094224     2.569711650400     0.226523694086    12.000000000000
         C           -1.555393905776    -0.598068349600    -1.164864305914    12.000000000000
         C            2.349070094224     0.354299650400    -1.046996305914    12.000000000000
         C           -2.125857905776     0.720901650400     0.766850694086    12.000000000000
         C            1.293923094224    -0.344841349600     1.004993694086    12.000000000000
         C           -2.704332905776    -1.366329349600    -0.989547305914    12.000000000000
         C            3.485562094224    -0.389341349600    -0.720654305914    12.000000000000
         C           -3.279914905776    -0.048690349600     0.946917694086    12.000000000000
         C            2.428547094224    -1.085955349600     1.335258694086    12.000000000000
         C           -3.572103905776    -1.094868349600     0.072628694086    12.000000000000
         C            3.529736094224    -1.108362349600     0.474882694086    12.000000000000
         H            0.077885094224     1.463074650400    -1.600009305914     1.007825032230
         H            0.141849094224     2.409143650400     1.307944694086     1.007825032230
         H           -0.755463905776     3.205089650400    -0.005893305914     1.007825032230
         H            1.017956094224     3.101252650400    -0.058446305914     1.007825032230
         H           -0.876198905776    -0.818621349600    -1.987623305914     1.007825032230
         H            2.318358094224     0.913455650400    -1.981526305914     1.007825032230
         H           -1.924583905776     1.537403650400     1.455084694086     1.007825032230
         H            0.431107094224    -0.347665349600     1.668723694086     1.007825032230
         H           -2.923010905776    -2.178679349600    -1.679039305914     1.007825032230
         H            4.335541094224    -0.405538349600    -1.399253305914     1.007825032230
         H           -3.949344905776     0.171669650400     1.775567694086     1.007825032230
         H            2.453699094224    -1.649000349600     2.265663694086     1.007825032230
         H           -4.470339905776    -1.691441349600     0.212537694086     1.007825032230
         H            4.411830094224    -1.690399349600     0.730863694086     1.007825032230

  Basis Set: AUG-CC-PVTZ
    Blend: AUG-CC-PVTZ
  Basis Set: (AUG-CC-PVTZ AUX)
    Blend: AUG-CC-PVTZ-JKFIT
	 Reference Energy          =    -538.4843793716147502 [Eh]
	 Singles Energy            =      -0.0000000000000000 [Eh]
	 Same-Spin Energy          =      -0.6105089573405311 [Eh]
	 Opposite-Spin Energy      =      -1.9388225118269411 [Eh]
	 Correlation Energy        =      -2.5493314691674724 [Eh]
	 Total Energy              =    -541.0337108407821916 [Eh]

	 ================> DF-SCS-MP2 Energies <==================
	-----------------------------------------------------------
	 SCS Same-Spin Scale       =       0.3333333333333333 [-]
	 SCS Opposite-Spin Scale   =       1.2000000000000000 [-]
	 SCS Same-Spin Energy      =      -0.2035029857801770 [Eh]
	 SCS Opposite-Spin Energy  =      -2.3265870141923291 [Eh]
	 SCS Correlation Energy    =      -2.5300899999725059 [Eh]
	 SCS Total Energy          =    -541.0144693715872108 [Eh]
	-----------------------------------------------------------

  Dipole Moment: [D]
     X:     0.0422      Y:     0.1738      Z:    -0.0305     Total:     0.1814

*** Psi4 exiting successfully. Buy a developer a beer!
