                               Psi4 1.3.2 release

  ==> Input File <==

--------------------------------------------------------------------------
#psi4
#
memory 32 gb

molecule  {
0 1
  C        0.0298960     1.2151600    -0.5253010
  C       -1.1610515     0.3169212    -0.2506214
  C        1.2387340     0.3598870    -0.1935000
  C        0.1038590     2.5478040     0.2258340
  C       -1.5567990    -0.6199760    -1.1655540
  C        2.3476650     0.3323920    -1.0476860
  C       -2.1272630     0.6989940     0.7661610
  C        1.2925180    -0.3667490     1.0043040
  C       -2.7057380    -1.3882370    -0.9902370
  C        3.4841570    -0.4112490    -0.7213440
  C       -3.2813200    -0.0705980     0.9462280
  C        2.4271420    -1.1078630     1.3345690
  C       -3.5735090    -1.1167760     0.0719390
  C        3.5283310    -1.1302700     0.4741930
  H        0.0764800     1.4411670    -1.6006990
  H        0.1404440     2.3872360     1.3072550
  H       -0.7568690     3.1831820    -0.0065830
  H        1.0165510     3.0793450    -0.0591360
  H       -0.8776040    -0.8405290    -1.9883130
  H        2.3169530     0.8915480    -1.9822160
  H       -1.9259890     1.5154960     1.4543950
  H        0.4297020    -0.3695730     1.6680340
  H       -2.9244160    -2.2005870    -1.6797290
  H        4.3341360    -0.4274460    -1.3999430
  H       -3.9507500     0.1497620     1.7748780
  H        2.4522940    -1.6709080     2.2649740
  H       -4.4717450    -1.7133490     0.2118480
  H        4.4104250    -1.7123070     0.7301740
units angstrom
no_reorient  #important for SAPT in psi4, default
symmetry c1  #important for SAPT in psi4, default
}

set PROPERTIES_ORIGIN ["COM"]
properties('MP2/aug-cc-pvtz', properties = ['dipole'])
--------------------------------------------------------------------------

    Molecular point group: c1
  Charge       = 0
  Multiplicity = 1
  Basis Set: AUG-CC-PVTZ
    Blend: AUG-CC-PVTZ
  Basis Set: (AUG-CC-PVTZ AUX)
    Blend: AUG-CC-PVTZ-JKFIT

    Orbital Energies [Eh]
    ---------------------

    Doubly Occupied:

       1A    -11.243779     2A    -11.243074     3A    -11.238593
       4A    -11.237332     5A    -11.235411     6A    -11.234901
       7A    -11.234531     8A    -11.234063     9A    -11.232107
      10A    -11.230459    11A    -11.230273    12A    -11.228351
      13A    -11.227237    14A    -11.222204    15A     -1.164959
      16A     -1.142795    17A     -1.082194    18A     -1.013694
      19A     -1.010391    20A     -1.002599    21A     -0.975040
      22A     -0.879044    23A     -0.828048    24A     -0.818695
      25A     -0.811013    26A     -0.769737    27A     -0.698351
      28A     -0.688146    29A     -0.650612    30A     -0.635573
      31A     -0.624761    32A     -0.612275    33A     -0.594882
      34A     -0.587521    35A     -0.582124    36A     -0.579011
      37A     -0.548289    38A     -0.531528    39A     -0.513838
      40A     -0.505947    41A     -0.496639    42A     -0.490923
      43A     -0.481595    44A     -0.473867    45A     -0.455157
      46A     -0.343766    47A     -0.333256    48A     -0.329225
      49A     -0.310733

  @DF-RHF Final Energy:  -538.47549193677708

   => Energetics <=

    Nuclear Repulsion Energy =            808.2108136057532874
    One-Electron Energy =               -2331.6955194710153592
    Two-Electron Energy =                 985.0092139284851100
    Total Energy =                       -538.4754919367770754
  Basis Set: (AUG-CC-PVTZ AUX)
    Blend: AUG-CC-PVTZ-RI
    Molecular point group: c1

    Geometry (in Angstrom), charge = 0, multiplicity = 1:

       Center              X                  Y                   Z               Mass
    ------------   -----------------  -----------------  -----------------  -----------------
         C            0.025331825740     1.243410171136    -0.524467392539    12.000000000000
         C           -1.165615674260     0.345171371136    -0.249787792539    12.000000000000
         C            1.234169825740     0.388137171136    -0.192666392539    12.000000000000
         C            0.099294825740     2.576054171136     0.226667607461    12.000000000000
         C           -1.561363174260    -0.591725828864    -1.164720392539    12.000000000000
         C            2.343100825740     0.360642171136    -1.046852392539    12.000000000000
         C           -2.131827174260     0.727244171136     0.766994607461    12.000000000000
         C            1.287953825740    -0.338498828864     1.005137607461    12.000000000000
         C           -2.710302174260    -1.359986828864    -0.989403392539    12.000000000000
         C            3.479592825740    -0.382998828864    -0.720510392539    12.000000000000
         C           -3.285884174260    -0.042347828864     0.947061607461    12.000000000000
         C            2.422577825740    -1.079612828864     1.335402607461    12.000000000000
         C           -3.578073174260    -1.088525828864     0.072772607461    12.000000000000
         C            3.523766825740    -1.102019828864     0.475026607461    12.000000000000
         H            0.071915825740     1.469417171136    -1.599865392539     1.007825032230
         H            0.135879825740     2.415486171136     1.308088607461     1.007825032230
         H           -0.761433174260     3.211432171136    -0.005749392539     1.007825032230
         H            1.011986825740     3.107595171136    -0.058302392539     1.007825032230
         H           -0.882168174260    -0.812278828864    -1.987479392539     1.007825032230
         H            2.312388825740     0.919798171136    -1.981382392539     1.007825032230
         H           -1.930553174260     1.543746171136     1.455228607461     1.007825032230
         H            0.425137825740    -0.341322828864     1.668867607461     1.007825032230
         H           -2.928980174260    -2.172336828864    -1.678895392539     1.007825032230
         H            4.329571825740    -0.399195828864    -1.399109392539     1.007825032230
         H           -3.955314174260     0.178012171136     1.775711607461     1.007825032230
         H            2.447729825740    -1.642657828864     2.265807607461     1.007825032230
         H           -4.476309174260    -1.685098828864     0.212681607461     1.007825032230
         H            4.405860825740    -1.684056828864     0.731007607461     1.007825032230

  Basis Set: AUG-CC-PVTZ
    Blend: AUG-CC-PVTZ
  Basis Set: (AUG-CC-PVTZ AUX)
    Blend: AUG-CC-PVTZ-JKFIT
	 Reference Energy          =    -538.4754919367770754 [Eh]
	 Singles Energy            =      -0.0000000000000000 [Eh]
	 Same-Spin Energy          =      -0.6109128416689126 [Eh]
	 Opposite-Spin Energy      =      -1.9400392669998525 [Eh]
	 Correlation Energy        =      -2.5509521086687652 [Eh]
	 Total Energy              =    -541.0264440454458281 [Eh]

	 ================> DF-SCS-MP2 Energies <==================
	-----------------------------------------------------------
	 SCS Same-Spin Scale       =       0.3333333333333333 [-]
	 SCS Opposite-Spin Scale   =       1.2000000000000000 [-]
	 SCS Same-Spin Energy      =      -0.2036376138896375 [Eh]
	 SCS Opposite-Spin Energy  =      -2.3280471203998228 [Eh]
	 SCS Correlation Energy    =      -2.5316847342894602 [Eh]
	 SCS Total Energy          =    -541.0071766710665315 [Eh]
	-----------------------------------------------------------

  Dipole Moment: [D]
     X:    -0.0075      Y:     0.2878      Z:    -0.0812     Total:     0.2991

*** Psi4 exiting successfully. Buy a developer a beer!
