                               Psi4 1.3.2 release

  ==> Input File <==

--------------------------------------------------------------------------
#psi4
#
memory 32 gb

molecule  {
0 1
  C        0.0330658     1.1437490    -0.3818107
  C       -1.2526080     0.4386420    -0.2954290
  C        1.2387340     0.3598870    -0.1935000
  C        0.1038590     2.5478040     0.2258340
  C       -1.5567990    -0.6199760    -1.1655540
  C        2.3476650     0.3323920    -1.0476860
  C       -2.1272630     0.6989940     0.7661610
  C        1.2925180    -0.3667490     1.0043040
  C       -2.7057380    -1.3882370    -0.9902370
  C        3.4841570    -0.4112490    -0.7213440
  C       -3.2813200    -0.0705980     0.9462280
  C        2.4271420    -1.1078630     1.3345690
  C       -3.5735090    -1.1167760     0.0719390
  C        3.5283310    -1.1302700     0.4741930
  H        0.0764800     1.4411670    -1.6006990
  H        0.1404440     2.3872360     1.3072550
  H       -0.7568690     3.1831820    -0.0065830
  H        1.0165510     3.0793450    -0.0591360
  H       -0.8776040    -0.8405290    -1.9883130
  H        2.3169530     0.8915480    -1.9822160
  H       -1.9259890     1.5154960     1.4543950
  H        0.4297020    -0.3695730     1.6680340
  H       -2.9244160    -2.2005870    -1.6797290
  H        4.3341360    -0.4274460    -1.3999430
  H       -3.9507500     0.1497620     1.7748780
  H        2.4522940    -1.6709080     2.2649740
  H       -4.4717450    -1.7133490     0.2118480
  H        4.4104250    -1.7123070     0.7301740
units angstrom
no_reorient  #important for SAPT in psi4, default
symmetry c1  #important for SAPT in psi4, default
}

set PROPERTIES_ORIGIN ["COM"]
properties('MP2/aug-cc-pvtz', properties = ['dipole'])
--------------------------------------------------------------------------

    Molecular point group: c1
  Charge       = 0
  Multiplicity = 1
  Basis Set: AUG-CC-PVTZ
    Blend: AUG-CC-PVTZ
  Basis Set: (AUG-CC-PVTZ AUX)
    Blend: AUG-CC-PVTZ-JKFIT

    Orbital Energies [Eh]
    ---------------------

    Doubly Occupied:

       1A    -11.249865     2A    -11.241345     3A    -11.238527
       4A    -11.236768     5A    -11.236318     6A    -11.235934
       7A    -11.234689     8A    -11.234535     9A    -11.232905
      10A    -11.232693    11A    -11.232074    12A    -11.231512
      13A    -11.228757    14A    -11.222407    15A     -1.171065
      16A     -1.145823    17A     -1.087238    18A     -1.014049
      19A     -1.011619    20A     -1.009887    21A     -0.974660
      22A     -0.880970    23A     -0.830892    24A     -0.821530
      25A     -0.819033    26A     -0.764779    27A     -0.704725
      28A     -0.683934    29A     -0.646937    30A     -0.642447
      31A     -0.626874    32A     -0.615814    33A     -0.598860
      34A     -0.587776    35A     -0.582796    36A     -0.573144
      37A     -0.558713    38A     -0.534755    39A     -0.510501
      40A     -0.503492    41A     -0.496004    42A     -0.493945
      43A     -0.481801    44A     -0.478132    45A     -0.437097
      46A     -0.339810    47A     -0.334873    48A     -0.334173
      49A     -0.311511

  @DF-RHF Final Energy:  -538.46113607838345

   => Energetics <=

    Nuclear Repulsion Energy =            809.3438004303521893
    One-Electron Energy =               -2333.8139016677409927
    Two-Electron Energy =                 986.0089651590054700
    Total Energy =                       -538.4611360783834471
  Basis Set: (AUG-CC-PVTZ AUX)
    Blend: AUG-CC-PVTZ-RI
    Molecular point group: c1

    Geometry (in Angstrom), charge = 0, multiplicity = 1:

       Center              X                  Y                   Z               Mass
    ------------   -----------------  -----------------  -----------------  -----------------
         C            0.034325814518     1.168684036930    -0.387479730084    12.000000000000
         C           -1.251347985482     0.463577036930    -0.301098030084    12.000000000000
         C            1.239994014518     0.384822036930    -0.199169030084    12.000000000000
         C            0.105119014518     2.572739036930     0.220164969916    12.000000000000
         C           -1.555538985482    -0.595040963070    -1.171223030084    12.000000000000
         C            2.348925014518     0.357327036930    -1.053355030084    12.000000000000
         C           -2.126002985482     0.723929036930     0.760491969916    12.000000000000
         C            1.293778014518    -0.341813963070     0.998634969916    12.000000000000
         C           -2.704477985482    -1.363301963070    -0.995906030084    12.000000000000
         C            3.485417014518    -0.386313963070    -0.727013030084    12.000000000000
         C           -3.280059985482    -0.045662963070     0.940558969916    12.000000000000
         C            2.428402014518    -1.082927963070     1.328899969916    12.000000000000
         C           -3.572248985482    -1.091840963070     0.066269969916    12.000000000000
         C            3.529591014518    -1.105334963070     0.468523969916    12.000000000000
         H            0.077740014518     1.466102036930    -1.606368030084     1.007825032230
         H            0.141704014518     2.412171036930     1.301585969916     1.007825032230
         H           -0.755608985482     3.208117036930    -0.012252030084     1.007825032230
         H            1.017811014518     3.104280036930    -0.064805030084     1.007825032230
         H           -0.876343985482    -0.815593963070    -1.993982030084     1.007825032230
         H            2.318213014518     0.916483036930    -1.987885030084     1.007825032230
         H           -1.924728985482     1.540431036930     1.448725969916     1.007825032230
         H            0.430962014518    -0.344637963070     1.662364969916     1.007825032230
         H           -2.923155985482    -2.175651963070    -1.685398030084     1.007825032230
         H            4.335396014518    -0.402510963070    -1.405612030084     1.007825032230
         H           -3.949489985482     0.174697036930     1.769208969916     1.007825032230
         H            2.453554014518    -1.645972963070     2.259304969916     1.007825032230
         H           -4.470484985482    -1.688413963070     0.206178969916     1.007825032230
         H            4.411685014518    -1.687371963070     0.724504969916     1.007825032230

  Basis Set: AUG-CC-PVTZ
    Blend: AUG-CC-PVTZ
  Basis Set: (AUG-CC-PVTZ AUX)
    Blend: AUG-CC-PVTZ-JKFIT
	 Reference Energy          =    -538.4611360783834471 [Eh]
	 Singles Energy            =      -0.0000000000000000 [Eh]
	 Same-Spin Energy          =      -0.6119639326160978 [Eh]
	 Opposite-Spin Energy      =      -1.9413237434956641 [Eh]
	 Correlation Energy        =      -2.5532876761117618 [Eh]
	 Total Energy              =    -541.0144237544951693 [Eh]

	 ================> DF-SCS-MP2 Energies <==================
	-----------------------------------------------------------
	 SCS Same-Spin Scale       =       0.3333333333333333 [-]
	 SCS Opposite-Spin Scale   =       1.2000000000000000 [-]
	 SCS Same-Spin Energy      =      -0.2039879775386993 [Eh]
	 SCS Opposite-Spin Energy  =      -2.3295884921947967 [Eh]
	 SCS Correlation Energy    =      -2.5335764697334962 [Eh]
	 SCS Total Energy          =    -540.9947125481169223 [Eh]
	-----------------------------------------------------------

  Dipole Moment: [D]
     X:     0.0698      Y:     0.1109      Z:     0.0589     Total:     0.1437

*** Psi4 exiting successfully. Buy a developer a beer!
