                               Psi4 1.4a3.dev225

  ==> Input File <==

--------------------------------------------------------------------------
#psi4
#
memory 32 gb

molecule  {
0 1
  C        0.0298960     1.2151600    -0.5253010
  C       -1.2526080     0.4386420    -0.2954290
  C        1.2387340     0.3598870    -0.1935000
  C        0.1028931     2.5304013     0.2160251
  C       -1.5567990    -0.6199760    -1.1655540
  C        2.3476650     0.3323920    -1.0476860
  C       -2.1272630     0.6989940     0.7661610
  C        1.2925180    -0.3667490     1.0043040
  C       -2.7057380    -1.3882370    -0.9902370
  C        3.4841570    -0.4112490    -0.7213440
  C       -3.2813200    -0.0705980     0.9462280
  C        2.4271420    -1.1078630     1.3345690
  C       -3.5735090    -1.1167760     0.0719390
  C        3.5283310    -1.1302700     0.4741930
  H        0.0764800     1.4411670    -1.6006990
  H        0.1404440     2.3872360     1.3072550
  H       -0.7568690     3.1831820    -0.0065830
  H        1.0165510     3.0793450    -0.0591360
  H       -0.8776040    -0.8405290    -1.9883130
  H        2.3169530     0.8915480    -1.9822160
  H       -1.9259890     1.5154960     1.4543950
  H        0.4297020    -0.3695730     1.6680340
  H       -2.9244160    -2.2005870    -1.6797290
  H        4.3341360    -0.4274460    -1.3999430
  H       -3.9507500     0.1497620     1.7748780
  H        2.4522940    -1.6709080     2.2649740
  H       -4.4717450    -1.7133490     0.2118480
  H        4.4104250    -1.7123070     0.7301740
units angstrom
no_reorient  #important for SAPT in psi4, default
symmetry c1  #important for SAPT in psi4, default
}

set PROPERTIES_ORIGIN ["COM"]
properties('MP2/aug-cc-pvtz', properties = ['dipole'])
--------------------------------------------------------------------------

    Molecular point group: c1
  Charge       = 0
  Multiplicity = 1
  Basis Set: AUG-CC-PVTZ
    Blend: AUG-CC-PVTZ
  Basis Set: (AUG-CC-PVTZ AUX)
    Blend: AUG-CC-PVTZ-JKFIT

    Orbital Energies [Eh]
    ---------------------

    Doubly Occupied:

       1A    -11.242508     2A    -11.241168     3A    -11.240289
       4A    -11.235741     5A    -11.235286     6A    -11.235270
       7A    -11.234528     8A    -11.232131     9A    -11.231907
      10A    -11.231637    11A    -11.231340    12A    -11.230686
      13A    -11.229263    14A    -11.220843    15A     -1.165037
      16A     -1.143962    17A     -1.083298    18A     -1.012376
      19A     -1.010742    20A     -1.005967    21A     -0.975967
      22A     -0.876217    23A     -0.828617    24A     -0.819045
      25A     -0.813917    26A     -0.769978    27A     -0.700277
      28A     -0.688116    29A     -0.648220    30A     -0.637686
      31A     -0.624714    32A     -0.615149    33A     -0.595688
      34A     -0.589795    35A     -0.581752    36A     -0.577398
      37A     -0.548905    38A     -0.529247    39A     -0.512872
      40A     -0.506771    41A     -0.494189    42A     -0.491581
      43A     -0.476922    44A     -0.472878    45A     -0.465326
      46A     -0.339484    47A     -0.334608    48A     -0.333493
      49A     -0.313337

  @DF-RHF Final Energy:  -538.48767183136113

   => Energetics <=

    Nuclear Repulsion Energy =            807.8895145544851175
    One-Electron Energy =               -2331.0421121813001264
    Two-Electron Energy =                 984.6649257954537688
    Total Energy =                       -538.4876718313611264
  Basis Set: (AUG-CC-PVTZ AUX)
    Blend: AUG-CC-PVTZ-RI
    Molecular point group: c1

    Geometry (in Angstrom), charge = 0, multiplicity = 1:

       Center              X                  Y                   Z               Mass
    ------------   -----------------  -----------------  -----------------  -----------------
         C            0.031428533998     1.236536192276    -0.520868470910    12.000000000000
         C           -1.251075466002     0.460018192276    -0.290996470910    12.000000000000
         C            1.240266533998     0.381263192276    -0.189067470910    12.000000000000
         C            0.104425633998     2.551777492276     0.220457629090    12.000000000000
         C           -1.555266466002    -0.598599807724    -1.161121470910    12.000000000000
         C            2.349197533998     0.353768192276    -1.043253470910    12.000000000000
         C           -2.125730466002     0.720370192276     0.770593529090    12.000000000000
         C            1.294050533998    -0.345372807724     1.008736529090    12.000000000000
         C           -2.704205466002    -1.366860807724    -0.985804470910    12.000000000000
         C            3.485689533998    -0.389872807724    -0.716911470910    12.000000000000
         C           -3.279787466002    -0.049221807724     0.950660529090    12.000000000000
         C            2.428674533998    -1.086486807724     1.339001529090    12.000000000000
         C           -3.571976466002    -1.095399807724     0.076371529090    12.000000000000
         C            3.529863533998    -1.108893807724     0.478625529090    12.000000000000
         H            0.078012533998     1.462543192276    -1.596266470910     1.007825032230
         H            0.141976533998     2.408612192276     1.311687529090     1.007825032230
         H           -0.755336466002     3.204558192276    -0.002150470910     1.007825032230
         H            1.018083533998     3.100721192276    -0.054703470910     1.007825032230
         H           -0.876071466002    -0.819152807724    -1.983880470910     1.007825032230
         H            2.318485533998     0.912924192276    -1.977783470910     1.007825032230
         H           -1.924456466002     1.536872192276     1.458827529090     1.007825032230
         H            0.431234533998    -0.348196807724     1.672466529090     1.007825032230
         H           -2.922883466002    -2.179210807724    -1.675296470910     1.007825032230
         H            4.335668533998    -0.406069807724    -1.395510470910     1.007825032230
         H           -3.949217466002     0.171138192276     1.779310529090     1.007825032230
         H            2.453826533998    -1.649531807724     2.269406529090     1.007825032230
         H           -4.470212466002    -1.691972807724     0.216280529090     1.007825032230
         H            4.411957533998    -1.690930807724     0.734606529090     1.007825032230

  Basis Set: AUG-CC-PVTZ
    Blend: AUG-CC-PVTZ
  Basis Set: (AUG-CC-PVTZ AUX)
    Blend: AUG-CC-PVTZ-JKFIT
	 Reference Energy          =    -538.4876718313611264 [Eh]
	 Singles Energy            =      -0.0000000000000000 [Eh]
	 Same-Spin Energy          =      -0.6101789489940040 [Eh]
	 Opposite-Spin Energy      =      -1.9382894915894300 [Eh]
	 Correlation Energy        =      -2.5484684405834339 [Eh]
	 Total Energy              =    -541.0361402719445323 [Eh]

	 ================> DF-SCS-MP2 Energies <==================
	-----------------------------------------------------------
	 SCS Same-Spin Scale       =       0.3333333333333333 [-]
	 SCS Opposite-Spin Scale   =       1.2000000000000000 [-]
	 SCS Same-Spin Energy      =      -0.2033929829980013 [Eh]
	 SCS Opposite-Spin Energy  =      -2.3259473899073160 [Eh]
	 SCS Correlation Energy    =      -2.5293403729053172 [Eh]
	 SCS Total Energy          =    -541.0170122042663934 [Eh]
	-----------------------------------------------------------

  Dipole Moment: [D]
     X:     0.0401      Y:     0.2017      Z:    -0.0632     Total:     0.2152

*** Psi4 exiting successfully. Buy a developer a beer!
