                               Psi4 1.3.2 release

  ==> Input File <==

--------------------------------------------------------------------------
#psi4
#
memory 32 gb

molecule  {
0 1
  C        0.0298960     1.2151600    -0.5253010
  C       -1.2843242     0.5170809    -0.2317902
  C        1.2387340     0.3598870    -0.1935000
  C        0.1038590     2.5478040     0.2258340
  C       -1.5567990    -0.6199760    -1.1655540
  C        2.3476650     0.3323920    -1.0476860
  C       -2.1272630     0.6989940     0.7661610
  C        1.2925180    -0.3667490     1.0043040
  C       -2.7057380    -1.3882370    -0.9902370
  C        3.4841570    -0.4112490    -0.7213440
  C       -3.2813200    -0.0705980     0.9462280
  C        2.4271420    -1.1078630     1.3345690
  C       -3.5735090    -1.1167760     0.0719390
  C        3.5283310    -1.1302700     0.4741930
  H        0.0764800     1.4411670    -1.6006990
  H        0.1404440     2.3872360     1.3072550
  H       -0.7568690     3.1831820    -0.0065830
  H        1.0165510     3.0793450    -0.0591360
  H       -0.8776040    -0.8405290    -1.9883130
  H        2.3169530     0.8915480    -1.9822160
  H       -1.9259890     1.5154960     1.4543950
  H        0.4297020    -0.3695730     1.6680340
  H       -2.9244160    -2.2005870    -1.6797290
  H        4.3341360    -0.4274460    -1.3999430
  H       -3.9507500     0.1497620     1.7748780
  H        2.4522940    -1.6709080     2.2649740
  H       -4.4717450    -1.7133490     0.2118480
  H        4.4104250    -1.7123070     0.7301740
units angstrom
no_reorient  #important for SAPT in psi4, default
symmetry c1  #important for SAPT in psi4, default
}

set PROPERTIES_ORIGIN ["COM"]
properties('MP2/aug-cc-pvtz', properties = ['dipole'])
--------------------------------------------------------------------------

    Molecular point group: c1
  Charge       = 0
  Multiplicity = 1
  Basis Set: AUG-CC-PVTZ
    Blend: AUG-CC-PVTZ
  Basis Set: (AUG-CC-PVTZ AUX)
    Blend: AUG-CC-PVTZ-JKFIT

    Orbital Energies [Eh]
    ---------------------

    Doubly Occupied:

       1A    -11.244199     2A    -11.241403     3A    -11.240262
       4A    -11.238964     5A    -11.235870     6A    -11.235703
       7A    -11.234923     8A    -11.234036     9A    -11.232793
      10A    -11.232740    11A    -11.231872    12A    -11.229761
      13A    -11.222765    14A    -11.217997    15A     -1.164772
      16A     -1.144678    17A     -1.082120    18A     -1.020100
      19A     -1.010774    20A     -0.999739    21A     -0.974576
      22A     -0.876100    23A     -0.832033    24A     -0.822372
      25A     -0.810420    26A     -0.766712    27A     -0.700838
      28A     -0.688414    29A     -0.647517    30A     -0.638295
      31A     -0.623367    32A     -0.616186    33A     -0.598348
      34A     -0.592367    35A     -0.581427    36A     -0.573547
      37A     -0.547090    38A     -0.529977    39A     -0.514647
      40A     -0.506758    41A     -0.496684    42A     -0.491809
      43A     -0.476956    44A     -0.473607    45A     -0.456104
      46A     -0.346508    47A     -0.335619    48A     -0.332169
      49A     -0.310136

  @DF-RHF Final Energy:  -538.47576678510563

   => Energetics <=

    Nuclear Repulsion Energy =            807.2961951727590986
    One-Electron Energy =               -2329.8318106209267171
    Two-Electron Energy =                 984.0598486630619846
    Total Energy =                       -538.4757667851056340
  Basis Set: (AUG-CC-PVTZ AUX)
    Blend: AUG-CC-PVTZ-RI
    Molecular point group: c1

    Geometry (in Angstrom), charge = 0, multiplicity = 1:

       Center              X                  Y                   Z               Mass
    ------------   -----------------  -----------------  -----------------  -----------------
         C            0.033454806640     1.230220767318    -0.525708263210    12.000000000000
         C           -1.280765393360     0.532141667318    -0.232197463210    12.000000000000
         C            1.242292806640     0.374947767318    -0.193907263210    12.000000000000
         C            0.107417806640     2.562864767318     0.225426736790    12.000000000000
         C           -1.553240193360    -0.604915232682    -1.165961263210    12.000000000000
         C            2.351223806640     0.347452767318    -1.048093263210    12.000000000000
         C           -2.123704193360     0.714054767318     0.765753736790    12.000000000000
         C            1.296076806640    -0.351688232682     1.003896736790    12.000000000000
         C           -2.702179193360    -1.373176232682    -0.990644263210    12.000000000000
         C            3.487715806640    -0.396188232682    -0.721751263210    12.000000000000
         C           -3.277761193360    -0.055537232682     0.945820736790    12.000000000000
         C            2.430700806640    -1.092802232682     1.334161736790    12.000000000000
         C           -3.569950193360    -1.101715232682     0.071531736790    12.000000000000
         C            3.531889806640    -1.115209232682     0.473785736790    12.000000000000
         H            0.080038806640     1.456227767318    -1.601106263210     1.007825032230
         H            0.144002806640     2.402296767318     1.306847736790     1.007825032230
         H           -0.753310193360     3.198242767318    -0.006990263210     1.007825032230
         H            1.020109806640     3.094405767318    -0.059543263210     1.007825032230
         H           -0.874045193360    -0.825468232682    -1.988720263210     1.007825032230
         H            2.320511806640     0.906608767318    -1.982623263210     1.007825032230
         H           -1.922430193360     1.530556767318     1.453987736790     1.007825032230
         H            0.433260806640    -0.354512232682     1.667626736790     1.007825032230
         H           -2.920857193360    -2.185526232682    -1.680136263210     1.007825032230
         H            4.337694806640    -0.412385232682    -1.400350263210     1.007825032230
         H           -3.947191193360     0.164822767318     1.774470736790     1.007825032230
         H            2.455852806640    -1.655847232682     2.264566736790     1.007825032230
         H           -4.468186193360    -1.698288232682     0.211440736790     1.007825032230
         H            4.413983806640    -1.697246232682     0.729766736790     1.007825032230

  Basis Set: AUG-CC-PVTZ
    Blend: AUG-CC-PVTZ
  Basis Set: (AUG-CC-PVTZ AUX)
    Blend: AUG-CC-PVTZ-JKFIT
	 Reference Energy          =    -538.4757667851056340 [Eh]
	 Singles Energy            =      -0.0000000000000000 [Eh]
	 Same-Spin Energy          =      -0.6094888516998983 [Eh]
	 Opposite-Spin Energy      =      -1.9385724775075146 [Eh]
	 Correlation Energy        =      -2.5480613292074130 [Eh]
	 Total Energy              =    -541.0238281143130052 [Eh]

	 ================> DF-SCS-MP2 Energies <==================
	-----------------------------------------------------------
	 SCS Same-Spin Scale       =       0.3333333333333333 [-]
	 SCS Opposite-Spin Scale   =       1.2000000000000000 [-]
	 SCS Same-Spin Energy      =      -0.2031629505666327 [Eh]
	 SCS Opposite-Spin Energy  =      -2.3262869730090174 [Eh]
	 SCS Correlation Energy    =      -2.5294499235756502 [Eh]
	 SCS Total Energy          =    -541.0052167086812460 [Eh]
	-----------------------------------------------------------

  Dipole Moment: [D]
     X:     0.0579      Y:     0.1478      Z:    -0.0763     Total:     0.1761

*** Psi4 exiting successfully. Buy a developer a beer!
