                               Psi4 1.3.2 release

  ==> Input File <==

--------------------------------------------------------------------------
#psi4
#
memory 32 gb

molecule  {
0 1
  C        0.0348094     1.2002779    -0.5466359
  C       -1.2526080     0.4386420    -0.2954290
  C        1.2387340     0.3598870    -0.1935000
  C        0.1038590     2.5478040     0.2258340
  C       -1.5567990    -0.6199760    -1.1655540
  C        2.3476650     0.3323920    -1.0476860
  C       -2.1272630     0.6989940     0.7661610
  C        1.2925180    -0.3667490     1.0043040
  C       -2.7057380    -1.3882370    -0.9902370
  C        3.4841570    -0.4112490    -0.7213440
  C       -3.2813200    -0.0705980     0.9462280
  C        2.4271420    -1.1078630     1.3345690
  C       -3.5735090    -1.1167760     0.0719390
  C        3.5283310    -1.1302700     0.4741930
  H        0.0764800     1.4411670    -1.6006990
  H        0.1404440     2.3872360     1.3072550
  H       -0.7568690     3.1831820    -0.0065830
  H        1.0165510     3.0793450    -0.0591360
  H       -0.8776040    -0.8405290    -1.9883130
  H        2.3169530     0.8915480    -1.9822160
  H       -1.9259890     1.5154960     1.4543950
  H        0.4297020    -0.3695730     1.6680340
  H       -2.9244160    -2.2005870    -1.6797290
  H        4.3341360    -0.4274460    -1.3999430
  H       -3.9507500     0.1497620     1.7748780
  H        2.4522940    -1.6709080     2.2649740
  H       -4.4717450    -1.7133490     0.2118480
  H        4.4104250    -1.7123070     0.7301740
units angstrom
no_reorient  #important for SAPT in psi4, default
symmetry c1  #important for SAPT in psi4, default
}

set PROPERTIES_ORIGIN ["COM"]
properties('MP2/aug-cc-pvtz', properties = ['dipole'])
--------------------------------------------------------------------------

    Molecular point group: c1
  Charge       = 0
  Multiplicity = 1
  Basis Set: AUG-CC-PVTZ
    Blend: AUG-CC-PVTZ
  Basis Set: (AUG-CC-PVTZ AUX)
    Blend: AUG-CC-PVTZ-JKFIT

    Orbital Energies [Eh]
    ---------------------

    Doubly Occupied:

       1A    -11.242492     2A    -11.241024     3A    -11.240099
       4A    -11.235867     5A    -11.235164     6A    -11.235123
       7A    -11.234605     8A    -11.232215     9A    -11.231995
      10A    -11.231570    11A    -11.231156    12A    -11.230309
      13A    -11.229336    14A    -11.220702    15A     -1.164507
      16A     -1.143963    17A     -1.080761    18A     -1.012351
      19A     -1.010748    20A     -1.005981    21A     -0.972331
      22A     -0.878567    23A     -0.828625    24A     -0.819109
      25A     -0.813994    26A     -0.770829    27A     -0.700145
      28A     -0.688185    29A     -0.648490    30A     -0.637562
      31A     -0.623960    32A     -0.615136    33A     -0.595193
      34A     -0.589891    35A     -0.581708    36A     -0.577273
      37A     -0.545075    38A     -0.529882    39A     -0.515506
      40A     -0.507145    41A     -0.494448    42A     -0.491762
      43A     -0.476974    44A     -0.471718    45A     -0.467399
      46A     -0.338973    47A     -0.334591    48A     -0.333123
      49A     -0.313456

  @DF-RHF Final Energy:  -538.48789137198264

   => Energetics <=

    Nuclear Repulsion Energy =            807.4589171480164396
    One-Electron Energy =               -2330.1915754231267783
    Two-Electron Energy =                 984.2447669031275836
    Total Energy =                       -538.4878913719826414
  Basis Set: (AUG-CC-PVTZ AUX)
    Blend: AUG-CC-PVTZ-RI
    Molecular point group: c1

    Geometry (in Angstrom), charge = 0, multiplicity = 1:

       Center              X                  Y                   Z               Mass
    ------------   -----------------  -----------------  -----------------  -----------------
         C            0.035954521038     1.221487998846    -0.541443872028    12.000000000000
         C           -1.251462878962     0.459852098846    -0.290236972028    12.000000000000
         C            1.239879121038     0.381097098846    -0.188307972028    12.000000000000
         C            0.105004121038     2.569014098846     0.231026027972    12.000000000000
         C           -1.555653878962    -0.598765901154    -1.160361972028    12.000000000000
         C            2.348810121038     0.353602098846    -1.042493972028    12.000000000000
         C           -2.126117878962     0.720204098846     0.771353027972    12.000000000000
         C            1.293663121038    -0.345538901154     1.009496027972    12.000000000000
         C           -2.704592878962    -1.367026901154    -0.985044972028    12.000000000000
         C            3.485302121038    -0.390038901154    -0.716151972028    12.000000000000
         C           -3.280174878962    -0.049387901154     0.951420027972    12.000000000000
         C            2.428287121038    -1.086652901154     1.339761027972    12.000000000000
         C           -3.572363878962    -1.095565901154     0.077131027972    12.000000000000
         C            3.529476121038    -1.109059901154     0.479385027972    12.000000000000
         H            0.077625121038     1.462377098846    -1.595506972028     1.007825032230
         H            0.141589121038     2.408446098846     1.312447027972     1.007825032230
         H           -0.755723878962     3.204392098846    -0.001390972028     1.007825032230
         H            1.017696121038     3.100555098846    -0.053943972028     1.007825032230
         H           -0.876458878962    -0.819318901154    -1.983120972028     1.007825032230
         H            2.318098121038     0.912758098846    -1.977023972028     1.007825032230
         H           -1.924843878962     1.536706098846     1.459587027972     1.007825032230
         H            0.430847121038    -0.348362901154     1.673226027972     1.007825032230
         H           -2.923270878962    -2.179376901154    -1.674536972028     1.007825032230
         H            4.335281121038    -0.406235901154    -1.394750972028     1.007825032230
         H           -3.949604878962     0.170972098846     1.780070027972     1.007825032230
         H            2.453439121038    -1.649697901154     2.270166027972     1.007825032230
         H           -4.470599878962    -1.692138901154     0.217040027972     1.007825032230
         H            4.411570121038    -1.691096901154     0.735366027972     1.007825032230

  Basis Set: AUG-CC-PVTZ
    Blend: AUG-CC-PVTZ
  Basis Set: (AUG-CC-PVTZ AUX)
    Blend: AUG-CC-PVTZ-JKFIT
	 Reference Energy          =    -538.4878913719826414 [Eh]
	 Singles Energy            =      -0.0000000000000000 [Eh]
	 Same-Spin Energy          =      -0.6099293330719032 [Eh]
	 Opposite-Spin Energy      =      -1.9380528552977561 [Eh]
	 Correlation Energy        =      -2.5479821883696592 [Eh]
	 Total Energy              =    -541.0358735603523428 [Eh]

	 ================> DF-SCS-MP2 Energies <==================
	-----------------------------------------------------------
	 SCS Same-Spin Scale       =       0.3333333333333333 [-]
	 SCS Opposite-Spin Scale   =       1.2000000000000000 [-]
	 SCS Same-Spin Energy      =      -0.2033097776906344 [Eh]
	 SCS Opposite-Spin Energy  =      -2.3256634263573073 [Eh]
	 SCS Correlation Energy    =      -2.5289732040479418 [Eh]
	 SCS Total Energy          =    -541.0168645760305708 [Eh]
	-----------------------------------------------------------

  Dipole Moment: [D]
     X:     0.0202      Y:     0.1946      Z:    -0.0784     Total:     0.2108

*** Psi4 exiting successfully. Buy a developer a beer!
