                               Psi4 1.3.2 release

  ==> Input File <==

--------------------------------------------------------------------------
#psi4
#
memory 32 gb

molecule  {
0 1
  C        0.0188987     1.2442101    -0.4824277
  C       -1.2526080     0.4386420    -0.2954290
  C        1.2387340     0.3598870    -0.1935000
  C        0.1038590     2.5478040     0.2258340
  C       -1.5567990    -0.6199760    -1.1655540
  C        2.3476650     0.3323920    -1.0476860
  C       -2.1272630     0.6989940     0.7661610
  C        1.2925180    -0.3667490     1.0043040
  C       -2.7057380    -1.3882370    -0.9902370
  C        3.4841570    -0.4112490    -0.7213440
  C       -3.2813200    -0.0705980     0.9462280
  C        2.4271420    -1.1078630     1.3345690
  C       -3.5735090    -1.1167760     0.0719390
  C        3.5283310    -1.1302700     0.4741930
  H        0.0764800     1.4411670    -1.6006990
  H        0.1404440     2.3872360     1.3072550
  H       -0.7568690     3.1831820    -0.0065830
  H        1.0165510     3.0793450    -0.0591360
  H       -0.8776040    -0.8405290    -1.9883130
  H        2.3169530     0.8915480    -1.9822160
  H       -1.9259890     1.5154960     1.4543950
  H        0.4297020    -0.3695730     1.6680340
  H       -2.9244160    -2.2005870    -1.6797290
  H        4.3341360    -0.4274460    -1.3999430
  H       -3.9507500     0.1497620     1.7748780
  H        2.4522940    -1.6709080     2.2649740
  H       -4.4717450    -1.7133490     0.2118480
  H        4.4104250    -1.7123070     0.7301740
units angstrom
no_reorient  #important for SAPT in psi4, default
symmetry c1  #important for SAPT in psi4, default
}

set PROPERTIES_ORIGIN ["COM"]
properties('MP2/aug-cc-pvtz', properties = ['dipole'])
--------------------------------------------------------------------------

    Molecular point group: c1
  Charge       = 0
  Multiplicity = 1
  Basis Set: AUG-CC-PVTZ
    Blend: AUG-CC-PVTZ
  Basis Set: (AUG-CC-PVTZ AUX)
    Blend: AUG-CC-PVTZ-JKFIT

    Orbital Energies [Eh]
    ---------------------

    Doubly Occupied:

       1A    -11.245257     2A    -11.241780     3A    -11.240777
       4A    -11.235717     5A    -11.235434     6A    -11.235414
       7A    -11.234309     8A    -11.232344     9A    -11.231946
      10A    -11.231504    11A    -11.231343    12A    -11.230826
      13A    -11.228889    14A    -11.218696    15A     -1.164497
      16A     -1.143836    17A     -1.083942    18A     -1.012316
      19A     -1.010614    20A     -1.005682    21A     -0.980495
      22A     -0.874979    23A     -0.828365    24A     -0.819245
      25A     -0.813288    26A     -0.768233    27A     -0.700061
      28A     -0.687131    29A     -0.646689    30A     -0.637287
      31A     -0.624959    32A     -0.615029    33A     -0.597721
      34A     -0.590341    35A     -0.581773    36A     -0.577687
      37A     -0.552865    38A     -0.532589    39A     -0.511574
      40A     -0.506203    41A     -0.494070    42A     -0.492018
      43A     -0.480811    44A     -0.466186    45A     -0.462591
      46A     -0.340049    47A     -0.334621    48A     -0.333691
      49A     -0.312569

  @DF-RHF Final Energy:  -538.48473874839317

   => Energetics <=

    Nuclear Repulsion Energy =            807.5717425700693184
    One-Electron Energy =               -2330.3964718840697969
    Two-Electron Energy =                 984.3399905656073088
    Total Energy =                       -538.4847387483931698
  Basis Set: (AUG-CC-PVTZ AUX)
    Blend: AUG-CC-PVTZ-RI
    Molecular point group: c1

    Geometry (in Angstrom), charge = 0, multiplicity = 1:

       Center              X                  Y                   Z               Mass
    ------------   -----------------  -----------------  -----------------  -----------------
         C            0.021092247106     1.262525312780    -0.481466632997    12.000000000000
         C           -1.250414452894     0.456957212780    -0.294467932997    12.000000000000
         C            1.240927547106     0.378202212780    -0.192538932997    12.000000000000
         C            0.106052547106     2.566119212780     0.226795067003    12.000000000000
         C           -1.554605452894    -0.601660787220    -1.164592932997    12.000000000000
         C            2.349858547106     0.350707212780    -1.046724932997    12.000000000000
         C           -2.125069452894     0.717309212780     0.767122067003    12.000000000000
         C            1.294711547106    -0.348433787220     1.005265067003    12.000000000000
         C           -2.703544452894    -1.369921787220    -0.989275932997    12.000000000000
         C            3.486350547106    -0.392933787220    -0.720382932997    12.000000000000
         C           -3.279126452894    -0.052282787220     0.947189067003    12.000000000000
         C            2.429335547106    -1.089547787220     1.335530067003    12.000000000000
         C           -3.571315452894    -1.098460787220     0.072900067003    12.000000000000
         C            3.530524547106    -1.111954787220     0.475154067003    12.000000000000
         H            0.078673547106     1.459482212780    -1.599737932997     1.007825032230
         H            0.142637547106     2.405551212780     1.308216067003     1.007825032230
         H           -0.754675452894     3.201497212780    -0.005621932997     1.007825032230
         H            1.018744547106     3.097660212780    -0.058174932997     1.007825032230
         H           -0.875410452894    -0.822213787220    -1.987351932997     1.007825032230
         H            2.319146547106     0.909863212780    -1.981254932997     1.007825032230
         H           -1.923795452894     1.533811212780     1.455356067003     1.007825032230
         H            0.431895547106    -0.351257787220     1.668995067003     1.007825032230
         H           -2.922222452894    -2.182271787220    -1.678767932997     1.007825032230
         H            4.336329547106    -0.409130787220    -1.398981932997     1.007825032230
         H           -3.948556452894     0.168077212780     1.775839067003     1.007825032230
         H            2.454487547106    -1.652592787220     2.265935067003     1.007825032230
         H           -4.469551452894    -1.695033787220     0.212809067003     1.007825032230
         H            4.412618547106    -1.693991787220     0.731135067003     1.007825032230

  Basis Set: AUG-CC-PVTZ
    Blend: AUG-CC-PVTZ
  Basis Set: (AUG-CC-PVTZ AUX)
    Blend: AUG-CC-PVTZ-JKFIT
	 Reference Energy          =    -538.4847387483931698 [Eh]
	 Singles Energy            =      -0.0000000000000000 [Eh]
	 Same-Spin Energy          =      -0.6103551532186492 [Eh]
	 Opposite-Spin Energy      =      -1.9385828372419540 [Eh]
	 Correlation Energy        =      -2.5489379904606033 [Eh]
	 Total Energy              =    -541.0336767388537282 [Eh]

	 ================> DF-SCS-MP2 Energies <==================
	-----------------------------------------------------------
	 SCS Same-Spin Scale       =       0.3333333333333333 [-]
	 SCS Opposite-Spin Scale   =       1.2000000000000000 [-]
	 SCS Same-Spin Energy      =      -0.2034517177395497 [Eh]
	 SCS Opposite-Spin Energy  =      -2.3262994046903449 [Eh]
	 SCS Correlation Energy    =      -2.5297511224298947 [Eh]
	 SCS Total Energy          =    -541.0144898708230130 [Eh]
	-----------------------------------------------------------

  Dipole Moment: [D]
     X:     0.0674      Y:     0.2202      Z:    -0.0349     Total:     0.2329

*** Psi4 exiting successfully. Buy a developer a beer!
