                               Psi4 1.3.2 release

  ==> Input File <==

--------------------------------------------------------------------------
#psi4
#
memory 32 gb

molecule  {
0 1
  C        0.0298960     1.2151600    -0.5253010
  C       -1.3058950     0.5246020    -0.3267314
  C        1.2387340     0.3598870    -0.1935000
  C        0.1038590     2.5478040     0.2258340
  C       -1.5567990    -0.6199760    -1.1655540
  C        2.3476650     0.3323920    -1.0476860
  C       -2.1272630     0.6989940     0.7661610
  C        1.2925180    -0.3667490     1.0043040
  C       -2.7057380    -1.3882370    -0.9902370
  C        3.4841570    -0.4112490    -0.7213440
  C       -3.2813200    -0.0705980     0.9462280
  C        2.4271420    -1.1078630     1.3345690
  C       -3.5735090    -1.1167760     0.0719390
  C        3.5283310    -1.1302700     0.4741930
  H        0.0764800     1.4411670    -1.6006990
  H        0.1404440     2.3872360     1.3072550
  H       -0.7568690     3.1831820    -0.0065830
  H        1.0165510     3.0793450    -0.0591360
  H       -0.8776040    -0.8405290    -1.9883130
  H        2.3169530     0.8915480    -1.9822160
  H       -1.9259890     1.5154960     1.4543950
  H        0.4297020    -0.3695730     1.6680340
  H       -2.9244160    -2.2005870    -1.6797290
  H        4.3341360    -0.4274460    -1.3999430
  H       -3.9507500     0.1497620     1.7748780
  H        2.4522940    -1.6709080     2.2649740
  H       -4.4717450    -1.7133490     0.2118480
  H        4.4104250    -1.7123070     0.7301740
units angstrom
no_reorient  #important for SAPT in psi4, default
symmetry c1  #important for SAPT in psi4, default
}

set PROPERTIES_ORIGIN ["COM"]
properties('MP2/aug-cc-pvtz', properties = ['dipole'])
--------------------------------------------------------------------------

    Molecular point group: c1
  Charge       = 0
  Multiplicity = 1
  Basis Set: AUG-CC-PVTZ
    Blend: AUG-CC-PVTZ
  Basis Set: (AUG-CC-PVTZ AUX)
    Blend: AUG-CC-PVTZ-JKFIT

    Orbital Energies [Eh]
    ---------------------

    Doubly Occupied:

       1A    -11.243138     2A    -11.242010     3A    -11.241484
       4A    -11.235814     5A    -11.235735     6A    -11.235608
       7A    -11.234827     8A    -11.234448     9A    -11.233130
      10A    -11.232723    11A    -11.231861    12A    -11.230248
      13A    -11.229758    14A    -11.218453    15A     -1.163595
      16A     -1.143973    17A     -1.081508    18A     -1.014244
      19A     -1.010485    20A     -1.004662    21A     -0.974264
      22A     -0.876243    23A     -0.828960    24A     -0.819831
      25A     -0.813808    26A     -0.768872    27A     -0.700910
      28A     -0.687714    29A     -0.646147    30A     -0.639053
      31A     -0.622513    32A     -0.616273    33A     -0.596806
      34A     -0.590356    35A     -0.581614    36A     -0.575632
      37A     -0.546577    38A     -0.530390    39A     -0.513989
      40A     -0.507159    41A     -0.493749    42A     -0.491848
      43A     -0.474077    44A     -0.471155    45A     -0.466557
      46A     -0.338005    47A     -0.336786    48A     -0.333498
      49A     -0.313256

  @DF-RHF Final Energy:  -538.48288053266731

   => Energetics <=

    Nuclear Repulsion Energy =            806.7452308138338140
    One-Electron Energy =               -2328.7487242845404580
    Two-Electron Energy =                 983.5206129380393349
    Total Energy =                       -538.4828805326673091
  Basis Set: (AUG-CC-PVTZ AUX)
    Blend: AUG-CC-PVTZ-RI
    Molecular point group: c1

    Geometry (in Angstrom), charge = 0, multiplicity = 1:

       Center              X                  Y                   Z               Mass
    ------------   -----------------  -----------------  -----------------  -----------------
         C            0.034876201616     1.229725168928    -0.519452169572    12.000000000000
         C           -1.300914798384     0.539167168928    -0.320882569572    12.000000000000
         C            1.243714201616     0.374452168928    -0.187651169572    12.000000000000
         C            0.108839201616     2.562369168928     0.231682830428    12.000000000000
         C           -1.551818798384    -0.605410831072    -1.159705169572    12.000000000000
         C            2.352645201616     0.346957168928    -1.041837169572    12.000000000000
         C           -2.122282798384     0.713559168928     0.772009830428    12.000000000000
         C            1.297498201616    -0.352183831072     1.010152830428    12.000000000000
         C           -2.700757798384    -1.373671831072    -0.984388169572    12.000000000000
         C            3.489137201616    -0.396683831072    -0.715495169572    12.000000000000
         C           -3.276339798384    -0.056032831072     0.952076830428    12.000000000000
         C            2.432122201616    -1.093297831072     1.340417830428    12.000000000000
         C           -3.568528798384    -1.102210831072     0.077787830428    12.000000000000
         C            3.533311201616    -1.115704831072     0.480041830428    12.000000000000
         H            0.081460201616     1.455732168928    -1.594850169572     1.007825032230
         H            0.145424201616     2.401801168928     1.313103830428     1.007825032230
         H           -0.751888798384     3.197747168928    -0.000734169572     1.007825032230
         H            1.021531201616     3.093910168928    -0.053287169572     1.007825032230
         H           -0.872623798384    -0.825963831072    -1.982464169572     1.007825032230
         H            2.321933201616     0.906113168928    -1.976367169572     1.007825032230
         H           -1.921008798384     1.530061168928     1.460243830428     1.007825032230
         H            0.434682201616    -0.355007831072     1.673882830428     1.007825032230
         H           -2.919435798384    -2.186021831072    -1.673880169572     1.007825032230
         H            4.339116201616    -0.412880831072    -1.394094169572     1.007825032230
         H           -3.945769798384     0.164327168928     1.780726830428     1.007825032230
         H            2.457274201616    -1.656342831072     2.270822830428     1.007825032230
         H           -4.466764798384    -1.698783831072     0.217696830428     1.007825032230
         H            4.415405201616    -1.697741831072     0.736022830428     1.007825032230

  Basis Set: AUG-CC-PVTZ
    Blend: AUG-CC-PVTZ
  Basis Set: (AUG-CC-PVTZ AUX)
    Blend: AUG-CC-PVTZ-JKFIT
	 Reference Energy          =    -538.4828805326673091 [Eh]
	 Singles Energy            =      -0.0000000000000000 [Eh]
	 Same-Spin Energy          =      -0.6099682255647133 [Eh]
	 Opposite-Spin Energy      =      -1.9385398087677048 [Eh]
	 Correlation Energy        =      -2.5485080343324182 [Eh]
	 Total Energy              =    -541.0313885669996807 [Eh]

	 ================> DF-SCS-MP2 Energies <==================
	-----------------------------------------------------------
	 SCS Same-Spin Scale       =       0.3333333333333333 [-]
	 SCS Opposite-Spin Scale   =       1.2000000000000000 [-]
	 SCS Same-Spin Energy      =      -0.2033227418549044 [Eh]
	 SCS Opposite-Spin Energy  =      -2.3262477705212459 [Eh]
	 SCS Correlation Energy    =      -2.5295705123761505 [Eh]
	 SCS Total Energy          =    -541.0124510450434627 [Eh]
	-----------------------------------------------------------

  Dipole Moment: [D]
     X:     0.0440      Y:     0.1218      Z:    -0.0458     Total:     0.1374

*** Psi4 exiting successfully. Buy a developer a beer!
