                               Psi4 1.4a3.dev225

  ==> Input File <==

--------------------------------------------------------------------------
#psi4
#
memory 32 gb

molecule  {
0 1
  C        0.0298960     1.2151600    -0.5253010
  C       -1.2526080     0.4386420    -0.2954290
  C        1.2387340     0.3598870    -0.1935000
  C        0.1048249     2.5652067     0.2356429
  C       -1.5567990    -0.6199760    -1.1655540
  C        2.3476650     0.3323920    -1.0476860
  C       -2.1272630     0.6989940     0.7661610
  C        1.2925180    -0.3667490     1.0043040
  C       -2.7057380    -1.3882370    -0.9902370
  C        3.4841570    -0.4112490    -0.7213440
  C       -3.2813200    -0.0705980     0.9462280
  C        2.4271420    -1.1078630     1.3345690
  C       -3.5735090    -1.1167760     0.0719390
  C        3.5283310    -1.1302700     0.4741930
  H        0.0764800     1.4411670    -1.6006990
  H        0.1404440     2.3872360     1.3072550
  H       -0.7568690     3.1831820    -0.0065830
  H        1.0165510     3.0793450    -0.0591360
  H       -0.8776040    -0.8405290    -1.9883130
  H        2.3169530     0.8915480    -1.9822160
  H       -1.9259890     1.5154960     1.4543950
  H        0.4297020    -0.3695730     1.6680340
  H       -2.9244160    -2.2005870    -1.6797290
  H        4.3341360    -0.4274460    -1.3999430
  H       -3.9507500     0.1497620     1.7748780
  H        2.4522940    -1.6709080     2.2649740
  H       -4.4717450    -1.7133490     0.2118480
  H        4.4104250    -1.7123070     0.7301740
units angstrom
no_reorient  #important for SAPT in psi4, default
symmetry c1  #important for SAPT in psi4, default
}

set PROPERTIES_ORIGIN ["COM"]
properties('MP2/aug-cc-pvtz', properties = ['dipole'])
--------------------------------------------------------------------------

    Molecular point group: c1
  Charge       = 0
  Multiplicity = 1
  Basis Set: AUG-CC-PVTZ
    Blend: AUG-CC-PVTZ
  Basis Set: (AUG-CC-PVTZ AUX)
    Blend: AUG-CC-PVTZ-JKFIT

    Orbital Energies [Eh]
    ---------------------

    Doubly Occupied:

       1A    -11.243956     2A    -11.241225     3A    -11.240221
       4A    -11.235726     5A    -11.235276     6A    -11.235224
       7A    -11.234484     8A    -11.232055     9A    -11.231760
      10A    -11.231591    11A    -11.231232    12A    -11.230585
      13A    -11.229115    14A    -11.219370    15A     -1.163933
      16A     -1.143863    17A     -1.080083    18A     -1.012278
      19A     -1.010633    20A     -1.005790    21A     -0.974039
      22A     -0.878500    23A     -0.828421    24A     -0.819160
      25A     -0.813678    26A     -0.769873    27A     -0.699941
      28A     -0.687405    29A     -0.647344    30A     -0.637238
      31A     -0.623775    32A     -0.615036    33A     -0.596276
      34A     -0.590283    35A     -0.581704    36A     -0.577360
      37A     -0.546011    38A     -0.532558    39A     -0.514896
      40A     -0.506856    41A     -0.494386    42A     -0.492030
      43A     -0.474665    44A     -0.473084    45A     -0.466651
      46A     -0.339178    47A     -0.334547    48A     -0.333248
      49A     -0.313106

  @DF-RHF Final Energy:  -538.48820193523648

   => Energetics <=

    Nuclear Repulsion Energy =            807.1072485096452738
    One-Electron Energy =               -2329.4916104548015028
    Two-Electron Energy =                 983.8961600099198677
    Total Energy =                       -538.4882019352364750
  Basis Set: (AUG-CC-PVTZ AUX)
    Blend: AUG-CC-PVTZ-RI
    Molecular point group: c1

    Geometry (in Angstrom), charge = 0, multiplicity = 1:

       Center              X                  Y                   Z               Mass
    ------------   -----------------  -----------------  -----------------  -----------------
         C            0.031301239191     1.234242711243    -0.522161174118    12.000000000000
         C           -1.251202760809     0.457724711243    -0.292289174118    12.000000000000
         C            1.240139239191     0.378969711243    -0.190360174118    12.000000000000
         C            0.106230139191     2.584289411243     0.238782725882    12.000000000000
         C           -1.555393760809    -0.600893288757    -1.162414174118    12.000000000000
         C            2.349070239191     0.351474711243    -1.044546174118    12.000000000000
         C           -2.125857760809     0.718076711243     0.769300825882    12.000000000000
         C            1.293923239191    -0.347666288757     1.007443825882    12.000000000000
         C           -2.704332760809    -1.369154288757    -0.987097174118    12.000000000000
         C            3.485562239191    -0.392166288757    -0.718204174118    12.000000000000
         C           -3.279914760809    -0.051515288757     0.949367825882    12.000000000000
         C            2.428547239191    -1.088780288757     1.337708825882    12.000000000000
         C           -3.572103760809    -1.097693288757     0.075078825882    12.000000000000
         C            3.529736239191    -1.111187288757     0.477332825882    12.000000000000
         H            0.077885239191     1.460249711243    -1.597559174118     1.007825032230
         H            0.141849239191     2.406318711243     1.310394825882     1.007825032230
         H           -0.755463760809     3.202264711243    -0.003443174118     1.007825032230
         H            1.017956239191     3.098427711243    -0.055996174118     1.007825032230
         H           -0.876198760809    -0.821446288757    -1.985173174118     1.007825032230
         H            2.318358239191     0.910630711243    -1.979076174118     1.007825032230
         H           -1.924583760809     1.534578711243     1.457534825882     1.007825032230
         H            0.431107239191    -0.350490288757     1.671173825882     1.007825032230
         H           -2.923010760809    -2.181504288757    -1.676589174118     1.007825032230
         H            4.335541239191    -0.408363288757    -1.396803174118     1.007825032230
         H           -3.949344760809     0.168844711243     1.778017825882     1.007825032230
         H            2.453699239191    -1.651825288757     2.268113825882     1.007825032230
         H           -4.470339760809    -1.694266288757     0.214987825882     1.007825032230
         H            4.411830239191    -1.693224288757     0.733313825882     1.007825032230

  Basis Set: AUG-CC-PVTZ
    Blend: AUG-CC-PVTZ
  Basis Set: (AUG-CC-PVTZ AUX)
    Blend: AUG-CC-PVTZ-JKFIT
	 Reference Energy          =    -538.4882019352364750 [Eh]
	 Singles Energy            =      -0.0000000000000000 [Eh]
	 Same-Spin Energy          =      -0.6098853421845520 [Eh]
	 Opposite-Spin Energy      =      -1.9380080675743065 [Eh]
	 Correlation Energy        =      -2.5478934097588586 [Eh]
	 Total Energy              =    -541.0360953449953740 [Eh]

	 ================> DF-SCS-MP2 Energies <==================
	-----------------------------------------------------------
	 SCS Same-Spin Scale       =       0.3333333333333333 [-]
	 SCS Opposite-Spin Scale   =       1.2000000000000000 [-]
	 SCS Same-Spin Energy      =      -0.2032951140615173 [Eh]
	 SCS Opposite-Spin Energy  =      -2.3256096810891678 [Eh]
	 SCS Correlation Energy    =      -2.5289047951506851 [Eh]
	 SCS Total Energy          =    -541.0171067303871268 [Eh]
	-----------------------------------------------------------

  Dipole Moment: [D]
     X:     0.0338      Y:     0.2034      Z:    -0.0668     Total:     0.2167

*** Psi4 exiting successfully. Buy a developer a beer!
