                               Psi4 1.3.2 release

  ==> Input File <==

--------------------------------------------------------------------------
#psi4
#
memory 32 gb

molecule  {
0 1
  C        0.0298960     1.2151600    -0.5253010
  C       -1.2526080     0.4386420    -0.2954290
  C        1.2387340     0.3598870    -0.1935000
  C        0.1038590     2.5478040     0.2258340
  C       -1.5567990    -0.6199760    -1.1655540
  C        2.3476650     0.3323920    -1.0476860
  C       -2.1272630     0.6989940     0.7661610
  C        1.2925180    -0.3667490     1.0043040
  C       -2.7057380    -1.3882370    -0.9902370
  C        3.4841570    -0.4112490    -0.7213440
  C       -3.2813200    -0.0705980     0.9462280
  C        2.4271420    -1.1078630     1.3345690
  C       -3.5735090    -1.1167760     0.0719390
  C        3.5283310    -1.1302700     0.4741930
  H        0.0764800     1.4411670    -1.6006990
  H        0.1404440     2.3872360     1.3072550
  H       -0.7568690     3.1831820    -0.0065830
  H        1.0165510     3.0793450    -0.0591360
  H       -0.8776040    -0.8405290    -1.9883130
  H        2.3169530     0.8915480    -1.9822160
  H       -1.9259890     1.5154960     1.4543950
  H        0.4297020    -0.3695730     1.6680340
  H       -2.9244160    -2.2005870    -1.6797290
  H        4.3341360    -0.4274460    -1.3999430
  H       -3.9507500     0.1497620     1.7748780
  H        2.4522940    -1.6709080     2.2649740
  H       -4.4717450    -1.7133490     0.2118480
  H        4.4104250    -1.7123070     0.7301740
units angstrom
no_reorient  #important for SAPT in psi4, default
symmetry c1  #important for SAPT in psi4, default
}

set PROPERTIES_ORIGIN ["COM"]
properties('MP2/aug-cc-pvtz', properties = ['dipole'])
--------------------------------------------------------------------------

    Molecular point group: c1
  Charge       = 0
  Multiplicity = 1
  Basis Set: AUG-CC-PVTZ
    Blend: AUG-CC-PVTZ
  Basis Set: (AUG-CC-PVTZ AUX)
    Blend: AUG-CC-PVTZ-JKFIT

    Orbital Energies [Eh]
    ---------------------

    Doubly Occupied:

       1A    -11.243240     2A    -11.241199     3A    -11.240252
       4A    -11.235733     5A    -11.235280     6A    -11.235245
       7A    -11.234505     8A    -11.232091     9A    -11.231831
      10A    -11.231612    11A    -11.231285    12A    -11.230633
      13A    -11.229187    14A    -11.220046    15A     -1.164455
      16A     -1.143910    17A     -1.081633    18A     -1.012325
      19A     -1.010685    20A     -1.005876    21A     -0.974969
      22A     -0.877379    23A     -0.828515    24A     -0.819104
      25A     -0.813794    26A     -0.769930    27A     -0.700103
      28A     -0.687746    29A     -0.647759    30A     -0.637449
      31A     -0.624217    32A     -0.615088    33A     -0.595929
      34A     -0.589999    35A     -0.581724    36A     -0.577336
      37A     -0.547124    38A     -0.530996    39A     -0.514006
      40A     -0.506828    41A     -0.494299    42A     -0.491831
      43A     -0.475202    44A     -0.473746    45A     -0.466124
      46A     -0.339333    47A     -0.334576    48A     -0.333378
      49A     -0.313224

  @DF-RHF Final Energy:  -538.48830646857175

   => Energetics <=

    Nuclear Repulsion Energy =            807.4964205219372388
    One-Electron Energy =               -2330.2639881379977851
    Two-Electron Energy =                 984.2792611474889100
    Total Energy =                       -538.4883064685717500
  Basis Set: (AUG-CC-PVTZ AUX)
    Blend: AUG-CC-PVTZ-RI
    Molecular point group: c1

    Geometry (in Angstrom), charge = 0, multiplicity = 1:

       Center              X                  Y                   Z               Mass
    ------------   -----------------  -----------------  -----------------  -----------------
         C            0.031364886595     1.235389451760    -0.521514822514    12.000000000000
         C           -1.251139113405     0.458871451760    -0.291642822514    12.000000000000
         C            1.240202886595     0.380116451760    -0.189713822514    12.000000000000
         C            0.105327886595     2.568033451760     0.229620177486    12.000000000000
         C           -1.555330113405    -0.599746548240    -1.161767822514    12.000000000000
         C            2.349133886595     0.352621451760    -1.043899822514    12.000000000000
         C           -2.125794113405     0.719223451760     0.769947177486    12.000000000000
         C            1.293986886595    -0.346519548240     1.008090177486    12.000000000000
         C           -2.704269113405    -1.368007548240    -0.986450822514    12.000000000000
         C            3.485625886595    -0.391019548240    -0.717557822514    12.000000000000
         C           -3.279851113405    -0.050368548240     0.950014177486    12.000000000000
         C            2.428610886595    -1.087633548240     1.338355177486    12.000000000000
         C           -3.572040113405    -1.096546548240     0.075725177486    12.000000000000
         C            3.529799886595    -1.110040548240     0.477979177486    12.000000000000
         H            0.077948886595     1.461396451760    -1.596912822514     1.007825032230
         H            0.141912886595     2.407465451760     1.311041177486     1.007825032230
         H           -0.755400113405     3.203411451760    -0.002796822514     1.007825032230
         H            1.018019886595     3.099574451760    -0.055349822514     1.007825032230
         H           -0.876135113405    -0.820299548240    -1.984526822514     1.007825032230
         H            2.318421886595     0.911777451760    -1.978429822514     1.007825032230
         H           -1.924520113405     1.535725451760     1.458181177486     1.007825032230
         H            0.431170886595    -0.349343548240     1.671820177486     1.007825032230
         H           -2.922947113405    -2.180357548240    -1.675942822514     1.007825032230
         H            4.335604886595    -0.407216548240    -1.396156822514     1.007825032230
         H           -3.949281113405     0.169991451760     1.778664177486     1.007825032230
         H            2.453762886595    -1.650678548240     2.268760177486     1.007825032230
         H           -4.470276113405    -1.693119548240     0.215634177486     1.007825032230
         H            4.411893886595    -1.692077548240     0.733960177486     1.007825032230

  Basis Set: AUG-CC-PVTZ
    Blend: AUG-CC-PVTZ
  Basis Set: (AUG-CC-PVTZ AUX)
    Blend: AUG-CC-PVTZ-JKFIT
	 Reference Energy          =    -538.4883064685717500 [Eh]
	 Singles Energy            =      -0.0000000000000000 [Eh]
	 Same-Spin Energy          =      -0.6100157205742511 [Eh]
	 Opposite-Spin Energy      =      -1.9381211883240563 [Eh]
	 Correlation Energy        =      -2.5481369088983072 [Eh]
	 Total Energy              =    -541.0364433774700501 [Eh]

	 ================> DF-SCS-MP2 Energies <==================
	-----------------------------------------------------------
	 SCS Same-Spin Scale       =       0.3333333333333333 [-]
	 SCS Opposite-Spin Scale   =       1.2000000000000000 [-]
	 SCS Same-Spin Energy      =      -0.2033385735247504 [Eh]
	 SCS Opposite-Spin Energy  =      -2.3257454259888677 [Eh]
	 SCS Correlation Energy    =      -2.5290839995136181 [Eh]
	 SCS Total Energy          =    -541.0173904680854093 [Eh]
	-----------------------------------------------------------

  Dipole Moment: [D]
     X:     0.0370      Y:     0.2031      Z:    -0.0648     Total:     0.2164

*** Psi4 exiting successfully. Buy a developer a beer!
