                               Psi4 1.3.2 release

  ==> Input File <==

--------------------------------------------------------------------------
#psi4
#
memory 32 gb

molecule  {
0 1
  C        0.0275365     1.3011718    -0.6605617
  C       -1.2526080     0.4386420    -0.2954290
  C        1.2387340     0.3598870    -0.1935000
  C        0.1038590     2.5478040     0.2258340
  C       -1.5567990    -0.6199760    -1.1655540
  C        2.3476650     0.3323920    -1.0476860
  C       -2.1272630     0.6989940     0.7661610
  C        1.2925180    -0.3667490     1.0043040
  C       -2.7057380    -1.3882370    -0.9902370
  C        3.4841570    -0.4112490    -0.7213440
  C       -3.2813200    -0.0705980     0.9462280
  C        2.4271420    -1.1078630     1.3345690
  C       -3.5735090    -1.1167760     0.0719390
  C        3.5283310    -1.1302700     0.4741930
  H        0.0764800     1.4411670    -1.6006990
  H        0.1404440     2.3872360     1.3072550
  H       -0.7568690     3.1831820    -0.0065830
  H        1.0165510     3.0793450    -0.0591360
  H       -0.8776040    -0.8405290    -1.9883130
  H        2.3169530     0.8915480    -1.9822160
  H       -1.9259890     1.5154960     1.4543950
  H        0.4297020    -0.3695730     1.6680340
  H       -2.9244160    -2.2005870    -1.6797290
  H        4.3341360    -0.4274460    -1.3999430
  H       -3.9507500     0.1497620     1.7748780
  H        2.4522940    -1.6709080     2.2649740
  H       -4.4717450    -1.7133490     0.2118480
  H        4.4104250    -1.7123070     0.7301740
units angstrom
no_reorient  #important for SAPT in psi4, default
symmetry c1  #important for SAPT in psi4, default
}

set PROPERTIES_ORIGIN ["COM"]
properties('MP2/aug-cc-pvtz', properties = ['dipole'])
--------------------------------------------------------------------------

    Molecular point group: c1
  Charge       = 0
  Multiplicity = 1
  Basis Set: AUG-CC-PVTZ
    Blend: AUG-CC-PVTZ
  Basis Set: (AUG-CC-PVTZ AUX)
    Blend: AUG-CC-PVTZ-JKFIT

    Orbital Energies [Eh]
    ---------------------

    Doubly Occupied:

       1A    -11.243924     2A    -11.243837     3A    -11.242535
       4A    -11.235527     5A    -11.234792     6A    -11.234359
       7A    -11.234025     8A    -11.231629     9A    -11.230999
      10A    -11.230318    11A    -11.230158    12A    -11.229479
      13A    -11.229164    14A    -11.221051    15A     -1.159069
      16A     -1.142369    17A     -1.077207    18A     -1.011255
      19A     -1.009828    20A     -1.002199    21A     -0.977262
      22A     -0.879248    23A     -0.826136    24A     -0.817935
      25A     -0.808382    26A     -0.781320    27A     -0.696629
      28A     -0.693374    29A     -0.650702    30A     -0.631974
      31A     -0.621580    32A     -0.614334    33A     -0.595539
      34A     -0.590795    35A     -0.580967    36A     -0.578476
      37A     -0.549414    38A     -0.535220    39A     -0.525220
      40A     -0.504061    41A     -0.493056    42A     -0.490067
      43A     -0.485329    44A     -0.466650    45A     -0.445876
      46A     -0.338592    47A     -0.333962    48A     -0.332709
      49A     -0.312172

  @DF-RHF Final Energy:  -538.45868908195553

   => Energetics <=

    Nuclear Repulsion Energy =            805.3489951432991347
    One-Electron Energy =               -2325.9539590696213054
    Two-Electron Energy =                 982.1462748443666442
    Total Energy =                       -538.4586890819555265
  Basis Set: (AUG-CC-PVTZ AUX)
    Blend: AUG-CC-PVTZ-RI
    Molecular point group: c1

    Geometry (in Angstrom), charge = 0, multiplicity = 1:

       Center              X                  Y                   Z               Mass
    ------------   -----------------  -----------------  -----------------  -----------------
         C            0.029160864437     1.315733555598    -0.647862599518    12.000000000000
         C           -1.250983635563     0.453203755598    -0.282729899518    12.000000000000
         C            1.240358364437     0.374448755598    -0.180800899518    12.000000000000
         C            0.105483364437     2.562365755598     0.238533100482    12.000000000000
         C           -1.555174635563    -0.605414244402    -1.152854899518    12.000000000000
         C            2.349289364437     0.346953755598    -1.034986899518    12.000000000000
         C           -2.125638635563     0.713555755598     0.778860100482    12.000000000000
         C            1.294142364437    -0.352187244402     1.017003100482    12.000000000000
         C           -2.704113635563    -1.373675244402    -0.977537899518    12.000000000000
         C            3.485781364437    -0.396687244402    -0.708644899518    12.000000000000
         C           -3.279695635563    -0.056036244402     0.958927100482    12.000000000000
         C            2.428766364437    -1.093301244402     1.347268100482    12.000000000000
         C           -3.571884635563    -1.102214244402     0.084638100482    12.000000000000
         C            3.529955364437    -1.115708244402     0.486892100482    12.000000000000
         H            0.078104364437     1.455728755598    -1.587999899518     1.007825032230
         H            0.142068364437     2.401797755598     1.319954100482     1.007825032230
         H           -0.755244635563     3.197743755598     0.006116100482     1.007825032230
         H            1.018175364437     3.093906755598    -0.046436899518     1.007825032230
         H           -0.875979635563    -0.825967244402    -1.975613899518     1.007825032230
         H            2.318577364437     0.906109755598    -1.969516899518     1.007825032230
         H           -1.924364635563     1.530057755598     1.467094100482     1.007825032230
         H            0.431326364437    -0.355011244402     1.680733100482     1.007825032230
         H           -2.922791635563    -2.186025244402    -1.667029899518     1.007825032230
         H            4.335760364437    -0.412884244402    -1.387243899518     1.007825032230
         H           -3.949125635563     0.164323755598     1.787577100482     1.007825032230
         H            2.453918364437    -1.656346244402     2.277673100482     1.007825032230
         H           -4.470120635563    -1.698787244402     0.224547100482     1.007825032230
         H            4.412049364437    -1.697745244402     0.742873100482     1.007825032230

  Basis Set: AUG-CC-PVTZ
    Blend: AUG-CC-PVTZ
  Basis Set: (AUG-CC-PVTZ AUX)
    Blend: AUG-CC-PVTZ-JKFIT
	 Reference Energy          =    -538.4586890819555265 [Eh]
	 Singles Energy            =      -0.0000000000000000 [Eh]
	 Same-Spin Energy          =      -0.6095775222028519 [Eh]
	 Opposite-Spin Energy      =      -1.9385390729225744 [Eh]
	 Correlation Energy        =      -2.5481165951254265 [Eh]
	 Total Energy              =    -541.0068056770809335 [Eh]

	 ================> DF-SCS-MP2 Energies <==================
	-----------------------------------------------------------
	 SCS Same-Spin Scale       =       0.3333333333333333 [-]
	 SCS Opposite-Spin Scale   =       1.2000000000000000 [-]
	 SCS Same-Spin Energy      =      -0.2031925074009506 [Eh]
	 SCS Opposite-Spin Energy  =      -2.3262468875070894 [Eh]
	 SCS Correlation Energy    =      -2.5294393949080400 [Eh]
	 SCS Total Energy          =    -540.9881284768636078 [Eh]
	-----------------------------------------------------------

  Dipole Moment: [D]
     X:     0.0465      Y:     0.2846      Z:    -0.1258     Total:     0.3146

*** Psi4 exiting successfully. Buy a developer a beer!
