                               Psi4 1.3.2 release

  ==> Input File <==

--------------------------------------------------------------------------
#psi4
#
memory 32 gb

molecule  {
0 1
  C        0.0298960     1.2151600    -0.5253010
  C       -1.4217162     0.3362520    -0.2651186
  C        1.2387340     0.3598870    -0.1935000
  C        0.1038590     2.5478040     0.2258340
  C       -1.5567990    -0.6199760    -1.1655540
  C        2.3476650     0.3323920    -1.0476860
  C       -2.1272630     0.6989940     0.7661610
  C        1.2925180    -0.3667490     1.0043040
  C       -2.7057380    -1.3882370    -0.9902370
  C        3.4841570    -0.4112490    -0.7213440
  C       -3.2813200    -0.0705980     0.9462280
  C        2.4271420    -1.1078630     1.3345690
  C       -3.5735090    -1.1167760     0.0719390
  C        3.5283310    -1.1302700     0.4741930
  H        0.0764800     1.4411670    -1.6006990
  H        0.1404440     2.3872360     1.3072550
  H       -0.7568690     3.1831820    -0.0065830
  H        1.0165510     3.0793450    -0.0591360
  H       -0.8776040    -0.8405290    -1.9883130
  H        2.3169530     0.8915480    -1.9822160
  H       -1.9259890     1.5154960     1.4543950
  H        0.4297020    -0.3695730     1.6680340
  H       -2.9244160    -2.2005870    -1.6797290
  H        4.3341360    -0.4274460    -1.3999430
  H       -3.9507500     0.1497620     1.7748780
  H        2.4522940    -1.6709080     2.2649740
  H       -4.4717450    -1.7133490     0.2118480
  H        4.4104250    -1.7123070     0.7301740
units angstrom
no_reorient  #important for SAPT in psi4, default
symmetry c1  #important for SAPT in psi4, default
}

set PROPERTIES_ORIGIN ["COM"]
properties('MP2/aug-cc-pvtz', properties = ['dipole'])
--------------------------------------------------------------------------

    Molecular point group: c1
  Charge       = 0
  Multiplicity = 1
  Basis Set: AUG-CC-PVTZ
    Blend: AUG-CC-PVTZ
  Basis Set: (AUG-CC-PVTZ AUX)
    Blend: AUG-CC-PVTZ-JKFIT

    Orbital Energies [Eh]
    ---------------------

    Doubly Occupied:

       1A    -11.243768     2A    -11.237672     3A    -11.237125
       4A    -11.237103     5A    -11.233436     6A    -11.232727
       7A    -11.231855     8A    -11.230772     9A    -11.229423
      10A    -11.229231    11A    -11.226914    12A    -11.223922
      13A    -11.222515    14A    -11.216984    15A     -1.175887
      16A     -1.148178    17A     -1.066850    18A     -1.026944
      19A     -1.011761    20A     -1.007414    21A     -0.974719
      22A     -0.863963    23A     -0.833766    24A     -0.822658
      25A     -0.809425    26A     -0.770192    27A     -0.704358
      28A     -0.685858    29A     -0.642395    30A     -0.636475
      31A     -0.630274    32A     -0.617426    33A     -0.598519
      34A     -0.590557    35A     -0.580690    36A     -0.571828
      37A     -0.544179    38A     -0.530883    39A     -0.517361
      40A     -0.512705    41A     -0.504394    42A     -0.492070
      43A     -0.478170    44A     -0.471073    45A     -0.416568
      46A     -0.344984    47A     -0.341186    48A     -0.331903
      49A     -0.316472

  @DF-RHF Final Energy:  -538.44974013261140

   => Energetics <=

    Nuclear Repulsion Energy =            807.7041061538244549
    One-Electron Energy =               -2330.6966288092135073
    Two-Electron Energy =                 984.5427825227777703
    Total Energy =                       -538.4497401326113959
  Basis Set: (AUG-CC-PVTZ AUX)
    Blend: AUG-CC-PVTZ-RI
    Molecular point group: c1

    Geometry (in Angstrom), charge = 0, multiplicity = 1:

       Center              X                  Y                   Z               Mass
    ------------   -----------------  -----------------  -----------------  -----------------
         C            0.042508170376     1.242136379622    -0.523512108209    12.000000000000
         C           -1.409104029624     0.363228379622    -0.263329708209    12.000000000000
         C            1.251346170376     0.386863379622    -0.191711108209    12.000000000000
         C            0.116471170376     2.574780379622     0.227622891791    12.000000000000
         C           -1.544186829624    -0.592999620378    -1.163765108209    12.000000000000
         C            2.360277170376     0.359368379622    -1.045897108209    12.000000000000
         C           -2.114650829624     0.725970379622     0.767949891791    12.000000000000
         C            1.305130170376    -0.339772620378     1.006092891791    12.000000000000
         C           -2.693125829624    -1.361260620378    -0.988448108209    12.000000000000
         C            3.496769170376    -0.384272620378    -0.719555108209    12.000000000000
         C           -3.268707829624    -0.043621620378     0.948016891791    12.000000000000
         C            2.439754170376    -1.080886620378     1.336357891791    12.000000000000
         C           -3.560896829624    -1.089799620378     0.073727891791    12.000000000000
         C            3.540943170376    -1.103293620378     0.475981891791    12.000000000000
         H            0.089092170376     1.468143379622    -1.598910108209     1.007825032230
         H            0.153056170376     2.414212379622     1.309043891791     1.007825032230
         H           -0.744256829624     3.210158379622    -0.004794108209     1.007825032230
         H            1.029163170376     3.106321379622    -0.057347108209     1.007825032230
         H           -0.864991829624    -0.813552620378    -1.986524108209     1.007825032230
         H            2.329565170376     0.918524379622    -1.980427108209     1.007825032230
         H           -1.913376829624     1.542472379622     1.456183891791     1.007825032230
         H            0.442314170376    -0.342596620378     1.669822891791     1.007825032230
         H           -2.911803829624    -2.173610620378    -1.677940108209     1.007825032230
         H            4.346748170376    -0.400469620378    -1.398154108209     1.007825032230
         H           -3.938137829624     0.176738379622     1.776666891791     1.007825032230
         H            2.464906170376    -1.643931620378     2.266762891791     1.007825032230
         H           -4.459132829624    -1.686372620378     0.213636891791     1.007825032230
         H            4.423037170376    -1.685330620378     0.731962891791     1.007825032230

  Basis Set: AUG-CC-PVTZ
    Blend: AUG-CC-PVTZ
  Basis Set: (AUG-CC-PVTZ AUX)
    Blend: AUG-CC-PVTZ-JKFIT
	 Reference Energy          =    -538.4497401326113959 [Eh]
	 Singles Energy            =      -0.0000000000000000 [Eh]
	 Same-Spin Energy          =      -0.6101389046446111 [Eh]
	 Opposite-Spin Energy      =      -1.9382369833198481 [Eh]
	 Correlation Energy        =      -2.5483758879644594 [Eh]
	 Total Energy              =    -540.9981160205758215 [Eh]

	 ================> DF-SCS-MP2 Energies <==================
	-----------------------------------------------------------
	 SCS Same-Spin Scale       =       0.3333333333333333 [-]
	 SCS Opposite-Spin Scale   =       1.2000000000000000 [-]
	 SCS Same-Spin Energy      =      -0.2033796348815370 [Eh]
	 SCS Opposite-Spin Energy  =      -2.3258843799838176 [Eh]
	 SCS Correlation Energy    =      -2.5292640148653547 [Eh]
	 SCS Total Energy          =    -540.9790041474767577 [Eh]
	-----------------------------------------------------------

  Dipole Moment: [D]
     X:    -0.2535      Y:     0.1260      Z:    -0.0670     Total:     0.2909

*** Psi4 exiting successfully. Buy a developer a beer!
