                               Psi4 1.3.2 release

  ==> Input File <==

--------------------------------------------------------------------------
#psi4
#
memory 32 gb

molecule  {
0 1
  C        0.0298960     1.2151600    -0.5253010
  C       -1.1680539     0.4898370    -0.3105842
  C        1.2387340     0.3598870    -0.1935000
  C        0.1038590     2.5478040     0.2258340
  C       -1.5567990    -0.6199760    -1.1655540
  C        2.3476650     0.3323920    -1.0476860
  C       -2.1272630     0.6989940     0.7661610
  C        1.2925180    -0.3667490     1.0043040
  C       -2.7057380    -1.3882370    -0.9902370
  C        3.4841570    -0.4112490    -0.7213440
  C       -3.2813200    -0.0705980     0.9462280
  C        2.4271420    -1.1078630     1.3345690
  C       -3.5735090    -1.1167760     0.0719390
  C        3.5283310    -1.1302700     0.4741930
  H        0.0764800     1.4411670    -1.6006990
  H        0.1404440     2.3872360     1.3072550
  H       -0.7568690     3.1831820    -0.0065830
  H        1.0165510     3.0793450    -0.0591360
  H       -0.8776040    -0.8405290    -1.9883130
  H        2.3169530     0.8915480    -1.9822160
  H       -1.9259890     1.5154960     1.4543950
  H        0.4297020    -0.3695730     1.6680340
  H       -2.9244160    -2.2005870    -1.6797290
  H        4.3341360    -0.4274460    -1.3999430
  H       -3.9507500     0.1497620     1.7748780
  H        2.4522940    -1.6709080     2.2649740
  H       -4.4717450    -1.7133490     0.2118480
  H        4.4104250    -1.7123070     0.7301740
units angstrom
no_reorient  #important for SAPT in psi4, default
symmetry c1  #important for SAPT in psi4, default
}

set PROPERTIES_ORIGIN ["COM"]
properties('MP2/aug-cc-pvtz', properties = ['dipole'])
--------------------------------------------------------------------------

    Molecular point group: c1
  Charge       = 0
  Multiplicity = 1
  Basis Set: AUG-CC-PVTZ
    Blend: AUG-CC-PVTZ
  Basis Set: (AUG-CC-PVTZ AUX)
    Blend: AUG-CC-PVTZ-JKFIT

    Orbital Energies [Eh]
    ---------------------

    Doubly Occupied:

       1A    -11.248627     2A    -11.242405     3A    -11.239706
       4A    -11.237586     5A    -11.236207     6A    -11.235901
       7A    -11.235451     8A    -11.235125     9A    -11.234499
      10A    -11.233150    11A    -11.232386    12A    -11.232355
      13A    -11.230423    14A    -11.221682    15A     -1.167286
      16A     -1.139298    17A     -1.091419    18A     -1.012195
      19A     -1.006975    20A     -1.004645    21A     -0.972734
      22A     -0.887130    23A     -0.830074    24A     -0.816983
      25A     -0.812701    26A     -0.768395    27A     -0.700725
      28A     -0.687589    29A     -0.654818    30A     -0.641365
      31A     -0.622761    32A     -0.613422    33A     -0.598385
      34A     -0.590375    35A     -0.581488    36A     -0.575323
      37A     -0.548635    38A     -0.531615    39A     -0.515938
      40A     -0.509722    41A     -0.495502    42A     -0.489532
      43A     -0.483099    44A     -0.472801    45A     -0.458077
      46A     -0.338575    47A     -0.334389    48A     -0.331602
      49A     -0.307062

  @DF-RHF Final Energy:  -538.47180981344127

   => Energetics <=

    Nuclear Repulsion Energy =            807.6123075135933504
    One-Electron Energy =               -2330.3919595367747206
    Two-Electron Energy =                 984.3078422097401017
    Total Energy =                       -538.4718098134412685
  Basis Set: (AUG-CC-PVTZ AUX)
    Blend: AUG-CC-PVTZ-RI
    Molecular point group: c1

    Geometry (in Angstrom), charge = 0, multiplicity = 1:

       Center              X                  Y                   Z               Mass
    ------------   -----------------  -----------------  -----------------  -----------------
         C            0.025793244704     1.232015987828    -0.520516179666    12.000000000000
         C           -1.172156655296     0.506692987828    -0.305799379666    12.000000000000
         C            1.234631244704     0.376742987828    -0.188715179666    12.000000000000
         C            0.099756244704     2.564659987828     0.230618820334    12.000000000000
         C           -1.560901755296    -0.603120012172    -1.160769179666    12.000000000000
         C            2.343562244704     0.349247987828    -1.042901179666    12.000000000000
         C           -2.131365755296     0.715849987828     0.770945820334    12.000000000000
         C            1.288415244704    -0.349893012172     1.009088820334    12.000000000000
         C           -2.709840755296    -1.371381012172    -0.985452179666    12.000000000000
         C            3.480054244704    -0.394393012172    -0.716559179666    12.000000000000
         C           -3.285422755296    -0.053742012172     0.951012820334    12.000000000000
         C            2.423039244704    -1.091007012172     1.339353820334    12.000000000000
         C           -3.577611755296    -1.099920012172     0.076723820334    12.000000000000
         C            3.524228244704    -1.113414012172     0.478977820334    12.000000000000
         H            0.072377244704     1.458022987828    -1.595914179666     1.007825032230
         H            0.136341244704     2.404091987828     1.312039820334     1.007825032230
         H           -0.760971755296     3.200037987828    -0.001798179666     1.007825032230
         H            1.012448244704     3.096200987828    -0.054351179666     1.007825032230
         H           -0.881706755296    -0.823673012172    -1.983528179666     1.007825032230
         H            2.312850244704     0.908403987828    -1.977431179666     1.007825032230
         H           -1.930091755296     1.532351987828     1.459179820334     1.007825032230
         H            0.425599244704    -0.352717012172     1.672818820334     1.007825032230
         H           -2.928518755296    -2.183731012172    -1.674944179666     1.007825032230
         H            4.330033244704    -0.410590012172    -1.395158179666     1.007825032230
         H           -3.954852755296     0.166617987828     1.779662820334     1.007825032230
         H            2.448191244704    -1.654052012172     2.269758820334     1.007825032230
         H           -4.475847755296    -1.696493012172     0.216632820334     1.007825032230
         H            4.406322244704    -1.695451012172     0.734958820334     1.007825032230

  Basis Set: AUG-CC-PVTZ
    Blend: AUG-CC-PVTZ
  Basis Set: (AUG-CC-PVTZ AUX)
    Blend: AUG-CC-PVTZ-JKFIT
	 Reference Energy          =    -538.4718098134412685 [Eh]
	 Singles Energy            =      -0.0000000000000000 [Eh]
	 Same-Spin Energy          =      -0.6117932933179758 [Eh]
	 Opposite-Spin Energy      =      -1.9411321690795964 [Eh]
	 Correlation Energy        =      -2.5529254623975723 [Eh]
	 Total Energy              =    -541.0247352758387933 [Eh]

	 ================> DF-SCS-MP2 Energies <==================
	-----------------------------------------------------------
	 SCS Same-Spin Scale       =       0.3333333333333333 [-]
	 SCS Opposite-Spin Scale   =       1.2000000000000000 [-]
	 SCS Same-Spin Energy      =      -0.2039310977726586 [Eh]
	 SCS Opposite-Spin Energy  =      -2.3293586028955158 [Eh]
	 SCS Correlation Energy    =      -2.5332897006681745 [Eh]
	 SCS Total Energy          =    -541.0050995141094745 [Eh]
	-----------------------------------------------------------

  Dipole Moment: [D]
     X:     0.1997      Y:     0.2413      Z:    -0.0627     Total:     0.3195

*** Psi4 exiting successfully. Buy a developer a beer!
