                               Psi4 1.3.2 release

  ==> Input File <==

--------------------------------------------------------------------------
#psi4
#
memory 32 gb

molecule  {
0 1
  C        0.0298960     1.2151600    -0.5253010
  C       -1.1930727     0.3564651    -0.2652465
  C        1.2387340     0.3598870    -0.1935000
  C        0.1038590     2.5478040     0.2258340
  C       -1.5567990    -0.6199760    -1.1655540
  C        2.3476650     0.3323920    -1.0476860
  C       -2.1272630     0.6989940     0.7661610
  C        1.2925180    -0.3667490     1.0043040
  C       -2.7057380    -1.3882370    -0.9902370
  C        3.4841570    -0.4112490    -0.7213440
  C       -3.2813200    -0.0705980     0.9462280
  C        2.4271420    -1.1078630     1.3345690
  C       -3.5735090    -1.1167760     0.0719390
  C        3.5283310    -1.1302700     0.4741930
  H        0.0764800     1.4411670    -1.6006990
  H        0.1404440     2.3872360     1.3072550
  H       -0.7568690     3.1831820    -0.0065830
  H        1.0165510     3.0793450    -0.0591360
  H       -0.8776040    -0.8405290    -1.9883130
  H        2.3169530     0.8915480    -1.9822160
  H       -1.9259890     1.5154960     1.4543950
  H        0.4297020    -0.3695730     1.6680340
  H       -2.9244160    -2.2005870    -1.6797290
  H        4.3341360    -0.4274460    -1.3999430
  H       -3.9507500     0.1497620     1.7748780
  H        2.4522940    -1.6709080     2.2649740
  H       -4.4717450    -1.7133490     0.2118480
  H        4.4104250    -1.7123070     0.7301740
units angstrom
no_reorient  #important for SAPT in psi4, default
symmetry c1  #important for SAPT in psi4, default
}

set PROPERTIES_ORIGIN ["COM"]
properties('MP2/aug-cc-pvtz', properties = ['dipole'])
--------------------------------------------------------------------------

    Molecular point group: c1
  Charge       = 0
  Multiplicity = 1
  Basis Set: AUG-CC-PVTZ
    Blend: AUG-CC-PVTZ
  Basis Set: (AUG-CC-PVTZ AUX)
    Blend: AUG-CC-PVTZ-JKFIT

    Orbital Energies [Eh]
    ---------------------

    Doubly Occupied:

       1A    -11.243509     2A    -11.242080     3A    -11.239100
       4A    -11.235786     5A    -11.235404     6A    -11.234763
       7A    -11.234552     8A    -11.234204     9A    -11.231863
      10A    -11.230889    11A    -11.230654    12A    -11.228624
      13A    -11.227873    14A    -11.221523    15A     -1.164891
      16A     -1.143301    17A     -1.081957    18A     -1.012718
      19A     -1.010755    20A     -1.004153    21A     -0.975129
      22A     -0.878480    23A     -0.828158    24A     -0.818796
      25A     -0.812281    26A     -0.770032    27A     -0.698999
      28A     -0.687978    29A     -0.649613    30A     -0.636158
      31A     -0.624776    32A     -0.613348    33A     -0.595195
      34A     -0.588560    35A     -0.581980    36A     -0.578619
      37A     -0.547856    38A     -0.531418    39A     -0.513931
      40A     -0.506216    41A     -0.495660    42A     -0.491387
      43A     -0.480020    44A     -0.474041    45A     -0.459305
      46A     -0.342237    47A     -0.333439    48A     -0.330822
      49A     -0.311924

  @DF-RHF Final Energy:  -538.48254922914020

   => Energetics <=

    Nuclear Repulsion Energy =            808.0266345972629551
    One-Electron Energy =               -2331.3284533149017079
    Two-Electron Energy =                 984.8192694884985485
    Total Energy =                       -538.4825492291402043
  Basis Set: (AUG-CC-PVTZ AUX)
    Blend: AUG-CC-PVTZ-RI
    Molecular point group: c1

    Geometry (in Angstrom), charge = 0, multiplicity = 1:

       Center              X                  Y                   Z               Mass
    ------------   -----------------  -----------------  -----------------  -----------------
         C            0.027441843579     1.240804449477    -0.523503680315    12.000000000000
         C           -1.195526856421     0.382109549477    -0.263449180315    12.000000000000
         C            1.236279843579     0.385531449477    -0.191702680315    12.000000000000
         C            0.101404843579     2.573448449477     0.227631319685    12.000000000000
         C           -1.559253156421    -0.594331550523    -1.163756680315    12.000000000000
         C            2.345210843579     0.358036449477    -1.045888680315    12.000000000000
         C           -2.129717156421     0.724638449477     0.767958319685    12.000000000000
         C            1.290063843579    -0.341104550523     1.006101319685    12.000000000000
         C           -2.708192156421    -1.362592550523    -0.988439680315    12.000000000000
         C            3.481702843579    -0.385604550523    -0.719546680315    12.000000000000
         C           -3.283774156421    -0.044953550523     0.948025319685    12.000000000000
         C            2.424687843579    -1.082218550523     1.336366319685    12.000000000000
         C           -3.575963156421    -1.091131550523     0.073736319685    12.000000000000
         C            3.525876843579    -1.104625550523     0.475990319685    12.000000000000
         H            0.074025843579     1.466811449477    -1.598901680315     1.007825032230
         H            0.137989843579     2.412880449477     1.309052319685     1.007825032230
         H           -0.759323156421     3.208826449477    -0.004785680315     1.007825032230
         H            1.014096843579     3.104989449477    -0.057338680315     1.007825032230
         H           -0.880058156421    -0.814884550523    -1.986515680315     1.007825032230
         H            2.314498843579     0.917192449477    -1.980418680315     1.007825032230
         H           -1.928443156421     1.541140449477     1.456192319685     1.007825032230
         H            0.427247843579    -0.343928550523     1.669831319685     1.007825032230
         H           -2.926870156421    -2.174942550523    -1.677931680315     1.007825032230
         H            4.331681843579    -0.401801550523    -1.398145680315     1.007825032230
         H           -3.953204156421     0.175406449477     1.776675319685     1.007825032230
         H            2.449839843579    -1.645263550523     2.266771319685     1.007825032230
         H           -4.474199156421    -1.687704550523     0.213645319685     1.007825032230
         H            4.407970843579    -1.686662550523     0.731971319685     1.007825032230

  Basis Set: AUG-CC-PVTZ
    Blend: AUG-CC-PVTZ
  Basis Set: (AUG-CC-PVTZ AUX)
    Blend: AUG-CC-PVTZ-JKFIT
	 Reference Energy          =    -538.4825492291402043 [Eh]
	 Singles Energy            =      -0.0000000000000000 [Eh]
	 Same-Spin Energy          =      -0.6104997814882257 [Eh]
	 Opposite-Spin Energy      =      -1.9390606317170995 [Eh]
	 Correlation Energy        =      -2.5495604132053251 [Eh]
	 Total Energy              =    -541.0321096423455174 [Eh]

	 ================> DF-SCS-MP2 Energies <==================
	-----------------------------------------------------------
	 SCS Same-Spin Scale       =       0.3333333333333333 [-]
	 SCS Opposite-Spin Scale   =       1.2000000000000000 [-]
	 SCS Same-Spin Energy      =      -0.2034999271627419 [Eh]
	 SCS Opposite-Spin Energy  =      -2.3268727580605195 [Eh]
	 SCS Correlation Energy    =      -2.5303726852232615 [Eh]
	 SCS Total Energy          =    -541.0129219143634600 [Eh]
	-----------------------------------------------------------

  Dipole Moment: [D]
     X:     0.0108      Y:     0.2650      Z:    -0.0769     Total:     0.2761

*** Psi4 exiting successfully. Buy a developer a beer!
