                               Psi4 1.3.2 release

  ==> Input File <==

--------------------------------------------------------------------------
#psi4
#
memory 32 gb

molecule  {
0 1
  C        0.0298960     1.2151600    -0.5253010
  C       -1.2526080     0.4386420    -0.2954290
  C        1.2387340     0.3598870    -0.1935000
  C        0.1038590     2.5478040     0.2258340
  C       -1.5567990    -0.6199760    -1.1655540
  C        2.3476650     0.3323920    -1.0476860
  C       -2.2522208     0.7361893     0.9178253
  C        1.2925180    -0.3667490     1.0043040
  C       -2.7057380    -1.3882370    -0.9902370
  C        3.4841570    -0.4112490    -0.7213440
  C       -3.2813200    -0.0705980     0.9462280
  C        2.4271420    -1.1078630     1.3345690
  C       -3.5735090    -1.1167760     0.0719390
  C        3.5283310    -1.1302700     0.4741930
  H        0.0764800     1.4411670    -1.6006990
  H        0.1404440     2.3872360     1.3072550
  H       -0.7568690     3.1831820    -0.0065830
  H        1.0165510     3.0793450    -0.0591360
  H       -0.8776040    -0.8405290    -1.9883130
  H        2.3169530     0.8915480    -1.9822160
  H       -1.9259890     1.5154960     1.4543950
  H        0.4297020    -0.3695730     1.6680340
  H       -2.9244160    -2.2005870    -1.6797290
  H        4.3341360    -0.4274460    -1.3999430
  H       -3.9507500     0.1497620     1.7748780
  H        2.4522940    -1.6709080     2.2649740
  H       -4.4717450    -1.7133490     0.2118480
  H        4.4104250    -1.7123070     0.7301740
units angstrom
no_reorient  #important for SAPT in psi4, default
symmetry c1  #important for SAPT in psi4, default
}

set PROPERTIES_ORIGIN ["COM"]
properties('MP2/aug-cc-pvtz', properties = ['dipole'])
--------------------------------------------------------------------------

    Molecular point group: c1
  Charge       = 0
  Multiplicity = 1
  Basis Set: AUG-CC-PVTZ
    Blend: AUG-CC-PVTZ
  Basis Set: (AUG-CC-PVTZ AUX)
    Blend: AUG-CC-PVTZ-JKFIT

    Orbital Energies [Eh]
    ---------------------

    Doubly Occupied:

       1A    -11.257194     2A    -11.244453     3A    -11.240819
       4A    -11.238083     5A    -11.235421     6A    -11.234655
       7A    -11.234166     8A    -11.231989     9A    -11.231364
      10A    -11.231302    11A    -11.229435    12A    -11.227984
      13A    -11.227202    14A    -11.221837    15A     -1.160234
      16A     -1.140515    17A     -1.082307    18A     -1.027619
      19A     -1.010854    20A     -0.997883    21A     -0.970979
      22A     -0.880737    23A     -0.827933    24A     -0.821137
      25A     -0.809228    26A     -0.767660    27A     -0.703660
      28A     -0.692169    29A     -0.651129    30A     -0.643328
      31A     -0.632822    32A     -0.606985    33A     -0.594556
      34A     -0.591366    35A     -0.581655    36A     -0.574881
      37A     -0.552320    38A     -0.539114    39A     -0.512885
      40A     -0.507869    41A     -0.493900    42A     -0.486602
      43A     -0.480680    44A     -0.474922    45A     -0.439374
      46A     -0.353974    47A     -0.334428    48A     -0.329635
      49A     -0.301460

  @DF-RHF Final Energy:  -538.44657748354223

   => Energetics <=

    Nuclear Repulsion Energy =            804.5600254507373847
    One-Electron Energy =               -2324.2877992067806190
    Two-Electron Energy =                 981.2811962725010062
    Total Energy =                       -538.4465774835422280
  Basis Set: (AUG-CC-PVTZ AUX)
    Blend: AUG-CC-PVTZ-RI
    Molecular point group: c1

    Geometry (in Angstrom), charge = 0, multiplicity = 1:

       Center              X                  Y                   Z               Mass
    ------------   -----------------  -----------------  -----------------  -----------------
         C            0.039598906152     1.232938489694    -0.531508650929    12.000000000000
         C           -1.242905093848     0.456420489694    -0.301636650929    12.000000000000
         C            1.248436906152     0.377665489694    -0.199707650929    12.000000000000
         C            0.113561906152     2.565582489694     0.219626349071    12.000000000000
         C           -1.547096093848    -0.602197510306    -1.171761650929    12.000000000000
         C            2.357367906152     0.350170489694    -1.053893650929    12.000000000000
         C           -2.242517893848     0.753967789694     0.911617649071    12.000000000000
         C            1.302220906152    -0.348970510306     0.998096349071    12.000000000000
         C           -2.696035093848    -1.370458510306    -0.996444650929    12.000000000000
         C            3.493859906152    -0.393470510306    -0.727551650929    12.000000000000
         C           -3.271617093848    -0.052819510306     0.940020349071    12.000000000000
         C            2.436844906152    -1.090084510306     1.328361349071    12.000000000000
         C           -3.563806093848    -1.098997510306     0.065731349071    12.000000000000
         C            3.538033906152    -1.112491510306     0.467985349071    12.000000000000
         H            0.086182906152     1.458945489694    -1.606906650929     1.007825032230
         H            0.150146906152     2.405014489694     1.301047349071     1.007825032230
         H           -0.747166093848     3.200960489694    -0.012790650929     1.007825032230
         H            1.026253906152     3.097123489694    -0.065343650929     1.007825032230
         H           -0.867901093848    -0.822750510306    -1.994520650929     1.007825032230
         H            2.326655906152     0.909326489694    -1.988423650929     1.007825032230
         H           -1.916286093848     1.533274489694     1.448187349071     1.007825032230
         H            0.439404906152    -0.351794510306     1.661826349071     1.007825032230
         H           -2.914713093848    -2.182808510306    -1.685936650929     1.007825032230
         H            4.343838906152    -0.409667510306    -1.406150650929     1.007825032230
         H           -3.941047093848     0.167540489694     1.768670349071     1.007825032230
         H            2.461996906152    -1.653129510306     2.258766349071     1.007825032230
         H           -4.462042093848    -1.695570510306     0.205640349071     1.007825032230
         H            4.420127906152    -1.694528510306     0.723966349071     1.007825032230

  Basis Set: AUG-CC-PVTZ
    Blend: AUG-CC-PVTZ
  Basis Set: (AUG-CC-PVTZ AUX)
    Blend: AUG-CC-PVTZ-JKFIT
	 Reference Energy          =    -538.4465774835422280 [Eh]
	 Singles Energy            =      -0.0000000000000000 [Eh]
	 Same-Spin Energy          =      -0.6098055559169653 [Eh]
	 Opposite-Spin Energy      =      -1.9403754719565107 [Eh]
	 Correlation Energy        =      -2.5501810278734762 [Eh]
	 Total Energy              =    -540.9967585114156918 [Eh]

	 ================> DF-SCS-MP2 Energies <==================
	-----------------------------------------------------------
	 SCS Same-Spin Scale       =       0.3333333333333333 [-]
	 SCS Opposite-Spin Scale   =       1.2000000000000000 [-]
	 SCS Same-Spin Energy      =      -0.2032685186389884 [Eh]
	 SCS Opposite-Spin Energy  =      -2.3284505663478128 [Eh]
	 SCS Correlation Energy    =      -2.5317190849868014 [Eh]
	 SCS Total Energy          =    -540.9782965685290037 [Eh]
	-----------------------------------------------------------

  Dipole Moment: [D]
     X:     0.0806      Y:     0.2300      Z:    -0.0890     Total:     0.2594

*** Psi4 exiting successfully. Buy a developer a beer!
