                               Psi4 1.4a3.dev225

  ==> Input File <==

--------------------------------------------------------------------------
#psi4
#
memory 32 gb

molecule  {
0 1
  C        0.0298960     1.2151600    -0.5253010
  C       -1.2526080     0.4386420    -0.2954290
  C        1.2387340     0.3598870    -0.1935000
  C        0.1038590     2.5478040     0.2258340
  C       -1.5567990    -0.6199760    -1.1655540
  C        2.3476650     0.3323920    -1.0476860
  C       -2.1397588     0.7027135     0.7813274
  C        1.2925180    -0.3667490     1.0043040
  C       -2.7057380    -1.3882370    -0.9902370
  C        3.4841570    -0.4112490    -0.7213440
  C       -3.2813200    -0.0705980     0.9462280
  C        2.4271420    -1.1078630     1.3345690
  C       -3.5735090    -1.1167760     0.0719390
  C        3.5283310    -1.1302700     0.4741930
  H        0.0764800     1.4411670    -1.6006990
  H        0.1404440     2.3872360     1.3072550
  H       -0.7568690     3.1831820    -0.0065830
  H        1.0165510     3.0793450    -0.0591360
  H       -0.8776040    -0.8405290    -1.9883130
  H        2.3169530     0.8915480    -1.9822160
  H       -1.9259890     1.5154960     1.4543950
  H        0.4297020    -0.3695730     1.6680340
  H       -2.9244160    -2.2005870    -1.6797290
  H        4.3341360    -0.4274460    -1.3999430
  H       -3.9507500     0.1497620     1.7748780
  H        2.4522940    -1.6709080     2.2649740
  H       -4.4717450    -1.7133490     0.2118480
  H        4.4104250    -1.7123070     0.7301740
units angstrom
no_reorient  #important for SAPT in psi4, default
symmetry c1  #important for SAPT in psi4, default
}

set PROPERTIES_ORIGIN ["COM"]
properties('MP2/aug-cc-pvtz', properties = ['dipole'])
--------------------------------------------------------------------------

    Molecular point group: c1
  Charge       = 0
  Multiplicity = 1
  Basis Set: AUG-CC-PVTZ
    Blend: AUG-CC-PVTZ
  Basis Set: (AUG-CC-PVTZ AUX)
    Blend: AUG-CC-PVTZ-JKFIT

    Orbital Energies [Eh]
    ---------------------

    Doubly Occupied:

       1A    -11.243720     2A    -11.243078     3A    -11.240319
       4A    -11.235521     5A    -11.235268     6A    -11.234831
       7A    -11.234521     8A    -11.232039     9A    -11.231855
      10A    -11.231760    11A    -11.231297    12A    -11.230382
      13A    -11.229211    14A    -11.220264    15A     -1.163749
      16A     -1.143458    17A     -1.081660    18A     -1.013310
      19A     -1.011002    20A     -1.004896    21A     -0.974566
      22A     -0.877687    23A     -0.828209    24A     -0.818317
      25A     -0.814234    26A     -0.769853    27A     -0.700263
      28A     -0.688139    29A     -0.647913    30A     -0.637691
      31A     -0.624835    32A     -0.613951    33A     -0.595735
      34A     -0.589821    35A     -0.582330    36A     -0.577775
      37A     -0.547470    38A     -0.532108    39A     -0.513833
      40A     -0.506853    41A     -0.494189    42A     -0.491276
      43A     -0.476062    44A     -0.473750    45A     -0.465235
      46A     -0.340024    47A     -0.334373    48A     -0.333000
      49A     -0.312325

  @DF-RHF Final Energy:  -538.48767405720309

   => Energetics <=

    Nuclear Repulsion Energy =            807.1834152733689507
    One-Electron Energy =               -2329.6342585889628936
    Two-Electron Energy =                 983.9631692583907352
    Total Energy =                       -538.4876740572030940
  Basis Set: (AUG-CC-PVTZ AUX)
    Blend: AUG-CC-PVTZ-RI
    Molecular point group: c1

    Geometry (in Angstrom), charge = 0, multiplicity = 1:

       Center              X                  Y                   Z               Mass
    ------------   -----------------  -----------------  -----------------  -----------------
         C            0.032188289868     1.235144357530    -0.522514203379    12.000000000000
         C           -1.250315710132     0.458626357530    -0.292642203379    12.000000000000
         C            1.241026289868     0.379871357530    -0.190713203379    12.000000000000
         C            0.106151289868     2.567788357530     0.228620796621    12.000000000000
         C           -1.554506710132    -0.599991642470    -1.162767203379    12.000000000000
         C            2.349957289868     0.352376357530    -1.044899203379    12.000000000000
         C           -2.137466510132     0.722697857530     0.784114196621    12.000000000000
         C            1.294810289868    -0.346764642470     1.007090796621    12.000000000000
         C           -2.703445710132    -1.368252642470    -0.987450203379    12.000000000000
         C            3.486449289868    -0.391264642470    -0.718557203379    12.000000000000
         C           -3.279027710132    -0.050613642470     0.949014796621    12.000000000000
         C            2.429434289868    -1.087878642470     1.337355796621    12.000000000000
         C           -3.571216710132    -1.096791642470     0.074725796621    12.000000000000
         C            3.530623289868    -1.110285642470     0.476979796621    12.000000000000
         H            0.078772289868     1.461151357530    -1.597912203379     1.007825032230
         H            0.142736289868     2.407220357530     1.310041796621     1.007825032230
         H           -0.754576710132     3.203166357530    -0.003796203379     1.007825032230
         H            1.018843289868     3.099329357530    -0.056349203379     1.007825032230
         H           -0.875311710132    -0.820544642470    -1.985526203379     1.007825032230
         H            2.319245289868     0.911532357530    -1.979429203379     1.007825032230
         H           -1.923696710132     1.535480357530     1.457181796621     1.007825032230
         H            0.431994289868    -0.349588642470     1.670820796621     1.007825032230
         H           -2.922123710132    -2.180602642470    -1.676942203379     1.007825032230
         H            4.336428289868    -0.407461642470    -1.397156203379     1.007825032230
         H           -3.948457710132     0.169746357530     1.777664796621     1.007825032230
         H            2.454586289868    -1.650923642470     2.267760796621     1.007825032230
         H           -4.469452710132    -1.693364642470     0.214634796621     1.007825032230
         H            4.412717289868    -1.692322642470     0.732960796621     1.007825032230

  Basis Set: AUG-CC-PVTZ
    Blend: AUG-CC-PVTZ
  Basis Set: (AUG-CC-PVTZ AUX)
    Blend: AUG-CC-PVTZ-JKFIT
	 Reference Energy          =    -538.4876740572030940 [Eh]
	 Singles Energy            =      -0.0000000000000000 [Eh]
	 Same-Spin Energy          =      -0.6100279318620708 [Eh]
	 Opposite-Spin Energy      =      -1.9381781273592793 [Eh]
	 Correlation Energy        =      -2.5482060592213500 [Eh]
	 Total Energy              =    -541.0358801164244369 [Eh]

	 ================> DF-SCS-MP2 Energies <==================
	-----------------------------------------------------------
	 SCS Same-Spin Scale       =       0.3333333333333333 [-]
	 SCS Opposite-Spin Scale   =       1.2000000000000000 [-]
	 SCS Same-Spin Energy      =      -0.2033426439540236 [Eh]
	 SCS Opposite-Spin Energy  =      -2.3258137528311349 [Eh]
	 SCS Correlation Energy    =      -2.5291563967851585 [Eh]
	 SCS Total Energy          =    -541.0168304539882911 [Eh]
	-----------------------------------------------------------

  Dipole Moment: [D]
     X:     0.0446      Y:     0.2080      Z:    -0.0672     Total:     0.2231

*** Psi4 exiting successfully. Buy a developer a beer!
