                               Psi4 1.4a3.dev225

  ==> Input File <==

--------------------------------------------------------------------------
#psi4
#
memory 32 gb

molecule  {
0 1
  C        0.0298960     1.2151600    -0.5253010
  C       -1.2526080     0.4386420    -0.2954290
  C        1.2387340     0.3598870    -0.1935000
  C        0.1062737     2.5913107     0.2503562
  C       -1.5567990    -0.6199760    -1.1655540
  C        2.3476650     0.3323920    -1.0476860
  C       -2.1272630     0.6989940     0.7661610
  C        1.2925180    -0.3667490     1.0043040
  C       -2.7057380    -1.3882370    -0.9902370
  C        3.4841570    -0.4112490    -0.7213440
  C       -3.2813200    -0.0705980     0.9462280
  C        2.4271420    -1.1078630     1.3345690
  C       -3.5735090    -1.1167760     0.0719390
  C        3.5283310    -1.1302700     0.4741930
  H        0.0764800     1.4411670    -1.6006990
  H        0.1404440     2.3872360     1.3072550
  H       -0.7568690     3.1831820    -0.0065830
  H        1.0165510     3.0793450    -0.0591360
  H       -0.8776040    -0.8405290    -1.9883130
  H        2.3169530     0.8915480    -1.9822160
  H       -1.9259890     1.5154960     1.4543950
  H        0.4297020    -0.3695730     1.6680340
  H       -2.9244160    -2.2005870    -1.6797290
  H        4.3341360    -0.4274460    -1.3999430
  H       -3.9507500     0.1497620     1.7748780
  H        2.4522940    -1.6709080     2.2649740
  H       -4.4717450    -1.7133490     0.2118480
  H        4.4104250    -1.7123070     0.7301740
units angstrom
no_reorient  #important for SAPT in psi4, default
symmetry c1  #important for SAPT in psi4, default
}

set PROPERTIES_ORIGIN ["COM"]
properties('MP2/aug-cc-pvtz', properties = ['dipole'])
--------------------------------------------------------------------------

    Molecular point group: c1
  Charge       = 0
  Multiplicity = 1
  Basis Set: AUG-CC-PVTZ
    Blend: AUG-CC-PVTZ
  Basis Set: (AUG-CC-PVTZ AUX)
    Blend: AUG-CC-PVTZ-JKFIT

    Orbital Energies [Eh]
    ---------------------

    Doubly Occupied:

       1A    -11.244977     2A    -11.241271     3A    -11.240195
       4A    -11.235720     5A    -11.235274     6A    -11.235195
       7A    -11.234456     8A    -11.232007     9A    -11.231660
      10A    -11.231565    11A    -11.231154    12A    -11.230524
      13A    -11.229012    14A    -11.218591    15A     -1.163246
      16A     -1.143800    17A     -1.077959    18A     -1.012216
      19A     -1.010563    20A     -1.005674    21A     -0.972771
      22A     -0.880103    23A     -0.828291    24A     -0.819237
      25A     -0.813519    26A     -0.769779    27A     -0.699720
      28A     -0.686941    29A     -0.646796    30A     -0.636964
      31A     -0.623206    32A     -0.614974    33A     -0.596995
      34A     -0.590867    35A     -0.581683    36A     -0.577533
      37A     -0.545804    38A     -0.534457    39A     -0.515554
      40A     -0.506868    41A     -0.494496    42A     -0.492231
      43A     -0.475468    44A     -0.470528    45A     -0.466324
      46A     -0.338939    47A     -0.334512    48A     -0.333020
      49A     -0.312918

  @DF-RHF Final Energy:  -538.48677843629559

   => Energetics <=

    Nuclear Repulsion Energy =            806.5302007076858217
    One-Electron Energy =               -2328.3428417707709741
    Two-Electron Energy =                 983.3258626267896716
    Total Energy =                       -538.4867784362955945
  Basis Set: (AUG-CC-PVTZ AUX)
    Blend: AUG-CC-PVTZ-RI
    Molecular point group: c1

    Geometry (in Angstrom), charge = 0, multiplicity = 1:

       Center              X                  Y                   Z               Mass
    ------------   -----------------  -----------------  -----------------  -----------------
         C            0.031205771381     1.232522603762    -0.523130698229    12.000000000000
         C           -1.251298228619     0.456004603762    -0.293258698229    12.000000000000
         C            1.240043771381     0.377249603762    -0.191329698229    12.000000000000
         C            0.107583471381     2.608673303762     0.252526501771    12.000000000000
         C           -1.555489228619    -0.602613396238    -1.163383698229    12.000000000000
         C            2.348974771381     0.349754603762    -1.045515698229    12.000000000000
         C           -2.125953228619     0.716356603762     0.768331301771    12.000000000000
         C            1.293827771381    -0.349386396238     1.006474301771    12.000000000000
         C           -2.704428228619    -1.370874396238    -0.988066698229    12.000000000000
         C            3.485466771381    -0.393886396238    -0.719173698229    12.000000000000
         C           -3.280010228619    -0.053235396238     0.948398301771    12.000000000000
         C            2.428451771381    -1.090500396238     1.336739301771    12.000000000000
         C           -3.572199228619    -1.099413396238     0.074109301771    12.000000000000
         C            3.529640771381    -1.112907396238     0.476363301771    12.000000000000
         H            0.077789771381     1.458529603762    -1.598528698229     1.007825032230
         H            0.141753771381     2.404598603762     1.309425301771     1.007825032230
         H           -0.755559228619     3.200544603762    -0.004412698229     1.007825032230
         H            1.017860771381     3.096707603762    -0.056965698229     1.007825032230
         H           -0.876294228619    -0.823166396238    -1.986142698229     1.007825032230
         H            2.318262771381     0.908910603762    -1.980045698229     1.007825032230
         H           -1.924679228619     1.532858603762     1.456565301771     1.007825032230
         H            0.431011771381    -0.352210396238     1.670204301771     1.007825032230
         H           -2.923106228619    -2.183224396238    -1.677558698229     1.007825032230
         H            4.335445771381    -0.410083396238    -1.397772698229     1.007825032230
         H           -3.949440228619     0.167124603762     1.777048301771     1.007825032230
         H            2.453603771381    -1.653545396238     2.267144301771     1.007825032230
         H           -4.470435228619    -1.695986396238     0.214018301771     1.007825032230
         H            4.411734771381    -1.694944396238     0.732344301771     1.007825032230

  Basis Set: AUG-CC-PVTZ
    Blend: AUG-CC-PVTZ
  Basis Set: (AUG-CC-PVTZ AUX)
    Blend: AUG-CC-PVTZ-JKFIT
	 Reference Energy          =    -538.4867784362955945 [Eh]
	 Singles Energy            =      -0.0000000000000000 [Eh]
	 Same-Spin Energy          =      -0.6097489855219572 [Eh]
	 Opposite-Spin Energy      =      -1.9379377750906039 [Eh]
	 Correlation Energy        =      -2.5476867606125611 [Eh]
	 Total Energy              =    -541.0344651969081724 [Eh]

	 ================> DF-SCS-MP2 Energies <==================
	-----------------------------------------------------------
	 SCS Same-Spin Scale       =       0.3333333333333333 [-]
	 SCS Opposite-Spin Scale   =       1.2000000000000000 [-]
	 SCS Same-Spin Energy      =      -0.2032496618406524 [Eh]
	 SCS Opposite-Spin Energy  =      -2.3255253301087246 [Eh]
	 SCS Correlation Energy    =      -2.5287749919493772 [Eh]
	 SCS Total Energy          =    -541.0155534282449707 [Eh]
	-----------------------------------------------------------

  Dipole Moment: [D]
     X:     0.0289      Y:     0.2016      Z:    -0.0705     Total:     0.2155

*** Psi4 exiting successfully. Buy a developer a beer!
