                               Psi4 1.4a3.dev225

  ==> Input File <==

--------------------------------------------------------------------------
#psi4
#
memory 32 gb

molecule  {
0 1
  C        0.0298960     1.2151600    -0.5253010
  C       -1.2526080     0.4386420    -0.2954290
  C        1.2387340     0.3598870    -0.1935000
  C        0.1038590     2.5478040     0.2258340
  C       -1.5567990    -0.6199760    -1.1655540
  C        2.3476650     0.3323920    -1.0476860
  C       -2.0960236     0.6896952     0.7282449
  C        1.2925180    -0.3667490     1.0043040
  C       -2.7057380    -1.3882370    -0.9902370
  C        3.4841570    -0.4112490    -0.7213440
  C       -3.2813200    -0.0705980     0.9462280
  C        2.4271420    -1.1078630     1.3345690
  C       -3.5735090    -1.1167760     0.0719390
  C        3.5283310    -1.1302700     0.4741930
  H        0.0764800     1.4411670    -1.6006990
  H        0.1404440     2.3872360     1.3072550
  H       -0.7568690     3.1831820    -0.0065830
  H        1.0165510     3.0793450    -0.0591360
  H       -0.8776040    -0.8405290    -1.9883130
  H        2.3169530     0.8915480    -1.9822160
  H       -1.9259890     1.5154960     1.4543950
  H        0.4297020    -0.3695730     1.6680340
  H       -2.9244160    -2.2005870    -1.6797290
  H        4.3341360    -0.4274460    -1.3999430
  H       -3.9507500     0.1497620     1.7748780
  H        2.4522940    -1.6709080     2.2649740
  H       -4.4717450    -1.7133490     0.2118480
  H        4.4104250    -1.7123070     0.7301740
units angstrom
no_reorient  #important for SAPT in psi4, default
symmetry c1  #important for SAPT in psi4, default
}

set PROPERTIES_ORIGIN ["COM"]
properties('MP2/aug-cc-pvtz', properties = ['dipole'])
--------------------------------------------------------------------------

    Molecular point group: c1
  Charge       = 0
  Multiplicity = 1
  Basis Set: AUG-CC-PVTZ
    Blend: AUG-CC-PVTZ
  Basis Set: (AUG-CC-PVTZ AUX)
    Blend: AUG-CC-PVTZ-JKFIT

    Orbital Energies [Eh]
    ---------------------

    Doubly Occupied:

       1A    -11.242759     2A    -11.240095     3A    -11.237978
       4A    -11.235329     5A    -11.235197     6A    -11.234864
       7A    -11.234474     8A    -11.232392     9A    -11.231778
      10A    -11.231264    11A    -11.231255    12A    -11.230667
      13A    -11.229144    14A    -11.219483    15A     -1.166715
      16A     -1.145092    17A     -1.081635    18A     -1.013278
      19A     -1.009092    20A     -1.006273    21A     -0.975934
      22A     -0.876692    23A     -0.829893    24A     -0.821290
      25A     -0.812023    26A     -0.769819    27A     -0.699841
      28A     -0.686906    29A     -0.647371    30A     -0.636987
      31A     -0.623971    32A     -0.617350    33A     -0.596416
      34A     -0.590444    35A     -0.580641    36A     -0.575276
      37A     -0.546424    38A     -0.528354    39A     -0.514473
      40A     -0.507118    41A     -0.495078    42A     -0.492466
      43A     -0.474111    44A     -0.473483    45A     -0.465408
      46A     -0.341066    47A     -0.334568    48A     -0.332940
      49A     -0.314717

  @DF-RHF Final Energy:  -538.48545050668451

   => Energetics <=

    Nuclear Repulsion Energy =            808.3046311565481119
    One-Electron Energy =               -2331.8805171484618768
    Two-Electron Energy =                 985.0904354852292499
    Total Energy =                       -538.4854505066845149
  Basis Set: (AUG-CC-PVTZ AUX)
    Blend: AUG-CC-PVTZ-RI
    Molecular point group: c1

    Geometry (in Angstrom), charge = 0, multiplicity = 1:

       Center              X                  Y                   Z               Mass
    ------------   -----------------  -----------------  -----------------  -----------------
         C            0.029306385000     1.236002190629    -0.519016363763    12.000000000000
         C           -1.253197615000     0.459484190629    -0.289144363763    12.000000000000
         C            1.238144385000     0.380729190629    -0.187215363763    12.000000000000
         C            0.103269385000     2.568646190629     0.232118636237    12.000000000000
         C           -1.557388615000    -0.599133809371    -1.159269363763    12.000000000000
         C            2.347075385000     0.353234190629    -1.041401363763    12.000000000000
         C           -2.096613215000     0.710537390629     0.734529536237    12.000000000000
         C            1.291928385000    -0.345906809371     1.010588636237    12.000000000000
         C           -2.706327615000    -1.367394809371    -0.983952363763    12.000000000000
         C            3.483567385000    -0.390406809371    -0.715059363763    12.000000000000
         C           -3.281909615000    -0.049755809371     0.952512636237    12.000000000000
         C            2.426552385000    -1.087020809371     1.340853636237    12.000000000000
         C           -3.574098615000    -1.095933809371     0.078223636237    12.000000000000
         C            3.527741385000    -1.109427809371     0.480477636237    12.000000000000
         H            0.075890385000     1.462009190629    -1.594414363763     1.007825032230
         H            0.139854385000     2.408078190629     1.313539636237     1.007825032230
         H           -0.757458615000     3.204024190629    -0.000298363763     1.007825032230
         H            1.015961385000     3.100187190629    -0.052851363763     1.007825032230
         H           -0.878193615000    -0.819686809371    -1.982028363763     1.007825032230
         H            2.316363385000     0.912390190629    -1.975931363763     1.007825032230
         H           -1.926578615000     1.536338190629     1.460679636237     1.007825032230
         H            0.429112385000    -0.348730809371     1.674318636237     1.007825032230
         H           -2.925005615000    -2.179744809371    -1.673444363763     1.007825032230
         H            4.333546385000    -0.406603809371    -1.393658363763     1.007825032230
         H           -3.951339615000     0.170604190629     1.781162636237     1.007825032230
         H            2.451704385000    -1.650065809371     2.271258636237     1.007825032230
         H           -4.472334615000    -1.692506809371     0.218132636237     1.007825032230
         H            4.409835385000    -1.691464809371     0.736458636237     1.007825032230

  Basis Set: AUG-CC-PVTZ
    Blend: AUG-CC-PVTZ
  Basis Set: (AUG-CC-PVTZ AUX)
    Blend: AUG-CC-PVTZ-JKFIT
	 Reference Energy          =    -538.4854505066845149 [Eh]
	 Singles Energy            =      -0.0000000000000000 [Eh]
	 Same-Spin Energy          =      -0.6099239985195541 [Eh]
	 Opposite-Spin Energy      =      -1.9381524258988234 [Eh]
	 Correlation Energy        =      -2.5480764244183778 [Eh]
	 Total Energy              =    -541.0335269311028696 [Eh]

	 ================> DF-SCS-MP2 Energies <==================
	-----------------------------------------------------------
	 SCS Same-Spin Scale       =       0.3333333333333333 [-]
	 SCS Opposite-Spin Scale   =       1.2000000000000000 [-]
	 SCS Same-Spin Energy      =      -0.2033079995065180 [Eh]
	 SCS Opposite-Spin Energy  =      -2.3257829110785879 [Eh]
	 SCS Correlation Energy    =      -2.5290909105851060 [Eh]
	 SCS Total Energy          =    -541.0145414172695837 [Eh]
	-----------------------------------------------------------

  Dipole Moment: [D]
     X:     0.0157      Y:     0.1882      Z:    -0.0599     Total:     0.1981

*** Psi4 exiting successfully. Buy a developer a beer!
