                               Psi4 1.4a3.dev225

  ==> Input File <==

--------------------------------------------------------------------------
#psi4
#
memory 32 gb

molecule  {
0 1
  C        0.0298960     1.2151600    -0.5253010
  C       -1.2526080     0.4386420    -0.2954290
  C        1.2387340     0.3598870    -0.1935000
  C        0.1038590     2.5478040     0.2258340
  C       -1.5567990    -0.6199760    -1.1655540
  C        2.3476650     0.3323920    -1.0476860
  C       -2.1585024     0.7082928     0.8040771
  C        1.2925180    -0.3667490     1.0043040
  C       -2.7057380    -1.3882370    -0.9902370
  C        3.4841570    -0.4112490    -0.7213440
  C       -3.2813200    -0.0705980     0.9462280
  C        2.4271420    -1.1078630     1.3345690
  C       -3.5735090    -1.1167760     0.0719390
  C        3.5283310    -1.1302700     0.4741930
  H        0.0764800     1.4411670    -1.6006990
  H        0.1404440     2.3872360     1.3072550
  H       -0.7568690     3.1831820    -0.0065830
  H        1.0165510     3.0793450    -0.0591360
  H       -0.8776040    -0.8405290    -1.9883130
  H        2.3169530     0.8915480    -1.9822160
  H       -1.9259890     1.5154960     1.4543950
  H        0.4297020    -0.3695730     1.6680340
  H       -2.9244160    -2.2005870    -1.6797290
  H        4.3341360    -0.4274460    -1.3999430
  H       -3.9507500     0.1497620     1.7748780
  H        2.4522940    -1.6709080     2.2649740
  H       -4.4717450    -1.7133490     0.2118480
  H        4.4104250    -1.7123070     0.7301740
units angstrom
no_reorient  #important for SAPT in psi4, default
symmetry c1  #important for SAPT in psi4, default
}

set PROPERTIES_ORIGIN ["COM"]
properties('MP2/aug-cc-pvtz', properties = ['dipole'])
--------------------------------------------------------------------------

    Molecular point group: c1
  Charge       = 0
  Multiplicity = 1
  Basis Set: AUG-CC-PVTZ
    Blend: AUG-CC-PVTZ
  Basis Set: (AUG-CC-PVTZ AUX)
    Blend: AUG-CC-PVTZ-JKFIT

    Orbital Energies [Eh]
    ---------------------

    Doubly Occupied:

       1A    -11.246512     2A    -11.243582     3A    -11.240419
       4A    -11.235847     5A    -11.235302     6A    -11.234549
       7A    -11.233715     8A    -11.232165     9A    -11.231891
      10A    -11.231561    11A    -11.231316    12A    -11.230004
      13A    -11.229251    14A    -11.220579    15A     -1.162857
      16A     -1.142816    17A     -1.081726    18A     -1.015532
      19A     -1.010987    20A     -1.003395    21A     -0.973949
      22A     -0.878176    23A     -0.827923    24A     -0.817805
      25A     -0.814160    26A     -0.769627    27A     -0.700570
      28A     -0.688777    29A     -0.648157    30A     -0.638146
      31A     -0.626113    32A     -0.612268    33A     -0.595454
      34A     -0.589645    35A     -0.583134    36A     -0.578089
      37A     -0.548068    38A     -0.533730    39A     -0.513601
      40A     -0.506979    41A     -0.494110    42A     -0.490322
      43A     -0.477269    44A     -0.473845    45A     -0.463001
      46A     -0.341750    47A     -0.334296    48A     -0.332096
      49A     -0.310724

  @DF-RHF Final Energy:  -538.48501405784123

   => Energetics <=

    Nuclear Repulsion Energy =            806.7237079518284872
    One-Electron Energy =               -2328.7058661672313065
    Two-Electron Energy =                 983.4971441575614790
    Total Energy =                       -538.4850140578412265
  Basis Set: (AUG-CC-PVTZ AUX)
    Blend: AUG-CC-PVTZ-RI
    Molecular point group: c1

    Geometry (in Angstrom), charge = 0, multiplicity = 1:

       Center              X                  Y                   Z               Mass
    ------------   -----------------  -----------------  -----------------  -----------------
         C            0.033423388189     1.234776712890    -0.524013281265    12.000000000000
         C           -1.249080611811     0.458258712890    -0.294141281265    12.000000000000
         C            1.242261388189     0.379503712890    -0.192212281265    12.000000000000
         C            0.107386388189     2.567420712890     0.227121718735    12.000000000000
         C           -1.553271611811    -0.600359287110    -1.164266281265    12.000000000000
         C            2.351192388189     0.352008712890    -1.046398281265    12.000000000000
         C           -2.154975011811     0.727909512890     0.805364818735    12.000000000000
         C            1.296045388189    -0.347132287110     1.005591718735    12.000000000000
         C           -2.702210611811    -1.368620287110    -0.988949281265    12.000000000000
         C            3.487684388189    -0.391632287110    -0.720056281265    12.000000000000
         C           -3.277792611811    -0.050981287110     0.947515718735    12.000000000000
         C            2.430669388189    -1.088246287110     1.335856718735    12.000000000000
         C           -3.569981611811    -1.097159287110     0.073226718735    12.000000000000
         C            3.531858388189    -1.110653287110     0.475480718735    12.000000000000
         H            0.080007388189     1.460783712890    -1.599411281265     1.007825032230
         H            0.143971388189     2.406852712890     1.308542718735     1.007825032230
         H           -0.753341611811     3.202798712890    -0.005295281265     1.007825032230
         H            1.020078388189     3.098961712890    -0.057848281265     1.007825032230
         H           -0.874076611811    -0.820912287110    -1.987025281265     1.007825032230
         H            2.320480388189     0.911164712890    -1.980928281265     1.007825032230
         H           -1.922461611811     1.535112712890     1.455682718735     1.007825032230
         H            0.433229388189    -0.349956287110     1.669321718735     1.007825032230
         H           -2.920888611811    -2.180970287110    -1.678441281265     1.007825032230
         H            4.337663388189    -0.407829287110    -1.398655281265     1.007825032230
         H           -3.947222611811     0.169378712890     1.776165718735     1.007825032230
         H            2.455821388189    -1.651291287110     2.266261718735     1.007825032230
         H           -4.468217611811    -1.693732287110     0.213135718735     1.007825032230
         H            4.413952388189    -1.692690287110     0.731461718735     1.007825032230

  Basis Set: AUG-CC-PVTZ
    Blend: AUG-CC-PVTZ
  Basis Set: (AUG-CC-PVTZ AUX)
    Blend: AUG-CC-PVTZ-JKFIT
	 Reference Energy          =    -538.4850140578412265 [Eh]
	 Singles Energy            =      -0.0000000000000000 [Eh]
	 Same-Spin Energy          =      -0.6100221729532213 [Eh]
	 Opposite-Spin Energy      =      -1.9383374157135298 [Eh]
	 Correlation Energy        =      -2.5483595886667509 [Eh]
	 Total Energy              =    -541.0333736465079255 [Eh]

	 ================> DF-SCS-MP2 Energies <==================
	-----------------------------------------------------------
	 SCS Same-Spin Scale       =       0.3333333333333333 [-]
	 SCS Opposite-Spin Scale   =       1.2000000000000000 [-]
	 SCS Same-Spin Energy      =      -0.2033407243177404 [Eh]
	 SCS Opposite-Spin Energy  =      -2.3260048988562358 [Eh]
	 SCS Correlation Energy    =      -2.5293456231739762 [Eh]
	 SCS Total Energy          =    -541.0143596810152076 [Eh]
	-----------------------------------------------------------

  Dipole Moment: [D]
     X:     0.0548      Y:     0.2143      Z:    -0.0710     Total:     0.2323

*** Psi4 exiting successfully. Buy a developer a beer!
