                               Psi4 1.3.2 release

  ==> Input File <==

--------------------------------------------------------------------------
#psi4
#
memory 32 gb

molecule  {
0 1
  C        0.0298960     1.2151600    -0.5253010
  C       -1.2343959     0.4008180    -0.3276880
  C        1.2387340     0.3598870    -0.1935000
  C        0.1038590     2.5478040     0.2258340
  C       -1.5567990    -0.6199760    -1.1655540
  C        2.3476650     0.3323920    -1.0476860
  C       -2.1272630     0.6989940     0.7661610
  C        1.2925180    -0.3667490     1.0043040
  C       -2.7057380    -1.3882370    -0.9902370
  C        3.4841570    -0.4112490    -0.7213440
  C       -3.2813200    -0.0705980     0.9462280
  C        2.4271420    -1.1078630     1.3345690
  C       -3.5735090    -1.1167760     0.0719390
  C        3.5283310    -1.1302700     0.4741930
  H        0.0764800     1.4411670    -1.6006990
  H        0.1404440     2.3872360     1.3072550
  H       -0.7568690     3.1831820    -0.0065830
  H        1.0165510     3.0793450    -0.0591360
  H       -0.8776040    -0.8405290    -1.9883130
  H        2.3169530     0.8915480    -1.9822160
  H       -1.9259890     1.5154960     1.4543950
  H        0.4297020    -0.3695730     1.6680340
  H       -2.9244160    -2.2005870    -1.6797290
  H        4.3341360    -0.4274460    -1.3999430
  H       -3.9507500     0.1497620     1.7748780
  H        2.4522940    -1.6709080     2.2649740
  H       -4.4717450    -1.7133490     0.2118480
  H        4.4104250    -1.7123070     0.7301740
units angstrom
no_reorient  #important for SAPT in psi4, default
symmetry c1  #important for SAPT in psi4, default
}

set PROPERTIES_ORIGIN ["COM"]
properties('MP2/aug-cc-pvtz', properties = ['dipole'])
--------------------------------------------------------------------------

    Molecular point group: c1
  Charge       = 0
  Multiplicity = 1
  Basis Set: AUG-CC-PVTZ
    Blend: AUG-CC-PVTZ
  Basis Set: (AUG-CC-PVTZ AUX)
    Blend: AUG-CC-PVTZ-JKFIT

    Orbital Energies [Eh]
    ---------------------

    Doubly Occupied:

       1A    -11.243113     2A    -11.240988     3A    -11.239825
       4A    -11.236179     5A    -11.235723     6A    -11.235000
       7A    -11.234964     8A    -11.234364     9A    -11.231853
      10A    -11.231424    11A    -11.231040    12A    -11.228984
      13A    -11.225595    14A    -11.221233    15A     -1.164820
      16A     -1.143946    17A     -1.081583    18A     -1.014485
      19A     -1.010779    20A     -1.004236    21A     -0.974944
      22A     -0.878109    23A     -0.827508    24A     -0.819998
      25A     -0.812779    26A     -0.770610    27A     -0.699803
      28A     -0.687661    29A     -0.648343    30A     -0.637375
      31A     -0.625065    32A     -0.613424    33A     -0.595789
      34A     -0.587610    35A     -0.582471    36A     -0.578541
      37A     -0.547474    38A     -0.531649    39A     -0.513715
      40A     -0.507600    41A     -0.495069    42A     -0.491292
      43A     -0.480602    44A     -0.473589    45A     -0.459462
      46A     -0.343286    47A     -0.333631    48A     -0.330007
      49A     -0.313466

  @DF-RHF Final Energy:  -538.48495600567560

   => Energetics <=

    Nuclear Repulsion Energy =            807.6216579115283594
    One-Electron Energy =               -2330.5112163733811030
    Two-Electron Energy =                 984.4046024561770309
    Total Energy =                       -538.4849560056755990
  Basis Set: (AUG-CC-PVTZ AUX)
    Blend: AUG-CC-PVTZ-RI
    Molecular point group: c1

    Geometry (in Angstrom), charge = 0, multiplicity = 1:

       Center              X                  Y                   Z               Mass
    ------------   -----------------  -----------------  -----------------  -----------------
         C            0.030164811149     1.237881841636    -0.519389134987    12.000000000000
         C           -1.234127088851     0.423539841636    -0.321776134987    12.000000000000
         C            1.239002811149     0.382608841636    -0.187588134987    12.000000000000
         C            0.104127811149     2.570525841636     0.231745865013    12.000000000000
         C           -1.556530188851    -0.597254158364    -1.159642134987    12.000000000000
         C            2.347933811149     0.355113841636    -1.041774134987    12.000000000000
         C           -2.126994188851     0.721715841636     0.772072865013    12.000000000000
         C            1.292786811149    -0.344027158364     1.010215865013    12.000000000000
         C           -2.705469188851    -1.365515158364    -0.984325134987    12.000000000000
         C            3.484425811149    -0.388527158364    -0.715432134987    12.000000000000
         C           -3.281051188851    -0.047876158364     0.952139865013    12.000000000000
         C            2.427410811149    -1.085141158364     1.340480865013    12.000000000000
         C           -3.573240188851    -1.094054158364     0.077850865013    12.000000000000
         C            3.528599811149    -1.107548158364     0.480104865013    12.000000000000
         H            0.076748811149     1.463888841636    -1.594787134987     1.007825032230
         H            0.140712811149     2.409957841636     1.313166865013     1.007825032230
         H           -0.756600188851     3.205903841636    -0.000671134987     1.007825032230
         H            1.016819811149     3.102066841636    -0.053224134987     1.007825032230
         H           -0.877335188851    -0.817807158364    -1.982401134987     1.007825032230
         H            2.317221811149     0.914269841636    -1.976304134987     1.007825032230
         H           -1.925720188851     1.538217841636     1.460306865013     1.007825032230
         H            0.429970811149    -0.346851158364     1.673945865013     1.007825032230
         H           -2.924147188851    -2.177865158364    -1.673817134987     1.007825032230
         H            4.334404811149    -0.404724158364    -1.394031134987     1.007825032230
         H           -3.950481188851     0.172483841636     1.780789865013     1.007825032230
         H            2.452562811149    -1.648186158364     2.270885865013     1.007825032230
         H           -4.471476188851    -1.690627158364     0.217759865013     1.007825032230
         H            4.410693811149    -1.689585158364     0.736085865013     1.007825032230

  Basis Set: AUG-CC-PVTZ
    Blend: AUG-CC-PVTZ
  Basis Set: (AUG-CC-PVTZ AUX)
    Blend: AUG-CC-PVTZ-JKFIT
	 Reference Energy          =    -538.4849560056755990 [Eh]
	 Singles Energy            =      -0.0000000000000000 [Eh]
	 Same-Spin Energy          =      -0.6100599391603938 [Eh]
	 Opposite-Spin Energy      =      -1.9382858213106038 [Eh]
	 Correlation Energy        =      -2.5483457604709976 [Eh]
	 Total Energy              =    -541.0333017661465647 [Eh]

	 ================> DF-SCS-MP2 Energies <==================
	-----------------------------------------------------------
	 SCS Same-Spin Scale       =       0.3333333333333333 [-]
	 SCS Opposite-Spin Scale   =       1.2000000000000000 [-]
	 SCS Same-Spin Energy      =      -0.2033533130534646 [Eh]
	 SCS Opposite-Spin Energy  =      -2.3259429855727243 [Eh]
	 SCS Correlation Energy    =      -2.5292962986261891 [Eh]
	 SCS Total Energy          =    -541.0142523043017491 [Eh]
	-----------------------------------------------------------

  Dipole Moment: [D]
     X:     0.0334      Y:     0.2345      Z:    -0.0562     Total:     0.2435

*** Psi4 exiting successfully. Buy a developer a beer!
