                               Psi4 1.4a3.dev225

  ==> Input File <==

--------------------------------------------------------------------------
#psi4
#
memory 32 gb

molecule  {
0 1
  C        0.0298960     1.2151600    -0.5253010
  C       -1.2356972     0.4488810    -0.2984600
  C        1.2387340     0.3598870    -0.1935000
  C        0.1038590     2.5478040     0.2258340
  C       -1.5567990    -0.6199760    -1.1655540
  C        2.3476650     0.3323920    -1.0476860
  C       -2.1272630     0.6989940     0.7661610
  C        1.2925180    -0.3667490     1.0043040
  C       -2.7057380    -1.3882370    -0.9902370
  C        3.4841570    -0.4112490    -0.7213440
  C       -3.2813200    -0.0705980     0.9462280
  C        2.4271420    -1.1078630     1.3345690
  C       -3.5735090    -1.1167760     0.0719390
  C        3.5283310    -1.1302700     0.4741930
  H        0.0764800     1.4411670    -1.6006990
  H        0.1404440     2.3872360     1.3072550
  H       -0.7568690     3.1831820    -0.0065830
  H        1.0165510     3.0793450    -0.0591360
  H       -0.8776040    -0.8405290    -1.9883130
  H        2.3169530     0.8915480    -1.9822160
  H       -1.9259890     1.5154960     1.4543950
  H        0.4297020    -0.3695730     1.6680340
  H       -2.9244160    -2.2005870    -1.6797290
  H        4.3341360    -0.4274460    -1.3999430
  H       -3.9507500     0.1497620     1.7748780
  H        2.4522940    -1.6709080     2.2649740
  H       -4.4717450    -1.7133490     0.2118480
  H        4.4104250    -1.7123070     0.7301740
units angstrom
no_reorient  #important for SAPT in psi4, default
symmetry c1  #important for SAPT in psi4, default
}

set PROPERTIES_ORIGIN ["COM"]
properties('MP2/aug-cc-pvtz', properties = ['dipole'])
--------------------------------------------------------------------------

    Molecular point group: c1
  Charge       = 0
  Multiplicity = 1
  Basis Set: AUG-CC-PVTZ
    Blend: AUG-CC-PVTZ
  Basis Set: (AUG-CC-PVTZ AUX)
    Blend: AUG-CC-PVTZ-JKFIT

    Orbital Energies [Eh]
    ---------------------

    Doubly Occupied:

       1A    -11.242995     2A    -11.242309     3A    -11.240600
       4A    -11.235682     5A    -11.235423     6A    -11.235221
       7A    -11.234681     8A    -11.232754     9A    -11.232177
      10A    -11.232074    11A    -11.231536    12A    -11.231484
      13A    -11.229416    14A    -11.220349    15A     -1.164611
      16A     -1.142963    17A     -1.083476    18A     -1.011880
      19A     -1.010199    20A     -1.005572    21A     -0.974681
      22A     -0.879175    23A     -0.828744    24A     -0.818049
      25A     -0.814243    26A     -0.769721    27A     -0.700058
      28A     -0.687783    29A     -0.648975    30A     -0.638199
      31A     -0.623778    32A     -0.614730    33A     -0.596462
      34A     -0.589741    35A     -0.581436    36A     -0.577429
      37A     -0.547426    38A     -0.531076    39A     -0.514301
      40A     -0.506973    41A     -0.494459    42A     -0.490945
      43A     -0.475975    44A     -0.473260    45A     -0.467356
      46A     -0.339112    47A     -0.334101    48A     -0.333359
      49A     -0.312270

  @DF-RHF Final Energy:  -538.48715620308747

   => Energetics <=

    Nuclear Repulsion Energy =            807.5053269433466312
    One-Electron Energy =               -2330.2665297253333847
    Two-Electron Energy =                 984.2740465788994015
    Total Energy =                       -538.4871562030874657
  Basis Set: (AUG-CC-PVTZ AUX)
    Blend: AUG-CC-PVTZ-RI
    Molecular point group: c1

    Geometry (in Angstrom), charge = 0, multiplicity = 1:

       Center              X                  Y                   Z               Mass
    ------------   -----------------  -----------------  -----------------  -----------------
         C            0.030250559534     1.234714758973    -0.521315096580    12.000000000000
         C           -1.235342640466     0.468435758973    -0.294474096580    12.000000000000
         C            1.239088559534     0.379441758973    -0.189514096580    12.000000000000
         C            0.104213559534     2.567358758973     0.229819903420    12.000000000000
         C           -1.556444440466    -0.600421241027    -1.161568096580    12.000000000000
         C            2.348019559534     0.351946758973    -1.043700096580    12.000000000000
         C           -2.126908440466     0.718548758973     0.770146903420    12.000000000000
         C            1.292872559534    -0.347194241027     1.008289903420    12.000000000000
         C           -2.705383440466    -1.368682241027    -0.986251096580    12.000000000000
         C            3.484511559534    -0.391694241027    -0.717358096580    12.000000000000
         C           -3.280965440466    -0.051043241027     0.950213903420    12.000000000000
         C            2.427496559534    -1.088308241027     1.338554903420    12.000000000000
         C           -3.573154440466    -1.097221241027     0.075924903420    12.000000000000
         C            3.528685559534    -1.110715241027     0.478178903420    12.000000000000
         H            0.076834559534     1.460721758973    -1.596713096580     1.007825032230
         H            0.140798559534     2.406790758973     1.311240903420     1.007825032230
         H           -0.756514440466     3.202736758973    -0.002597096580     1.007825032230
         H            1.016905559534     3.098899758973    -0.055150096580     1.007825032230
         H           -0.877249440466    -0.820974241027    -1.984327096580     1.007825032230
         H            2.317307559534     0.911102758973    -1.978230096580     1.007825032230
         H           -1.925634440466     1.535050758973     1.458380903420     1.007825032230
         H            0.430056559534    -0.350018241027     1.672019903420     1.007825032230
         H           -2.924061440466    -2.181032241027    -1.675743096580     1.007825032230
         H            4.334490559534    -0.407891241027    -1.395957096580     1.007825032230
         H           -3.950395440466     0.169316758973     1.778863903420     1.007825032230
         H            2.452648559534    -1.651353241027     2.268959903420     1.007825032230
         H           -4.471390440466    -1.693794241027     0.215833903420     1.007825032230
         H            4.410779559534    -1.692752241027     0.734159903420     1.007825032230

  Basis Set: AUG-CC-PVTZ
    Blend: AUG-CC-PVTZ
  Basis Set: (AUG-CC-PVTZ AUX)
    Blend: AUG-CC-PVTZ-JKFIT
	 Reference Energy          =    -538.4871562030874657 [Eh]
	 Singles Energy            =      -0.0000000000000000 [Eh]
	 Same-Spin Energy          =      -0.6102678179020548 [Eh]
	 Opposite-Spin Energy      =      -1.9385532667658583 [Eh]
	 Correlation Energy        =      -2.5488210846679129 [Eh]
	 Total Energy              =    -541.0359772877553723 [Eh]

	 ================> DF-SCS-MP2 Energies <==================
	-----------------------------------------------------------
	 SCS Same-Spin Scale       =       0.3333333333333333 [-]
	 SCS Opposite-Spin Scale   =       1.2000000000000000 [-]
	 SCS Same-Spin Energy      =      -0.2034226059673516 [Eh]
	 SCS Opposite-Spin Energy  =      -2.3262639201190298 [Eh]
	 SCS Correlation Energy    =      -2.5296865260863814 [Eh]
	 SCS Total Energy          =    -541.0168427291738453 [Eh]
	-----------------------------------------------------------

  Dipole Moment: [D]
     X:     0.0667      Y:     0.2100      Z:    -0.0644     Total:     0.2295

*** Psi4 exiting successfully. Buy a developer a beer!
