                               Psi4 1.3.2 release

  ==> Input File <==

--------------------------------------------------------------------------
#psi4
#
memory 32 gb

molecule  {
0 1
  C        0.0294457     1.2285049    -0.5484572
  C       -1.2526080     0.4386420    -0.2954290
  C        1.2387340     0.3598870    -0.1935000
  C        0.1038590     2.5478040     0.2258340
  C       -1.5567990    -0.6199760    -1.1655540
  C        2.3476650     0.3323920    -1.0476860
  C       -2.1272630     0.6989940     0.7661610
  C        1.2925180    -0.3667490     1.0043040
  C       -2.7057380    -1.3882370    -0.9902370
  C        3.4841570    -0.4112490    -0.7213440
  C       -3.2813200    -0.0705980     0.9462280
  C        2.4271420    -1.1078630     1.3345690
  C       -3.5735090    -1.1167760     0.0719390
  C        3.5283310    -1.1302700     0.4741930
  H        0.0764800     1.4411670    -1.6006990
  H        0.1404440     2.3872360     1.3072550
  H       -0.7568690     3.1831820    -0.0065830
  H        1.0165510     3.0793450    -0.0591360
  H       -0.8776040    -0.8405290    -1.9883130
  H        2.3169530     0.8915480    -1.9822160
  H       -1.9259890     1.5154960     1.4543950
  H        0.4297020    -0.3695730     1.6680340
  H       -2.9244160    -2.2005870    -1.6797290
  H        4.3341360    -0.4274460    -1.3999430
  H       -3.9507500     0.1497620     1.7748780
  H        2.4522940    -1.6709080     2.2649740
  H       -4.4717450    -1.7133490     0.2118480
  H        4.4104250    -1.7123070     0.7301740
units angstrom
no_reorient  #important for SAPT in psi4, default
symmetry c1  #important for SAPT in psi4, default
}

set PROPERTIES_ORIGIN ["COM"]
properties('MP2/aug-cc-pvtz', properties = ['dipole'])
--------------------------------------------------------------------------

    Molecular point group: c1
  Charge       = 0
  Multiplicity = 1
  Basis Set: AUG-CC-PVTZ
    Blend: AUG-CC-PVTZ
  Basis Set: (AUG-CC-PVTZ AUX)
    Blend: AUG-CC-PVTZ-JKFIT

    Orbital Energies [Eh]
    ---------------------

    Doubly Occupied:

       1A    -11.242771     2A    -11.241445     3A    -11.240739
       4A    -11.235692     5A    -11.235126     6A    -11.235034
       7A    -11.234529     8A    -11.231936     9A    -11.231609
      10A    -11.231420    11A    -11.231075    12A    -11.230384
      13A    -11.229335    14A    -11.219962    15A     -1.163468
      16A     -1.143630    17A     -1.080770    18A     -1.012122
      19A     -1.010537    20A     -1.005222    21A     -0.975225
      22A     -0.877131    23A     -0.828129    24A     -0.818905
      25A     -0.812807    26A     -0.771339    27A     -0.699395
      28A     -0.688665    29A     -0.648251    30A     -0.636479
      31A     -0.623778    32A     -0.614963    33A     -0.595549
      34A     -0.590425    35A     -0.581574    36A     -0.577703
      37A     -0.545656    38A     -0.530717    39A     -0.517246
      40A     -0.506368    41A     -0.494094    42A     -0.491503
      43A     -0.476800    44A     -0.474198    45A     -0.463681
      46A     -0.339238    47A     -0.334487    48A     -0.333263
      49A     -0.313184

  @DF-RHF Final Energy:  -538.48797000284105

   => Energetics <=

    Nuclear Repulsion Energy =            807.1544871833638126
    One-Electron Energy =               -2329.5897880296224685
    Two-Electron Energy =                 983.9473308434174896
    Total Energy =                       -538.4879700028410525
  Basis Set: (AUG-CC-PVTZ AUX)
    Blend: AUG-CC-PVTZ-RI
    Molecular point group: c1

    Geometry (in Angstrom), charge = 0, multiplicity = 1:

       Center              X                  Y                   Z               Mass
    ------------   -----------------  -----------------  -----------------  -----------------
         C            0.030944258844     1.247854997549    -0.543145158553    12.000000000000
         C           -1.251109441156     0.457992097549    -0.290116958553    12.000000000000
         C            1.240232558844     0.379237097549    -0.188187958553    12.000000000000
         C            0.105357558844     2.567154097549     0.231146041447    12.000000000000
         C           -1.555300441156    -0.600625902451    -1.160241958553    12.000000000000
         C            2.349163558844     0.351742097549    -1.042373958553    12.000000000000
         C           -2.125764441156     0.718344097549     0.771473041447    12.000000000000
         C            1.294016558844    -0.347398902451     1.009616041447    12.000000000000
         C           -2.704239441156    -1.368886902451    -0.984924958553    12.000000000000
         C            3.485655558844    -0.391898902451    -0.716031958553    12.000000000000
         C           -3.279821441156    -0.051247902451     0.951540041447    12.000000000000
         C            2.428640558844    -1.088512902451     1.339881041447    12.000000000000
         C           -3.572010441156    -1.097425902451     0.077251041447    12.000000000000
         C            3.529829558844    -1.110919902451     0.479505041447    12.000000000000
         H            0.077978558844     1.460517097549    -1.595386958553     1.007825032230
         H            0.141942558844     2.406586097549     1.312567041447     1.007825032230
         H           -0.755370441156     3.202532097549    -0.001270958553     1.007825032230
         H            1.018049558844     3.098695097549    -0.053823958553     1.007825032230
         H           -0.876105441156    -0.821178902451    -1.983000958553     1.007825032230
         H            2.318451558844     0.910898097549    -1.976903958553     1.007825032230
         H           -1.924490441156     1.534846097549     1.459707041447     1.007825032230
         H            0.431200558844    -0.350222902451     1.673346041447     1.007825032230
         H           -2.922917441156    -2.181236902451    -1.674416958553     1.007825032230
         H            4.335634558844    -0.408095902451    -1.394630958553     1.007825032230
         H           -3.949251441156     0.169112097549     1.780190041447     1.007825032230
         H            2.453792558844    -1.651557902451     2.270286041447     1.007825032230
         H           -4.470246441156    -1.693998902451     0.217160041447     1.007825032230
         H            4.411923558844    -1.692956902451     0.735486041447     1.007825032230

  Basis Set: AUG-CC-PVTZ
    Blend: AUG-CC-PVTZ
  Basis Set: (AUG-CC-PVTZ AUX)
    Blend: AUG-CC-PVTZ-JKFIT
	 Reference Energy          =    -538.4879700028410525 [Eh]
	 Singles Energy            =      -0.0000000000000000 [Eh]
	 Same-Spin Energy          =      -0.6098314474376123 [Eh]
	 Opposite-Spin Energy      =      -1.9379186635627281 [Eh]
	 Correlation Energy        =      -2.5477501110003402 [Eh]
	 Total Energy              =    -541.0357201138414212 [Eh]

	 ================> DF-SCS-MP2 Energies <==================
	-----------------------------------------------------------
	 SCS Same-Spin Scale       =       0.3333333333333333 [-]
	 SCS Opposite-Spin Scale   =       1.2000000000000000 [-]
	 SCS Same-Spin Energy      =      -0.2032771491458708 [Eh]
	 SCS Opposite-Spin Energy  =      -2.3255023962752737 [Eh]
	 SCS Correlation Energy    =      -2.5287795454211444 [Eh]
	 SCS Total Energy          =    -541.0167495482621689 [Eh]
	-----------------------------------------------------------

  Dipole Moment: [D]
     X:     0.0362      Y:     0.2173      Z:    -0.0792     Total:     0.2341

*** Psi4 exiting successfully. Buy a developer a beer!
