                               Psi4 1.3.2 release

  ==> Input File <==

--------------------------------------------------------------------------
#psi4
#
memory 32 gb

molecule  {
0 1
  C        0.0298960     1.2151600    -0.5253010
  C       -1.2977898     0.5576003    -0.2004879
  C        1.2387340     0.3598870    -0.1935000
  C        0.1038590     2.5478040     0.2258340
  C       -1.5567990    -0.6199760    -1.1655540
  C        2.3476650     0.3323920    -1.0476860
  C       -2.1272630     0.6989940     0.7661610
  C        1.2925180    -0.3667490     1.0043040
  C       -2.7057380    -1.3882370    -0.9902370
  C        3.4841570    -0.4112490    -0.7213440
  C       -3.2813200    -0.0705980     0.9462280
  C        2.4271420    -1.1078630     1.3345690
  C       -3.5735090    -1.1167760     0.0719390
  C        3.5283310    -1.1302700     0.4741930
  H        0.0764800     1.4411670    -1.6006990
  H        0.1404440     2.3872360     1.3072550
  H       -0.7568690     3.1831820    -0.0065830
  H        1.0165510     3.0793450    -0.0591360
  H       -0.8776040    -0.8405290    -1.9883130
  H        2.3169530     0.8915480    -1.9822160
  H       -1.9259890     1.5154960     1.4543950
  H        0.4297020    -0.3695730     1.6680340
  H       -2.9244160    -2.2005870    -1.6797290
  H        4.3341360    -0.4274460    -1.3999430
  H       -3.9507500     0.1497620     1.7748780
  H        2.4522940    -1.6709080     2.2649740
  H       -4.4717450    -1.7133490     0.2118480
  H        4.4104250    -1.7123070     0.7301740
units angstrom
no_reorient  #important for SAPT in psi4, default
symmetry c1  #important for SAPT in psi4, default
}

set PROPERTIES_ORIGIN ["COM"]
properties('MP2/aug-cc-pvtz', properties = ['dipole'])
--------------------------------------------------------------------------

    Molecular point group: c1
  Charge       = 0
  Multiplicity = 1
  Basis Set: AUG-CC-PVTZ
    Blend: AUG-CC-PVTZ
  Basis Set: (AUG-CC-PVTZ AUX)
    Blend: AUG-CC-PVTZ-JKFIT

    Orbital Energies [Eh]
    ---------------------

    Doubly Occupied:

       1A    -11.245094     2A    -11.242126     3A    -11.242014
       4A    -11.239140     5A    -11.236249     6A    -11.235605
       7A    -11.235201     8A    -11.233951     9A    -11.233345
      10A    -11.232576    11A    -11.232217    12A    -11.230137
      13A    -11.218222    14A    -11.217208    15A     -1.165453
      16A     -1.145456    17A     -1.082576    18A     -1.024986
      19A     -1.011178    20A     -0.996768    21A     -0.974142
      22A     -0.875562    23A     -0.834355    24A     -0.823724
      25A     -0.808810    26A     -0.764426    27A     -0.701268
      28A     -0.688972    29A     -0.648062    30A     -0.639153
      31A     -0.623777    32A     -0.615078    33A     -0.600159
      34A     -0.592730    35A     -0.581544    36A     -0.571420
      37A     -0.547383    38A     -0.529661    39A     -0.514944
      40A     -0.507547    41A     -0.498010    42A     -0.492038
      43A     -0.479708    44A     -0.474059    45A     -0.444369
      46A     -0.353334    47A     -0.335500    48A     -0.331062
      49A     -0.307982

  @DF-RHF Final Energy:  -538.46016316462351

   => Energetics <=

    Nuclear Repulsion Energy =            807.2169864163051898
    One-Electron Energy =               -2329.6377304527159140
    Two-Electron Energy =                 983.9605808717872151
    Total Energy =                       -538.4601631646235091
  Basis Set: (AUG-CC-PVTZ AUX)
    Blend: AUG-CC-PVTZ-RI
    Molecular point group: c1

    Geometry (in Angstrom), charge = 0, multiplicity = 1:

       Center              X                  Y                   Z               Mass
    ------------   -----------------  -----------------  -----------------  -----------------
         C            0.034342114305     1.227550765669    -0.527770909562    12.000000000000
         C           -1.293343685695     0.569991065669    -0.202957809562    12.000000000000
         C            1.243180114305     0.372277765669    -0.195969909562    12.000000000000
         C            0.108305114305     2.560194765669     0.223364090438    12.000000000000
         C           -1.552352885695    -0.607585234331    -1.168023909562    12.000000000000
         C            2.352111114305     0.344782765669    -1.050155909562    12.000000000000
         C           -2.122816885695     0.711384765669     0.763691090438    12.000000000000
         C            1.296964114305    -0.354358234331     1.001834090438    12.000000000000
         C           -2.701291885695    -1.375846234331    -0.992706909562    12.000000000000
         C            3.488603114305    -0.398858234331    -0.723813909562    12.000000000000
         C           -3.276873885695    -0.058207234331     0.943758090438    12.000000000000
         C            2.431588114305    -1.095472234331     1.332099090438    12.000000000000
         C           -3.569062885695    -1.104385234331     0.069469090438    12.000000000000
         C            3.532777114305    -1.117879234331     0.471723090438    12.000000000000
         H            0.080926114305     1.453557765669    -1.603168909562     1.007825032230
         H            0.144890114305     2.399626765669     1.304785090438     1.007825032230
         H           -0.752422885695     3.195572765669    -0.009052909562     1.007825032230
         H            1.020997114305     3.091735765669    -0.061605909562     1.007825032230
         H           -0.873157885695    -0.828138234331    -1.990782909562     1.007825032230
         H            2.321399114305     0.903938765669    -1.984685909562     1.007825032230
         H           -1.921542885695     1.527886765669     1.451925090438     1.007825032230
         H            0.434148114305    -0.357182234331     1.665564090438     1.007825032230
         H           -2.919969885695    -2.188196234331    -1.682198909562     1.007825032230
         H            4.338582114305    -0.415055234331    -1.402412909562     1.007825032230
         H           -3.946303885695     0.162152765669     1.772408090438     1.007825032230
         H            2.456740114305    -1.658517234331     2.262504090438     1.007825032230
         H           -4.467298885695    -1.700958234331     0.209378090438     1.007825032230
         H            4.414871114305    -1.699916234331     0.727704090438     1.007825032230

  Basis Set: AUG-CC-PVTZ
    Blend: AUG-CC-PVTZ
  Basis Set: (AUG-CC-PVTZ AUX)
    Blend: AUG-CC-PVTZ-JKFIT
	 Reference Energy          =    -538.4601631646235091 [Eh]
	 Singles Energy            =      -0.0000000000000000 [Eh]
	 Same-Spin Energy          =      -0.6091340246650745 [Eh]
	 Opposite-Spin Energy      =      -1.9391851875465853 [Eh]
	 Correlation Energy        =      -2.5483192122116600 [Eh]
	 Total Energy              =    -541.0084823768352180 [Eh]

	 ================> DF-SCS-MP2 Energies <==================
	-----------------------------------------------------------
	 SCS Same-Spin Scale       =       0.3333333333333333 [-]
	 SCS Opposite-Spin Scale   =       1.2000000000000000 [-]
	 SCS Same-Spin Energy      =      -0.2030446748883581 [Eh]
	 SCS Opposite-Spin Energy  =      -2.3270222250559023 [Eh]
	 SCS Correlation Energy    =      -2.5300668999442606 [Eh]
	 SCS Total Energy          =    -540.9902300645677542 [Eh]
	-----------------------------------------------------------

  Dipole Moment: [D]
     X:     0.0755      Y:     0.1271      Z:    -0.0771     Total:     0.1668

*** Psi4 exiting successfully. Buy a developer a beer!
