                               Psi4 1.3.2 release

  ==> Input File <==

--------------------------------------------------------------------------
#psi4
#
memory 32 gb

molecule  {
0 1
  C        0.0298960     1.2151600    -0.5253010
  C       -1.2146435     0.3639862    -0.3601877
  C        1.2387340     0.3598870    -0.1935000
  C        0.1038590     2.5478040     0.2258340
  C       -1.5567990    -0.6199760    -1.1655540
  C        2.3476650     0.3323920    -1.0476860
  C       -2.1272630     0.6989940     0.7661610
  C        1.2925180    -0.3667490     1.0043040
  C       -2.7057380    -1.3882370    -0.9902370
  C        3.4841570    -0.4112490    -0.7213440
  C       -3.2813200    -0.0705980     0.9462280
  C        2.4271420    -1.1078630     1.3345690
  C       -3.5735090    -1.1167760     0.0719390
  C        3.5283310    -1.1302700     0.4741930
  H        0.0764800     1.4411670    -1.6006990
  H        0.1404440     2.3872360     1.3072550
  H       -0.7568690     3.1831820    -0.0065830
  H        1.0165510     3.0793450    -0.0591360
  H       -0.8776040    -0.8405290    -1.9883130
  H        2.3169530     0.8915480    -1.9822160
  H       -1.9259890     1.5154960     1.4543950
  H        0.4297020    -0.3695730     1.6680340
  H       -2.9244160    -2.2005870    -1.6797290
  H        4.3341360    -0.4274460    -1.3999430
  H       -3.9507500     0.1497620     1.7748780
  H        2.4522940    -1.6709080     2.2649740
  H       -4.4717450    -1.7133490     0.2118480
  H        4.4104250    -1.7123070     0.7301740
units angstrom
no_reorient  #important for SAPT in psi4, default
symmetry c1  #important for SAPT in psi4, default
}

set PROPERTIES_ORIGIN ["COM"]
properties('MP2/aug-cc-pvtz', properties = ['dipole'])
--------------------------------------------------------------------------

    Molecular point group: c1
  Charge       = 0
  Multiplicity = 1
  Basis Set: AUG-CC-PVTZ
    Blend: AUG-CC-PVTZ
  Basis Set: (AUG-CC-PVTZ AUX)
    Blend: AUG-CC-PVTZ-JKFIT

    Orbital Energies [Eh]
    ---------------------

    Doubly Occupied:

       1A    -11.243221     2A    -11.240362     3A    -11.239499
       4A    -11.239115     5A    -11.236061     6A    -11.235085
       7A    -11.234804     8A    -11.234271     9A    -11.231808
      10A    -11.231080    11A    -11.230825    12A    -11.228837
      13A    -11.222494    14A    -11.220109    15A     -1.165563
      16A     -1.144250    17A     -1.081655    18A     -1.019636
      19A     -1.010348    20A     -1.001041    21A     -0.974781
      22A     -0.878914    23A     -0.826887    24A     -0.822700
      25A     -0.810076    26A     -0.770570    27A     -0.699560
      28A     -0.687748    29A     -0.649102    30A     -0.637453
      31A     -0.625672    32A     -0.611684    33A     -0.596134
      34A     -0.585504    35A     -0.583049    36A     -0.579040
      37A     -0.548080    38A     -0.532374    39A     -0.513518
      40A     -0.508840    41A     -0.497506    42A     -0.490362
      43A     -0.483712    44A     -0.473469    45A     -0.450893
      46A     -0.348371    47A     -0.333597    48A     -0.327108
      49A     -0.312454

  @DF-RHF Final Energy:  -538.47505399444196

   => Energetics <=

    Nuclear Repulsion Energy =            807.7641255301684851
    One-Electron Energy =               -2330.7799100121346783
    Two-Electron Energy =                 984.5407304875242289
    Total Energy =                       -538.4750539944419643
  Basis Set: (AUG-CC-PVTZ AUX)
    Blend: AUG-CC-PVTZ-RI
    Molecular point group: c1

    Geometry (in Angstrom), charge = 0, multiplicity = 1:

       Center              X                  Y                   Z               Mass
    ------------   -----------------  -----------------  -----------------  -----------------
         C            0.028863238554     1.240308851087    -0.517247586677    12.000000000000
         C           -1.215676261446     0.389135051087    -0.352134286677    12.000000000000
         C            1.237701238554     0.385035851087    -0.185446586677    12.000000000000
         C            0.102826238554     2.572952851087     0.233887413323    12.000000000000
         C           -1.557831761446    -0.594827148913    -1.157500586677    12.000000000000
         C            2.346632238554     0.357540851087    -1.039632586677    12.000000000000
         C           -2.128295761446     0.724142851087     0.774214413323    12.000000000000
         C            1.291485238554    -0.341600148913     1.012357413323    12.000000000000
         C           -2.706770761446    -1.363088148913    -0.982183586677    12.000000000000
         C            3.483124238554    -0.386100148913    -0.713290586677    12.000000000000
         C           -3.282352761446    -0.045449148913     0.954281413323    12.000000000000
         C            2.426109238554    -1.082714148913     1.342622413323    12.000000000000
         C           -3.574541761446    -1.091627148913     0.079992413323    12.000000000000
         C            3.527298238554    -1.105121148913     0.482246413323    12.000000000000
         H            0.075447238554     1.466315851087    -1.592645586677     1.007825032230
         H            0.139411238554     2.412384851087     1.315308413323     1.007825032230
         H           -0.757901761446     3.208330851087     0.001470413323     1.007825032230
         H            1.015518238554     3.104493851087    -0.051082586677     1.007825032230
         H           -0.878636761446    -0.815380148913    -1.980259586677     1.007825032230
         H            2.315920238554     0.916696851087    -1.974162586677     1.007825032230
         H           -1.927021761446     1.540644851087     1.462448413323     1.007825032230
         H            0.428669238554    -0.344424148913     1.676087413323     1.007825032230
         H           -2.925448761446    -2.175438148913    -1.671675586677     1.007825032230
         H            4.333103238554    -0.402297148913    -1.391889586677     1.007825032230
         H           -3.951782761446     0.174910851087     1.782931413323     1.007825032230
         H            2.451261238554    -1.645759148913     2.273027413323     1.007825032230
         H           -4.472777761446    -1.688200148913     0.219901413323     1.007825032230
         H            4.409392238554    -1.687158148913     0.738227413323     1.007825032230

  Basis Set: AUG-CC-PVTZ
    Blend: AUG-CC-PVTZ
  Basis Set: (AUG-CC-PVTZ AUX)
    Blend: AUG-CC-PVTZ-JKFIT
	 Reference Energy          =    -538.4750539944419643 [Eh]
	 Singles Energy            =      -0.0000000000000000 [Eh]
	 Same-Spin Energy          =      -0.6099490243623733 [Eh]
	 Opposite-Spin Energy      =      -1.9386987907580144 [Eh]
	 Correlation Energy        =      -2.5486478151203880 [Eh]
	 Total Energy              =    -541.0237018095623398 [Eh]

	 ================> DF-SCS-MP2 Energies <==================
	-----------------------------------------------------------
	 SCS Same-Spin Scale       =       0.3333333333333333 [-]
	 SCS Opposite-Spin Scale   =       1.2000000000000000 [-]
	 SCS Same-Spin Energy      =      -0.2033163414541244 [Eh]
	 SCS Opposite-Spin Energy  =      -2.3264385489096173 [Eh]
	 SCS Correlation Energy    =      -2.5297548903637419 [Eh]
	 SCS Total Energy          =    -541.0048088848056977 [Eh]
	-----------------------------------------------------------

  Dipole Moment: [D]
     X:     0.0346      Y:     0.2666      Z:    -0.0473     Total:     0.2729

*** Psi4 exiting successfully. Buy a developer a beer!
