                               Psi4 1.3.2 release

  ==> Input File <==

--------------------------------------------------------------------------
#psi4
#
memory 32 gb

molecule  {
0 1
  C        0.0471914     1.1542581    -0.6101556
  C       -1.2526080     0.4386420    -0.2954290
  C        1.2387340     0.3598870    -0.1935000
  C        0.1038590     2.5478040     0.2258340
  C       -1.5567990    -0.6199760    -1.1655540
  C        2.3476650     0.3323920    -1.0476860
  C       -2.1272630     0.6989940     0.7661610
  C        1.2925180    -0.3667490     1.0043040
  C       -2.7057380    -1.3882370    -0.9902370
  C        3.4841570    -0.4112490    -0.7213440
  C       -3.2813200    -0.0705980     0.9462280
  C        2.4271420    -1.1078630     1.3345690
  C       -3.5735090    -1.1167760     0.0719390
  C        3.5283310    -1.1302700     0.4741930
  H        0.0764800     1.4411670    -1.6006990
  H        0.1404440     2.3872360     1.3072550
  H       -0.7568690     3.1831820    -0.0065830
  H        1.0165510     3.0793450    -0.0591360
  H       -0.8776040    -0.8405290    -1.9883130
  H        2.3169530     0.8915480    -1.9822160
  H       -1.9259890     1.5154960     1.4543950
  H        0.4297020    -0.3695730     1.6680340
  H       -2.9244160    -2.2005870    -1.6797290
  H        4.3341360    -0.4274460    -1.3999430
  H       -3.9507500     0.1497620     1.7748780
  H        2.4522940    -1.6709080     2.2649740
  H       -4.4717450    -1.7133490     0.2118480
  H        4.4104250    -1.7123070     0.7301740
units angstrom
no_reorient  #important for SAPT in psi4, default
symmetry c1  #important for SAPT in psi4, default
}

set PROPERTIES_ORIGIN ["COM"]
properties('MP2/aug-cc-pvtz', properties = ['dipole'])
--------------------------------------------------------------------------

    Molecular point group: c1
  Charge       = 0
  Multiplicity = 1
  Basis Set: AUG-CC-PVTZ
    Blend: AUG-CC-PVTZ
  Basis Set: (AUG-CC-PVTZ AUX)
    Blend: AUG-CC-PVTZ-JKFIT

    Orbital Energies [Eh]
    ---------------------

    Doubly Occupied:

       1A    -11.241470     2A    -11.240870     3A    -11.240100
       4A    -11.236385     5A    -11.235005     6A    -11.234844
       7A    -11.234747     8A    -11.233432     9A    -11.232457
      10A    -11.230819    11A    -11.230643    12A    -11.229763
      13A    -11.229472    14A    -11.222527    15A     -1.164887
      16A     -1.144189    17A     -1.079041    18A     -1.012499
      19A     -1.011071    20A     -1.006303    21A     -0.965136
      22A     -0.882022    23A     -0.829077    24A     -0.819475
      25A     -0.814349    26A     -0.773773    27A     -0.700348
      28A     -0.690101    29A     -0.651317    30A     -0.637978
      31A     -0.623607    32A     -0.615336    33A     -0.594058
      34A     -0.589427    35A     -0.581678    36A     -0.577457
      37A     -0.541910    38A     -0.526328    39A     -0.519929
      40A     -0.508051    41A     -0.494988    42A     -0.491683
      43A     -0.483693    44A     -0.470066    45A     -0.459218
      46A     -0.338051    47A     -0.334759    48A     -0.331872
      49A     -0.313655

  @DF-RHF Final Energy:  -538.47839656548126

   => Energetics <=

    Nuclear Repulsion Energy =            807.3431882891093210
    One-Electron Energy =               -2329.9434422639483273
    Two-Electron Energy =                 984.1218574093577445
    Total Energy =                       -538.4783965654812619
  Basis Set: (AUG-CC-PVTZ AUX)
    Blend: AUG-CC-PVTZ-RI
    Molecular point group: c1

    Geometry (in Angstrom), charge = 0, multiplicity = 1:

       Center              X                  Y                   Z               Mass
    ------------   -----------------  -----------------  -----------------  -----------------
         C            0.047520616547     1.178500646066    -0.600777979355    12.000000000000
         C           -1.252278783453     0.462884546066    -0.286051379355    12.000000000000
         C            1.239063216547     0.384129546066    -0.184122379355    12.000000000000
         C            0.104188216547     2.572046546066     0.235211620645    12.000000000000
         C           -1.556469783453    -0.595733453934    -1.156176379355    12.000000000000
         C            2.347994216547     0.356634546066    -1.038308379355    12.000000000000
         C           -2.126933783453     0.723236546066     0.775538620645    12.000000000000
         C            1.292847216547    -0.342506453934     1.013681620645    12.000000000000
         C           -2.705408783453    -1.363994453934    -0.980859379355    12.000000000000
         C            3.484486216547    -0.387006453934    -0.711966379355    12.000000000000
         C           -3.280990783453    -0.046355453934     0.955605620645    12.000000000000
         C            2.427471216547    -1.083620453934     1.343946620645    12.000000000000
         C           -3.573179783453    -1.092533453934     0.081316620645    12.000000000000
         C            3.528660216547    -1.106027453934     0.483570620645    12.000000000000
         H            0.076809216547     1.465409546066    -1.591321379355     1.007825032230
         H            0.140773216547     2.411478546066     1.316632620645     1.007825032230
         H           -0.756539783453     3.207424546066     0.002794620645     1.007825032230
         H            1.016880216547     3.103587546066    -0.049758379355     1.007825032230
         H           -0.877274783453    -0.816286453934    -1.978935379355     1.007825032230
         H            2.317282216547     0.915790546066    -1.972838379355     1.007825032230
         H           -1.925659783453     1.539738546066     1.463772620645     1.007825032230
         H            0.430031216547    -0.345330453934     1.677411620645     1.007825032230
         H           -2.924086783453    -2.176344453934    -1.670351379355     1.007825032230
         H            4.334465216547    -0.403203453934    -1.390565379355     1.007825032230
         H           -3.950420783453     0.174004546066     1.784255620645     1.007825032230
         H            2.452623216547    -1.646665453934     2.274351620645     1.007825032230
         H           -4.471415783453    -1.689106453934     0.221225620645     1.007825032230
         H            4.410754216547    -1.688064453934     0.739551620645     1.007825032230

  Basis Set: AUG-CC-PVTZ
    Blend: AUG-CC-PVTZ
  Basis Set: (AUG-CC-PVTZ AUX)
    Blend: AUG-CC-PVTZ-JKFIT
	 Reference Energy          =    -538.4783965654812619 [Eh]
	 Singles Energy            =      -0.0000000000000000 [Eh]
	 Same-Spin Energy          =      -0.6099940993119993 [Eh]
	 Opposite-Spin Energy      =      -1.9384957419528381 [Eh]
	 Correlation Energy        =      -2.5484898412648374 [Eh]
	 Total Energy              =    -541.0268864067461436 [Eh]

	 ================> DF-SCS-MP2 Energies <==================
	-----------------------------------------------------------
	 SCS Same-Spin Scale       =       0.3333333333333333 [-]
	 SCS Opposite-Spin Scale   =       1.2000000000000000 [-]
	 SCS Same-Spin Energy      =      -0.2033313664373331 [Eh]
	 SCS Opposite-Spin Energy  =      -2.3261948903434058 [Eh]
	 SCS Correlation Energy    =      -2.5295262567807391 [Eh]
	 SCS Total Energy          =    -541.0079228222620031 [Eh]
	-----------------------------------------------------------

  Dipole Moment: [D]
     X:    -0.0364      Y:     0.1688      Z:    -0.1154     Total:     0.2077

*** Psi4 exiting successfully. Buy a developer a beer!
