                               Psi4 1.3.2 release

  ==> Input File <==

--------------------------------------------------------------------------
#psi4
#
memory 32 gb

molecule  {
0 1
  C        0.0298960     1.2151600    -0.5253010
  C       -1.2526080     0.4386420    -0.2954290
  C        1.2387340     0.3598870    -0.1935000
  C        0.1038590     2.5478040     0.2258340
  C       -1.5567990    -0.6199760    -1.1655540
  C        2.3476650     0.3323920    -1.0476860
  C       -2.0023052     0.6617987     0.6144967
  C        1.2925180    -0.3667490     1.0043040
  C       -2.7057380    -1.3882370    -0.9902370
  C        3.4841570    -0.4112490    -0.7213440
  C       -3.2813200    -0.0705980     0.9462280
  C        2.4271420    -1.1078630     1.3345690
  C       -3.5735090    -1.1167760     0.0719390
  C        3.5283310    -1.1302700     0.4741930
  H        0.0764800     1.4411670    -1.6006990
  H        0.1404440     2.3872360     1.3072550
  H       -0.7568690     3.1831820    -0.0065830
  H        1.0165510     3.0793450    -0.0591360
  H       -0.8776040    -0.8405290    -1.9883130
  H        2.3169530     0.8915480    -1.9822160
  H       -1.9259890     1.5154960     1.4543950
  H        0.4297020    -0.3695730     1.6680340
  H       -2.9244160    -2.2005870    -1.6797290
  H        4.3341360    -0.4274460    -1.3999430
  H       -3.9507500     0.1497620     1.7748780
  H        2.4522940    -1.6709080     2.2649740
  H       -4.4717450    -1.7133490     0.2118480
  H        4.4104250    -1.7123070     0.7301740
units angstrom
no_reorient  #important for SAPT in psi4, default
symmetry c1  #important for SAPT in psi4, default
}

set PROPERTIES_ORIGIN ["COM"]
properties('MP2/aug-cc-pvtz', properties = ['dipole'])
--------------------------------------------------------------------------

    Molecular point group: c1
  Charge       = 0
  Multiplicity = 1
  Basis Set: AUG-CC-PVTZ
    Blend: AUG-CC-PVTZ
  Basis Set: (AUG-CC-PVTZ AUX)
    Blend: AUG-CC-PVTZ-JKFIT

    Orbital Energies [Eh]
    ---------------------

    Doubly Occupied:

       1A    -11.244388     2A    -11.241801     3A    -11.239835
       4A    -11.235211     5A    -11.234636     6A    -11.234563
       7A    -11.233686     8A    -11.232896     9A    -11.231777
      10A    -11.231353    11A    -11.229275    12A    -11.225967
      13A    -11.217795    14A    -11.212666    15A     -1.179916
      16A     -1.148431    17A     -1.082548    18A     -1.026950
      19A     -1.010142    20A     -0.995441    21A     -0.978263
      22A     -0.875755    23A     -0.838579    24A     -0.824164
      25A     -0.805617    26A     -0.766387    27A     -0.700261
      28A     -0.685897    29A     -0.645829    30A     -0.636371
      31A     -0.631036    32A     -0.617842    33A     -0.598011
      34A     -0.591413    35A     -0.579989    36A     -0.566884
      37A     -0.545579    38A     -0.525518    39A     -0.515150
      40A     -0.512483    41A     -0.498187    42A     -0.491265
      43A     -0.476384    44A     -0.472502    45A     -0.440187
      46A     -0.361867    47A     -0.334242    48A     -0.328945
      49A     -0.313492

  @DF-RHF Final Energy:  -538.42760997896630

   => Energetics <=

    Nuclear Repulsion Energy =            811.0067061470937233
    One-Electron Energy =               -2337.1738807427354914
    Two-Electron Energy =                 987.7395646166755796
    Total Energy =                       -538.4276099789663022
  Basis Set: (AUG-CC-PVTZ AUX)
    Blend: AUG-CC-PVTZ-RI
    Molecular point group: c1

    Geometry (in Angstrom), charge = 0, multiplicity = 1:

       Center              X                  Y                   Z               Mass
    ------------   -----------------  -----------------  -----------------  -----------------
         C            0.023130867037     1.237840413825    -0.511520994099    12.000000000000
         C           -1.259373132963     0.461322413825    -0.281648994099    12.000000000000
         C            1.231968867037     0.382567413825    -0.179719994099    12.000000000000
         C            0.097093867037     2.570484413825     0.239614005901    12.000000000000
         C           -1.563564132963    -0.597295586175    -1.151773994099    12.000000000000
         C            2.340899867037     0.355072413825    -1.033905994099    12.000000000000
         C           -2.009070332963     0.684479113825     0.628276705901    12.000000000000
         C            1.285752867037    -0.344068586175     1.018084005901    12.000000000000
         C           -2.712503132963    -1.365556586175    -0.976456994099    12.000000000000
         C            3.477391867037    -0.388568586175    -0.707563994099    12.000000000000
         C           -3.288085132963    -0.047917586175     0.960008005901    12.000000000000
         C            2.420376867037    -1.085182586175     1.348349005901    12.000000000000
         C           -3.580274132963    -1.094095586175     0.085719005901    12.000000000000
         C            3.521565867037    -1.107589586175     0.487973005901    12.000000000000
         H            0.069714867037     1.463847413825    -1.586918994099     1.007825032230
         H            0.133678867037     2.409916413825     1.321035005901     1.007825032230
         H           -0.763634132963     3.205862413825     0.007197005901     1.007825032230
         H            1.009785867037     3.102025413825    -0.045355994099     1.007825032230
         H           -0.884369132963    -0.817848586175    -1.974532994099     1.007825032230
         H            2.310187867037     0.914228413825    -1.968435994099     1.007825032230
         H           -1.932754132963     1.538176413825     1.468175005901     1.007825032230
         H            0.422936867037    -0.346892586175     1.681814005901     1.007825032230
         H           -2.931181132963    -2.177906586175    -1.665948994099     1.007825032230
         H            4.327370867037    -0.404765586175    -1.386162994099     1.007825032230
         H           -3.957515132963     0.172442413825     1.788658005901     1.007825032230
         H            2.445528867037    -1.648227586175     2.278754005901     1.007825032230
         H           -4.478510132963    -1.690668586175     0.225628005901     1.007825032230
         H            4.403659867037    -1.689626586175     0.743954005901     1.007825032230

  Basis Set: AUG-CC-PVTZ
    Blend: AUG-CC-PVTZ
  Basis Set: (AUG-CC-PVTZ AUX)
    Blend: AUG-CC-PVTZ-JKFIT
	 Reference Energy          =    -538.4276099789663022 [Eh]
	 Singles Energy            =      -0.0000000000000000 [Eh]
	 Same-Spin Energy          =      -0.6093354919646912 [Eh]
	 Opposite-Spin Energy      =      -1.9396594802068352 [Eh]
	 Correlation Energy        =      -2.5489949721715264 [Eh]
	 Total Energy              =    -540.9766049511378014 [Eh]

	 ================> DF-SCS-MP2 Energies <==================
	-----------------------------------------------------------
	 SCS Same-Spin Scale       =       0.3333333333333333 [-]
	 SCS Opposite-Spin Scale   =       1.2000000000000000 [-]
	 SCS Same-Spin Energy      =      -0.2031118306548970 [Eh]
	 SCS Opposite-Spin Energy  =      -2.3275913762482023 [Eh]
	 SCS Correlation Energy    =      -2.5307032069030995 [Eh]
	 SCS Total Energy          =    -540.9583131858694287 [Eh]
	-----------------------------------------------------------

  Dipole Moment: [D]
     X:    -0.0542      Y:     0.1171      Z:    -0.0668     Total:     0.1453

*** Psi4 exiting successfully. Buy a developer a beer!
