                               Psi4 1.3.2 release

  ==> Input File <==

--------------------------------------------------------------------------
#psi4
#
memory 32 gb

molecule  {
0 1
  C        0.0298960     1.2151600    -0.5253010
  C       -1.2526080     0.4386420    -0.2954290
  C        1.2387340     0.3598870    -0.1935000
  C        0.1135176     2.7218307     0.3239229
  C       -1.5567990    -0.6199760    -1.1655540
  C        2.3476650     0.3323920    -1.0476860
  C       -2.1272630     0.6989940     0.7661610
  C        1.2925180    -0.3667490     1.0043040
  C       -2.7057380    -1.3882370    -0.9902370
  C        3.4841570    -0.4112490    -0.7213440
  C       -3.2813200    -0.0705980     0.9462280
  C        2.4271420    -1.1078630     1.3345690
  C       -3.5735090    -1.1167760     0.0719390
  C        3.5283310    -1.1302700     0.4741930
  H        0.0764800     1.4411670    -1.6006990
  H        0.1404440     2.3872360     1.3072550
  H       -0.7568690     3.1831820    -0.0065830
  H        1.0165510     3.0793450    -0.0591360
  H       -0.8776040    -0.8405290    -1.9883130
  H        2.3169530     0.8915480    -1.9822160
  H       -1.9259890     1.5154960     1.4543950
  H        0.4297020    -0.3695730     1.6680340
  H       -2.9244160    -2.2005870    -1.6797290
  H        4.3341360    -0.4274460    -1.3999430
  H       -3.9507500     0.1497620     1.7748780
  H        2.4522940    -1.6709080     2.2649740
  H       -4.4717450    -1.7133490     0.2118480
  H        4.4104250    -1.7123070     0.7301740
units angstrom
no_reorient  #important for SAPT in psi4, default
symmetry c1  #important for SAPT in psi4, default
}

set PROPERTIES_ORIGIN ["COM"]
properties('MP2/aug-cc-pvtz', properties = ['dipole'])
--------------------------------------------------------------------------

    Molecular point group: c1
  Charge       = 0
  Multiplicity = 1
  Basis Set: AUG-CC-PVTZ
    Blend: AUG-CC-PVTZ
  Basis Set: (AUG-CC-PVTZ AUX)
    Blend: AUG-CC-PVTZ-JKFIT

    Orbital Energies [Eh]
    ---------------------

    Doubly Occupied:

       1A    -11.249236     2A    -11.241766     3A    -11.240434
       4A    -11.235762     5A    -11.235353     6A    -11.235154
       7A    -11.234408     8A    -11.231906     9A    -11.231546
      10A    -11.231324    11A    -11.230852    12A    -11.230416
      13A    -11.228644    14A    -11.219054    15A     -1.161054
      16A     -1.143634    17A     -1.070298    18A     -1.012048
      19A     -1.010361    20A     -1.005301    21A     -0.968417
      22A     -0.886698    23A     -0.827868    24A     -0.819579
      25A     -0.812981    26A     -0.769373    27A     -0.698955
      28A     -0.685347    29A     -0.645092    30A     -0.636276
      31A     -0.621625    32A     -0.615024    33A     -0.603724
      34A     -0.596620    35A     -0.581770    36A     -0.579445
      37A     -0.555418    38A     -0.541980    39A     -0.511403
      40A     -0.506841    41A     -0.495005    42A     -0.492226
      43A     -0.477415    44A     -0.470873    45A     -0.440588
      46A     -0.337803    47A     -0.334469    48A     -0.331063
      49A     -0.311587

  @DF-RHF Final Energy:  -538.46259449183958

   => Energetics <=

    Nuclear Repulsion Energy =            803.7351669957340619
    One-Electron Energy =               -2322.7274916486958318
    Two-Electron Energy =                 980.5297301611221883
    Total Energy =                       -538.4625944918395817
  Basis Set: (AUG-CC-PVTZ AUX)
    Blend: AUG-CC-PVTZ-RI
    Molecular point group: c1

    Geometry (in Angstrom), charge = 0, multiplicity = 1:

       Center              X                  Y                   Z               Mass
    ------------   -----------------  -----------------  -----------------  -----------------
         C            0.030728438920     1.223922066360    -0.527978331962    12.000000000000
         C           -1.251775561080     0.447404066360    -0.298106331962    12.000000000000
         C            1.239566438920     0.368649066360    -0.196177331962    12.000000000000
         C            0.114350038920     2.730592766360     0.321245568038    12.000000000000
         C           -1.555966561080    -0.611213933640    -1.168231331962    12.000000000000
         C            2.348497438920     0.341154066360    -1.050363331962    12.000000000000
         C           -2.126430561080     0.707756066360     0.763483668038    12.000000000000
         C            1.293350438920    -0.357986933640     1.001626668038    12.000000000000
         C           -2.704905561080    -1.379474933640    -0.992914331962    12.000000000000
         C            3.484989438920    -0.402486933640    -0.724021331962    12.000000000000
         C           -3.280487561080    -0.061835933640     0.943550668038    12.000000000000
         C            2.427974438920    -1.099100933640     1.331891668038    12.000000000000
         C           -3.572676561080    -1.108013933640     0.069261668038    12.000000000000
         C            3.529163438920    -1.121507933640     0.471515668038    12.000000000000
         H            0.077312438920     1.449929066360    -1.603376331962     1.007825032230
         H            0.141276438920     2.395998066360     1.304577668038     1.007825032230
         H           -0.756036561080     3.191944066360    -0.009260331962     1.007825032230
         H            1.017383438920     3.088107066360    -0.061813331962     1.007825032230
         H           -0.876771561080    -0.831766933640    -1.990990331962     1.007825032230
         H            2.317785438920     0.900310066360    -1.984893331962     1.007825032230
         H           -1.925156561080     1.524258066360     1.451717668038     1.007825032230
         H            0.430534438920    -0.360810933640     1.665356668038     1.007825032230
         H           -2.923583561080    -2.191824933640    -1.682406331962     1.007825032230
         H            4.334968438920    -0.418683933640    -1.402620331962     1.007825032230
         H           -3.949917561080     0.158524066360     1.772200668038     1.007825032230
         H            2.453126438920    -1.662145933640     2.262296668038     1.007825032230
         H           -4.470912561080    -1.704586933640     0.209170668038     1.007825032230
         H            4.411257438920    -1.703544933640     0.727496668038     1.007825032230

  Basis Set: AUG-CC-PVTZ
    Blend: AUG-CC-PVTZ
  Basis Set: (AUG-CC-PVTZ AUX)
    Blend: AUG-CC-PVTZ-JKFIT
	 Reference Energy          =    -538.4625944918395817 [Eh]
	 Singles Energy            =      -0.0000000000000000 [Eh]
	 Same-Spin Energy          =      -0.6100226737544051 [Eh]
	 Opposite-Spin Energy      =      -1.9392326654030432 [Eh]
	 Correlation Energy        =      -2.5492553391574484 [Eh]
	 Total Energy              =    -541.0118498309969937 [Eh]

	 ================> DF-SCS-MP2 Energies <==================
	-----------------------------------------------------------
	 SCS Same-Spin Scale       =       0.3333333333333333 [-]
	 SCS Opposite-Spin Scale   =       1.2000000000000000 [-]
	 SCS Same-Spin Energy      =      -0.2033408912514684 [Eh]
	 SCS Opposite-Spin Energy  =      -2.3270791984836516 [Eh]
	 SCS Correlation Energy    =      -2.5304200897351201 [Eh]
	 SCS Total Energy          =    -540.9930145815746982 [Eh]
	-----------------------------------------------------------

  Dipole Moment: [D]
     X:     0.0039      Y:     0.1432      Z:    -0.1058     Total:     0.1781

*** Psi4 exiting successfully. Buy a developer a beer!
