                               Psi4 1.3.2 release

  ==> Input File <==

--------------------------------------------------------------------------
#psi4
#
memory 32 gb

molecule  {
0 1
  C        0.0298960     1.2151600    -0.5253010
  C       -1.2436959     0.4196089    -0.3115259
  C        1.2387340     0.3598870    -0.1935000
  C        0.1038590     2.5478040     0.2258340
  C       -1.5567990    -0.6199760    -1.1655540
  C        2.3476650     0.3323920    -1.0476860
  C       -2.1272630     0.6989940     0.7661610
  C        1.2925180    -0.3667490     1.0043040
  C       -2.7057380    -1.3882370    -0.9902370
  C        3.4841570    -0.4112490    -0.7213440
  C       -3.2813200    -0.0705980     0.9462280
  C        2.4271420    -1.1078630     1.3345690
  C       -3.5735090    -1.1167760     0.0719390
  C        3.5283310    -1.1302700     0.4741930
  H        0.0764800     1.4411670    -1.6006990
  H        0.1404440     2.3872360     1.3072550
  H       -0.7568690     3.1831820    -0.0065830
  H        1.0165510     3.0793450    -0.0591360
  H       -0.8776040    -0.8405290    -1.9883130
  H        2.3169530     0.8915480    -1.9822160
  H       -1.9259890     1.5154960     1.4543950
  H        0.4297020    -0.3695730     1.6680340
  H       -2.9244160    -2.2005870    -1.6797290
  H        4.3341360    -0.4274460    -1.3999430
  H       -3.9507500     0.1497620     1.7748780
  H        2.4522940    -1.6709080     2.2649740
  H       -4.4717450    -1.7133490     0.2118480
  H        4.4104250    -1.7123070     0.7301740
units angstrom
no_reorient  #important for SAPT in psi4, default
symmetry c1  #important for SAPT in psi4, default
}

set PROPERTIES_ORIGIN ["COM"]
properties('MP2/aug-cc-pvtz', properties = ['dipole'])
--------------------------------------------------------------------------

    Molecular point group: c1
  Charge       = 0
  Multiplicity = 1
  Basis Set: AUG-CC-PVTZ
    Blend: AUG-CC-PVTZ
  Basis Set: (AUG-CC-PVTZ AUX)
    Blend: AUG-CC-PVTZ-JKFIT

    Orbital Energies [Eh]
    ---------------------

    Doubly Occupied:

       1A    -11.243149     2A    -11.241157     3A    -11.240026
       4A    -11.235762     5A    -11.235485     6A    -11.235117
       7A    -11.234429     8A    -11.233593     9A    -11.231935
      10A    -11.231621    11A    -11.231158    12A    -11.229079
      13A    -11.228189    14A    -11.220629    15A     -1.164592
      16A     -1.143894    17A     -1.081593    18A     -1.012426
      19A     -1.011143    20A     -1.005505    21A     -0.974974
      22A     -0.877736    23A     -0.827957    24A     -0.819172
      25A     -0.813662    26A     -0.770357    27A     -0.699947
      28A     -0.687682    29A     -0.648023    30A     -0.637390
      31A     -0.624656    32A     -0.614287    33A     -0.595784
      34A     -0.588871    35A     -0.582033    36A     -0.578028
      37A     -0.547269    38A     -0.531313    39A     -0.513853
      40A     -0.507155    41A     -0.494412    42A     -0.491662
      43A     -0.478152    44A     -0.473672    45A     -0.463069
      46A     -0.341145    47A     -0.333672    48A     -0.331980
      49A     -0.313492

  @DF-RHF Final Energy:  -538.48744442456587

   => Energetics <=

    Nuclear Repulsion Energy =            807.5568522519645285
    One-Electron Energy =               -2330.3848206106026737
    Two-Electron Energy =                 984.3405239340722801
    Total Energy =                       -538.4874444245658651
  Basis Set: (AUG-CC-PVTZ AUX)
    Blend: AUG-CC-PVTZ-RI
    Molecular point group: c1

    Geometry (in Angstrom), charge = 0, multiplicity = 1:

       Center              X                  Y                   Z               Mass
    ------------   -----------------  -----------------  -----------------  -----------------
         C            0.030777629091     1.236643626510    -0.520454126908    12.000000000000
         C           -1.242814270909     0.441092526510    -0.306679026908    12.000000000000
         C            1.239615629091     0.381370626510    -0.188653126908    12.000000000000
         C            0.104740629091     2.569287626510     0.230680873092    12.000000000000
         C           -1.555917370909    -0.598492373490    -1.160707126908    12.000000000000
         C            2.348546629091     0.353875626510    -1.042839126908    12.000000000000
         C           -2.126381370909     0.720477626510     0.771007873092    12.000000000000
         C            1.293399629091    -0.345265373490     1.009150873092    12.000000000000
         C           -2.704856370909    -1.366753373490    -0.985390126908    12.000000000000
         C            3.485038629091    -0.389765373490    -0.716497126908    12.000000000000
         C           -3.280438370909    -0.049114373490     0.951074873092    12.000000000000
         C            2.428023629091    -1.086379373490     1.339415873092    12.000000000000
         C           -3.572627370909    -1.095292373490     0.076785873092    12.000000000000
         C            3.529212629091    -1.108786373490     0.479039873092    12.000000000000
         H            0.077361629091     1.462650626510    -1.595852126908     1.007825032230
         H            0.141325629091     2.408719626510     1.312101873092     1.007825032230
         H           -0.755987370909     3.204665626510    -0.001736126908     1.007825032230
         H            1.017432629091     3.100828626510    -0.054289126908     1.007825032230
         H           -0.876722370909    -0.819045373490    -1.983466126908     1.007825032230
         H            2.317834629091     0.913031626510    -1.977369126908     1.007825032230
         H           -1.925107370909     1.536979626510     1.459241873092     1.007825032230
         H            0.430583629091    -0.348089373490     1.672880873092     1.007825032230
         H           -2.923534370909    -2.179103373490    -1.674882126908     1.007825032230
         H            4.335017629091    -0.405962373490    -1.395096126908     1.007825032230
         H           -3.949868370909     0.171245626510     1.779724873092     1.007825032230
         H            2.453175629091    -1.649424373490     2.269820873092     1.007825032230
         H           -4.470863370909    -1.691865373490     0.216694873092     1.007825032230
         H            4.411306629091    -1.690823373490     0.735020873092     1.007825032230

  Basis Set: AUG-CC-PVTZ
    Blend: AUG-CC-PVTZ
  Basis Set: (AUG-CC-PVTZ AUX)
    Blend: AUG-CC-PVTZ-JKFIT
	 Reference Energy          =    -538.4874444245658651 [Eh]
	 Singles Energy            =      -0.0000000000000000 [Eh]
	 Same-Spin Energy          =      -0.6100589530861724 [Eh]
	 Opposite-Spin Energy      =      -1.9381715299072355 [Eh]
	 Correlation Energy        =      -2.5482304829934082 [Eh]
	 Total Energy              =    -541.0356749075592688 [Eh]

	 ================> DF-SCS-MP2 Energies <==================
	-----------------------------------------------------------
	 SCS Same-Spin Scale       =       0.3333333333333333 [-]
	 SCS Opposite-Spin Scale   =       1.2000000000000000 [-]
	 SCS Same-Spin Energy      =      -0.2033529843620575 [Eh]
	 SCS Opposite-Spin Energy  =      -2.3258058358886826 [Eh]
	 SCS Correlation Energy    =      -2.5291588202507400 [Eh]
	 SCS Total Energy          =    -541.0166032448165652 [Eh]
	-----------------------------------------------------------

  Dipole Moment: [D]
     X:     0.0346      Y:     0.2187      Z:    -0.0606     Total:     0.2295

*** Psi4 exiting successfully. Buy a developer a beer!
