                               Psi4 1.3.2 release

  ==> Input File <==

--------------------------------------------------------------------------
#psi4
#
memory 32 gb

molecule  {
0 1
  C        0.0319211     1.1658786    -0.4304598
  C       -1.2526080     0.4386420    -0.2954290
  C        1.2387340     0.3598870    -0.1935000
  C        0.1038590     2.5478040     0.2258340
  C       -1.5567990    -0.6199760    -1.1655540
  C        2.3476650     0.3323920    -1.0476860
  C       -2.1272630     0.6989940     0.7661610
  C        1.2925180    -0.3667490     1.0043040
  C       -2.7057380    -1.3882370    -0.9902370
  C        3.4841570    -0.4112490    -0.7213440
  C       -3.2813200    -0.0705980     0.9462280
  C        2.4271420    -1.1078630     1.3345690
  C       -3.5735090    -1.1167760     0.0719390
  C        3.5283310    -1.1302700     0.4741930
  H        0.0764800     1.4411670    -1.6006990
  H        0.1404440     2.3872360     1.3072550
  H       -0.7568690     3.1831820    -0.0065830
  H        1.0165510     3.0793450    -0.0591360
  H       -0.8776040    -0.8405290    -1.9883130
  H        2.3169530     0.8915480    -1.9822160
  H       -1.9259890     1.5154960     1.4543950
  H        0.4297020    -0.3695730     1.6680340
  H       -2.9244160    -2.2005870    -1.6797290
  H        4.3341360    -0.4274460    -1.3999430
  H       -3.9507500     0.1497620     1.7748780
  H        2.4522940    -1.6709080     2.2649740
  H       -4.4717450    -1.7133490     0.2118480
  H        4.4104250    -1.7123070     0.7301740
units angstrom
no_reorient  #important for SAPT in psi4, default
symmetry c1  #important for SAPT in psi4, default
}

set PROPERTIES_ORIGIN ["COM"]
properties('MP2/aug-cc-pvtz', properties = ['dipole'])
--------------------------------------------------------------------------

    Molecular point group: c1
  Charge       = 0
  Multiplicity = 1
  Basis Set: AUG-CC-PVTZ
    Blend: AUG-CC-PVTZ
  Basis Set: (AUG-CC-PVTZ AUX)
    Blend: AUG-CC-PVTZ-JKFIT

    Orbital Energies [Eh]
    ---------------------

    Doubly Occupied:

       1A    -11.246932     2A    -11.240957     3A    -11.238827
       4A    -11.236208     5A    -11.236024     6A    -11.235797
       7A    -11.234522     8A    -11.233628     9A    -11.232666
      10A    -11.232187    11A    -11.231637    12A    -11.231532
      13A    -11.228790    14A    -11.221289    15A     -1.168739
      16A     -1.145139    17A     -1.085327    18A     -1.013336
      19A     -1.011298    20A     -1.008575    21A     -0.974521
      22A     -0.879512    23A     -0.830079    24A     -0.820184
      25A     -0.817746    26A     -0.765978    27A     -0.703147
      28A     -0.684868    29A     -0.646570    30A     -0.641150
      31A     -0.625971    32A     -0.615572    33A     -0.597863
      34A     -0.588306    35A     -0.582404    36A     -0.574910
      37A     -0.554515    38A     -0.533309    39A     -0.509575
      40A     -0.505095    41A     -0.495230    42A     -0.493272
      43A     -0.478512    44A     -0.477350    45A     -0.450145
      46A     -0.339646    47A     -0.334824    48A     -0.333889
      49A     -0.312558

  @DF-RHF Final Energy:  -538.47504522912072

   => Energetics <=

    Nuclear Repulsion Energy =            808.7725230899043254
    One-Electron Energy =               -2332.7349184013346530
    Two-Electron Energy =                 985.4873500823096037
    Total Energy =                       -538.4750452291207239
  Basis Set: (AUG-CC-PVTZ AUX)
    Blend: AUG-CC-PVTZ-RI
    Molecular point group: c1

    Geometry (in Angstrom), charge = 0, multiplicity = 1:

       Center              X                  Y                   Z               Mass
    ------------   -----------------  -----------------  -----------------  -----------------
         C            0.033256543840     1.189355420162    -0.432923126712    12.000000000000
         C           -1.251272556160     0.462118820162    -0.297892326712    12.000000000000
         C            1.240069443840     0.383363820162    -0.195963326712    12.000000000000
         C            0.105194443840     2.571280820162     0.223370673288    12.000000000000
         C           -1.555463556160    -0.596499179838    -1.168017326712    12.000000000000
         C            2.349000443840     0.355868820162    -1.050149326712    12.000000000000
         C           -2.125927556160     0.722470820162     0.763697673288    12.000000000000
         C            1.293853443840    -0.343272179838     1.001840673288    12.000000000000
         C           -2.704402556160    -1.364760179838    -0.992700326712    12.000000000000
         C            3.485492443840    -0.387772179838    -0.723807326712    12.000000000000
         C           -3.279984556160    -0.047121179838     0.943764673288    12.000000000000
         C            2.428477443840    -1.084386179838     1.332105673288    12.000000000000
         C           -3.572173556160    -1.093299179838     0.069475673288    12.000000000000
         C            3.529666443840    -1.106793179838     0.471729673288    12.000000000000
         H            0.077815443840     1.464643820162    -1.603162326712     1.007825032230
         H            0.141779443840     2.410712820162     1.304791673288     1.007825032230
         H           -0.755533556160     3.206658820162    -0.009046326712     1.007825032230
         H            1.017886443840     3.102821820162    -0.061599326712     1.007825032230
         H           -0.876268556160    -0.817052179838    -1.990776326712     1.007825032230
         H            2.318288443840     0.915024820162    -1.984679326712     1.007825032230
         H           -1.924653556160     1.538972820162     1.451931673288     1.007825032230
         H            0.431037443840    -0.346096179838     1.665570673288     1.007825032230
         H           -2.923080556160    -2.177110179838    -1.682192326712     1.007825032230
         H            4.335471443840    -0.403969179838    -1.402406326712     1.007825032230
         H           -3.949414556160     0.173238820162     1.772414673288     1.007825032230
         H            2.453629443840    -1.647431179838     2.262510673288     1.007825032230
         H           -4.470409556160    -1.689872179838     0.209384673288     1.007825032230
         H            4.411760443840    -1.688830179838     0.727710673288     1.007825032230

  Basis Set: AUG-CC-PVTZ
    Blend: AUG-CC-PVTZ
  Basis Set: (AUG-CC-PVTZ AUX)
    Blend: AUG-CC-PVTZ-JKFIT
	 Reference Energy          =    -538.4750452291207239 [Eh]
	 Singles Energy            =      -0.0000000000000000 [Eh]
	 Same-Spin Energy          =      -0.6111611823824167 [Eh]
	 Opposite-Spin Energy      =      -1.9398975711734929 [Eh]
	 Correlation Energy        =      -2.5510587535559095 [Eh]
	 Total Energy              =    -541.0261039826766591 [Eh]

	 ================> DF-SCS-MP2 Energies <==================
	-----------------------------------------------------------
	 SCS Same-Spin Scale       =       0.3333333333333333 [-]
	 SCS Opposite-Spin Scale   =       1.2000000000000000 [-]
	 SCS Same-Spin Energy      =      -0.2037203941274722 [Eh]
	 SCS Opposite-Spin Energy  =      -2.3278770854081916 [Eh]
	 SCS Correlation Energy    =      -2.5315974795356637 [Eh]
	 SCS Total Energy          =    -541.0066427086563863 [Eh]
	-----------------------------------------------------------

  Dipole Moment: [D]
     X:     0.0529      Y:     0.1431      Z:     0.0108     Total:     0.1529

*** Psi4 exiting successfully. Buy a developer a beer!
