                               Psi4 1.3.2 release

  ==> Input File <==

--------------------------------------------------------------------------
#psi4
#
memory 32 gb

molecule  {
0 1
  C        0.0298960     1.2151600    -0.5253010
  C       -1.2665262     0.4597934    -0.3031555
  C        1.2387340     0.3598870    -0.1935000
  C        0.1038590     2.5478040     0.2258340
  C       -1.5567990    -0.6199760    -1.1655540
  C        2.3476650     0.3323920    -1.0476860
  C       -2.1272630     0.6989940     0.7661610
  C        1.2925180    -0.3667490     1.0043040
  C       -2.7057380    -1.3882370    -0.9902370
  C        3.4841570    -0.4112490    -0.7213440
  C       -3.2813200    -0.0705980     0.9462280
  C        2.4271420    -1.1078630     1.3345690
  C       -3.5735090    -1.1167760     0.0719390
  C        3.5283310    -1.1302700     0.4741930
  H        0.0764800     1.4411670    -1.6006990
  H        0.1404440     2.3872360     1.3072550
  H       -0.7568690     3.1831820    -0.0065830
  H        1.0165510     3.0793450    -0.0591360
  H       -0.8776040    -0.8405290    -1.9883130
  H        2.3169530     0.8915480    -1.9822160
  H       -1.9259890     1.5154960     1.4543950
  H        0.4297020    -0.3695730     1.6680340
  H       -2.9244160    -2.2005870    -1.6797290
  H        4.3341360    -0.4274460    -1.3999430
  H       -3.9507500     0.1497620     1.7748780
  H        2.4522940    -1.6709080     2.2649740
  H       -4.4717450    -1.7133490     0.2118480
  H        4.4104250    -1.7123070     0.7301740
units angstrom
no_reorient  #important for SAPT in psi4, default
symmetry c1  #important for SAPT in psi4, default
}

set PROPERTIES_ORIGIN ["COM"]
properties('MP2/aug-cc-pvtz', properties = ['dipole'])
--------------------------------------------------------------------------

    Molecular point group: c1
  Charge       = 0
  Multiplicity = 1
  Basis Set: AUG-CC-PVTZ
    Blend: AUG-CC-PVTZ
  Basis Set: (AUG-CC-PVTZ AUX)
    Blend: AUG-CC-PVTZ-JKFIT

    Orbital Energies [Eh]
    ---------------------

    Doubly Occupied:

       1A    -11.243196     2A    -11.241248     3A    -11.240558
       4A    -11.235757     5A    -11.235368     6A    -11.235232
       7A    -11.234584     8A    -11.232286     9A    -11.232062
      10A    -11.231580    11A    -11.231434    12A    -11.231082
      13A    -11.229330    14A    -11.219657    15A     -1.164279
      16A     -1.143979    17A     -1.081583    18A     -1.012741
      19A     -1.010506    20A     -1.005829    21A     -0.974850
      22A     -0.877101    23A     -0.828622    24A     -0.819242
      25A     -0.813931    26A     -0.769755    27A     -0.700333
      28A     -0.687716    29A     -0.647332    30A     -0.637815
      31A     -0.623908    32A     -0.615434    33A     -0.596140
      34A     -0.590191    35A     -0.581689    36A     -0.576935
      37A     -0.546970    38A     -0.530857    39A     -0.514004
      40A     -0.506951    41A     -0.494107    42A     -0.491857
      43A     -0.473762    44A     -0.473584    45A     -0.467367
      46A     -0.338690    47A     -0.335337    48A     -0.333499
      49A     -0.313340

  @DF-RHF Final Energy:  -538.48799080249978

   => Energetics <=

    Nuclear Repulsion Energy =            807.3293489997785173
    One-Electron Energy =               -2329.9274552613860578
    Two-Electron Energy =                 984.1101154591076465
    Total Energy =                       -538.4879908024997803
  Basis Set: (AUG-CC-PVTZ AUX)
    Blend: AUG-CC-PVTZ-RI
    Molecular point group: c1

    Geometry (in Angstrom), charge = 0, multiplicity = 1:

       Center              X                  Y                   Z               Mass
    ------------   -----------------  -----------------  -----------------  -----------------
         C            0.032282018066     1.233995692896    -0.521005689414    12.000000000000
         C           -1.264140181934     0.478629092896    -0.298860189414    12.000000000000
         C            1.241120018066     0.378722692896    -0.189204689414    12.000000000000
         C            0.106245018066     2.566639692896     0.230129310586    12.000000000000
         C           -1.554412981934    -0.601140307104    -1.161258689414    12.000000000000
         C            2.350051018066     0.351227692896    -1.043390689414    12.000000000000
         C           -2.124876981934     0.717829692896     0.770456310586    12.000000000000
         C            1.294904018066    -0.347913307104     1.008599310586    12.000000000000
         C           -2.703351981934    -1.369401307104    -0.985941689414    12.000000000000
         C            3.486543018066    -0.392413307104    -0.717048689414    12.000000000000
         C           -3.278933981934    -0.051762307104     0.950523310586    12.000000000000
         C            2.429528018066    -1.089027307104     1.338864310586    12.000000000000
         C           -3.571122981934    -1.097940307104     0.076234310586    12.000000000000
         C            3.530717018066    -1.111434307104     0.478488310586    12.000000000000
         H            0.078866018066     1.460002692896    -1.596403689414     1.007825032230
         H            0.142830018066     2.406071692896     1.311550310586     1.007825032230
         H           -0.754482981934     3.202017692896    -0.002287689414     1.007825032230
         H            1.018937018066     3.098180692896    -0.054840689414     1.007825032230
         H           -0.875217981934    -0.821693307104    -1.984017689414     1.007825032230
         H            2.319339018066     0.910383692896    -1.977920689414     1.007825032230
         H           -1.923602981934     1.534331692896     1.458690310586     1.007825032230
         H            0.432088018066    -0.350737307104     1.672329310586     1.007825032230
         H           -2.922029981934    -2.181751307104    -1.675433689414     1.007825032230
         H            4.336522018066    -0.408610307104    -1.395647689414     1.007825032230
         H           -3.948363981934     0.168597692896     1.779173310586     1.007825032230
         H            2.454680018066    -1.652072307104     2.269269310586     1.007825032230
         H           -4.469358981934    -1.694513307104     0.216143310586     1.007825032230
         H            4.412811018066    -1.693471307104     0.734469310586     1.007825032230

  Basis Set: AUG-CC-PVTZ
    Blend: AUG-CC-PVTZ
  Basis Set: (AUG-CC-PVTZ AUX)
    Blend: AUG-CC-PVTZ-JKFIT
	 Reference Energy          =    -538.4879908024997803 [Eh]
	 Singles Energy            =      -0.0000000000000000 [Eh]
	 Same-Spin Energy          =      -0.6099628454203667 [Eh]
	 Opposite-Spin Energy      =      -1.9380981382329887 [Eh]
	 Correlation Energy        =      -2.5480609836533556 [Eh]
	 Total Energy              =    -541.0360517861531662 [Eh]

	 ================> DF-SCS-MP2 Energies <==================
	-----------------------------------------------------------
	 SCS Same-Spin Scale       =       0.3333333333333333 [-]
	 SCS Opposite-Spin Scale   =       1.2000000000000000 [-]
	 SCS Same-Spin Energy      =      -0.2033209484734556 [Eh]
	 SCS Opposite-Spin Energy  =      -2.3257177658795865 [Eh]
	 SCS Correlation Energy    =      -2.5290387143530420 [Eh]
	 SCS Total Energy          =    -541.0170295168528583 [Eh]
	-----------------------------------------------------------

  Dipole Moment: [D]
     X:     0.0408      Y:     0.1845      Z:    -0.0608     Total:     0.1985

*** Psi4 exiting successfully. Buy a developer a beer!
