                               Psi4 1.3.2 release

  ==> Input File <==

--------------------------------------------------------------------------
#psi4
#
memory 32 gb

molecule  {
0 1
  C        0.0298960     1.2151600    -0.5253010
  C       -1.2692575     0.4774120    -0.2634501
  C        1.2387340     0.3598870    -0.1935000
  C        0.1038590     2.5478040     0.2258340
  C       -1.5567990    -0.6199760    -1.1655540
  C        2.3476650     0.3323920    -1.0476860
  C       -2.1272630     0.6989940     0.7661610
  C        1.2925180    -0.3667490     1.0043040
  C       -2.7057380    -1.3882370    -0.9902370
  C        3.4841570    -0.4112490    -0.7213440
  C       -3.2813200    -0.0705980     0.9462280
  C        2.4271420    -1.1078630     1.3345690
  C       -3.5735090    -1.1167760     0.0719390
  C        3.5283310    -1.1302700     0.4741930
  H        0.0764800     1.4411670    -1.6006990
  H        0.1404440     2.3872360     1.3072550
  H       -0.7568690     3.1831820    -0.0065830
  H        1.0165510     3.0793450    -0.0591360
  H       -0.8776040    -0.8405290    -1.9883130
  H        2.3169530     0.8915480    -1.9822160
  H       -1.9259890     1.5154960     1.4543950
  H        0.4297020    -0.3695730     1.6680340
  H       -2.9244160    -2.2005870    -1.6797290
  H        4.3341360    -0.4274460    -1.3999430
  H       -3.9507500     0.1497620     1.7748780
  H        2.4522940    -1.6709080     2.2649740
  H       -4.4717450    -1.7133490     0.2118480
  H        4.4104250    -1.7123070     0.7301740
units angstrom
no_reorient  #important for SAPT in psi4, default
symmetry c1  #important for SAPT in psi4, default
}

set PROPERTIES_ORIGIN ["COM"]
properties('MP2/aug-cc-pvtz', properties = ['dipole'])
--------------------------------------------------------------------------

    Molecular point group: c1
  Charge       = 0
  Multiplicity = 1
  Basis Set: AUG-CC-PVTZ
    Blend: AUG-CC-PVTZ
  Basis Set: (AUG-CC-PVTZ AUX)
    Blend: AUG-CC-PVTZ-JKFIT

    Orbital Energies [Eh]
    ---------------------

    Doubly Occupied:

       1A    -11.243592     2A    -11.240916     3A    -11.240767
       4A    -11.235754     5A    -11.235589     6A    -11.235536
       7A    -11.234691     8A    -11.234284     9A    -11.232388
      10A    -11.232289    11A    -11.231563    12A    -11.229445
      13A    -11.227313    14A    -11.218956    15A     -1.164443
      16A     -1.144156    17A     -1.081809    18A     -1.015604
      19A     -1.010406    20A     -1.003241    21A     -0.974849
      22A     -0.876710    23A     -0.830017    24A     -0.820632
      25A     -0.812312    26A     -0.768594    27A     -0.700449
      28A     -0.688001    29A     -0.647451    30A     -0.637735
      31A     -0.623480    32A     -0.616211    33A     -0.596797
      34A     -0.591602    35A     -0.581445    36A     -0.575570
      37A     -0.547001    38A     -0.530430    39A     -0.514328
      40A     -0.506535    41A     -0.495254    42A     -0.491774
      43A     -0.474480    44A     -0.472251    45A     -0.465797
      46A     -0.340199    47A     -0.336585    48A     -0.333125
      49A     -0.311990

  @DF-RHF Final Energy:  -538.48520378883245

   => Energetics <=

    Nuclear Repulsion Energy =            807.3884067384720993
    One-Electron Energy =               -2330.0385277356040206
    Two-Electron Energy =                 984.1649172082995847
    Total Energy =                       -538.4852037888324503
  Basis Set: (AUG-CC-PVTZ AUX)
    Blend: AUG-CC-PVTZ-RI
    Molecular point group: c1

    Geometry (in Angstrom), charge = 0, multiplicity = 1:

       Center              X                  Y                   Z               Mass
    ------------   -----------------  -----------------  -----------------  -----------------
         C            0.032461995448     1.232834725778    -0.523622053019    12.000000000000
         C           -1.266691504552     0.495086725778    -0.261771153019    12.000000000000
         C            1.241299995448     0.377561725778    -0.191821053019    12.000000000000
         C            0.106424995448     2.565478725778     0.227512946981    12.000000000000
         C           -1.554233004552    -0.602301274222    -1.163875053019    12.000000000000
         C            2.350230995448     0.350066725778    -1.046007053019    12.000000000000
         C           -2.124697004552     0.716668725778     0.767839946981    12.000000000000
         C            1.295083995448    -0.349074274222     1.005982946981    12.000000000000
         C           -2.703172004552    -1.370562274222    -0.988558053019    12.000000000000
         C            3.486722995448    -0.393574274222    -0.719665053019    12.000000000000
         C           -3.278754004552    -0.052923274222     0.947906946981    12.000000000000
         C            2.429707995448    -1.090188274222     1.336247946981    12.000000000000
         C           -3.570943004552    -1.099101274222     0.073617946981    12.000000000000
         C            3.530896995448    -1.112595274222     0.475871946981    12.000000000000
         H            0.079045995448     1.458841725778    -1.599020053019     1.007825032230
         H            0.143009995448     2.404910725778     1.308933946981     1.007825032230
         H           -0.754303004552     3.200856725778    -0.004904053019     1.007825032230
         H            1.019116995448     3.097019725778    -0.057457053019     1.007825032230
         H           -0.875038004552    -0.822854274222    -1.986634053019     1.007825032230
         H            2.319518995448     0.909222725778    -1.980537053019     1.007825032230
         H           -1.923423004552     1.533170725778     1.456073946981     1.007825032230
         H            0.432267995448    -0.351898274222     1.669712946981     1.007825032230
         H           -2.921850004552    -2.182912274222    -1.678050053019     1.007825032230
         H            4.336701995448    -0.409771274222    -1.398264053019     1.007825032230
         H           -3.948184004552     0.167436725778     1.776556946981     1.007825032230
         H            2.454859995448    -1.653233274222     2.266652946981     1.007825032230
         H           -4.469179004552    -1.695674274222     0.213526946981     1.007825032230
         H            4.412990995448    -1.694632274222     0.731852946981     1.007825032230

  Basis Set: AUG-CC-PVTZ
    Blend: AUG-CC-PVTZ
  Basis Set: (AUG-CC-PVTZ AUX)
    Blend: AUG-CC-PVTZ-JKFIT
	 Reference Energy          =    -538.4852037888324503 [Eh]
	 Singles Energy            =      -0.0000000000000000 [Eh]
	 Same-Spin Energy          =      -0.6098098732457029 [Eh]
	 Opposite-Spin Energy      =      -1.9382163739884162 [Eh]
	 Correlation Energy        =      -2.5480262472341191 [Eh]
	 Total Energy              =    -541.0332300360665840 [Eh]

	 ================> DF-SCS-MP2 Energies <==================
	-----------------------------------------------------------
	 SCS Same-Spin Scale       =       0.3333333333333333 [-]
	 SCS Opposite-Spin Scale   =       1.2000000000000000 [-]
	 SCS Same-Spin Energy      =      -0.2032699577485676 [Eh]
	 SCS Opposite-Spin Energy  =      -2.3258596487860994 [Eh]
	 SCS Correlation Energy    =      -2.5291296065346671 [Eh]
	 SCS Total Energy          =    -541.0143333953670890 [Eh]
	-----------------------------------------------------------

  Dipole Moment: [D]
     X:     0.0451      Y:     0.1737      Z:    -0.0718     Total:     0.1933

*** Psi4 exiting successfully. Buy a developer a beer!
