                               Psi4 1.3.2 release

  ==> Input File <==

--------------------------------------------------------------------------
#psi4
#
memory 32 gb

molecule  {
0 1
  C        0.0298960     1.2151600    -0.5253010
  C       -1.2526080     0.4386420    -0.2954290
  C        1.2387340     0.3598870    -0.1935000
  C        0.0942004     2.3737773     0.1277451
  C       -1.5567990    -0.6199760    -1.1655540
  C        2.3476650     0.3323920    -1.0476860
  C       -2.1272630     0.6989940     0.7661610
  C        1.2925180    -0.3667490     1.0043040
  C       -2.7057380    -1.3882370    -0.9902370
  C        3.4841570    -0.4112490    -0.7213440
  C       -3.2813200    -0.0705980     0.9462280
  C        2.4271420    -1.1078630     1.3345690
  C       -3.5735090    -1.1167760     0.0719390
  C        3.5283310    -1.1302700     0.4741930
  H        0.0764800     1.4411670    -1.6006990
  H        0.1404440     2.3872360     1.3072550
  H       -0.7568690     3.1831820    -0.0065830
  H        1.0165510     3.0793450    -0.0591360
  H       -0.8776040    -0.8405290    -1.9883130
  H        2.3169530     0.8915480    -1.9822160
  H       -1.9259890     1.5154960     1.4543950
  H        0.4297020    -0.3695730     1.6680340
  H       -2.9244160    -2.2005870    -1.6797290
  H        4.3341360    -0.4274460    -1.3999430
  H       -3.9507500     0.1497620     1.7748780
  H        2.4522940    -1.6709080     2.2649740
  H       -4.4717450    -1.7133490     0.2118480
  H        4.4104250    -1.7123070     0.7301740
units angstrom
no_reorient  #important for SAPT in psi4, default
symmetry c1  #important for SAPT in psi4, default
}

set PROPERTIES_ORIGIN ["COM"]
properties('MP2/aug-cc-pvtz', properties = ['dipole'])
--------------------------------------------------------------------------

    Molecular point group: c1
  Charge       = 0
  Multiplicity = 1
  Basis Set: AUG-CC-PVTZ
    Blend: AUG-CC-PVTZ
  Basis Set: (AUG-CC-PVTZ AUX)
    Blend: AUG-CC-PVTZ-JKFIT

    Orbital Energies [Eh]
    ---------------------

    Doubly Occupied:

       1A    -11.241868     2A    -11.241763     3A    -11.235959
       4A    -11.235681     5A    -11.235503     6A    -11.234904
       7A    -11.234117     8A    -11.232885     9A    -11.232736
      10A    -11.232178    11A    -11.232082    12A    -11.231963
      13A    -11.231511    14A    -11.230197    15A     -1.175032
      16A     -1.144705    17A     -1.103966    18A     -1.013116
      19A     -1.011570    20A     -1.007165    21A     -0.987511
      22A     -0.864586    23A     -0.830016    24A     -0.818453
      25A     -0.815473    26A     -0.769244    27A     -0.702692
      28A     -0.692983    29A     -0.655505    30A     -0.641313
      31A     -0.632380    32A     -0.616106    33A     -0.598016
      34A     -0.591773    35A     -0.582807    36A     -0.581807
      37A     -0.570560    38A     -0.516203    39A     -0.508396
      40A     -0.503201    41A     -0.491261    42A     -0.488937
      43A     -0.485316    44A     -0.451060    45A     -0.446514
      46A     -0.340562    47A     -0.335088    48A     -0.334161
      49A     -0.314322

  @DF-RHF Final Energy:  -538.43866665491441

   => Energetics <=

    Nuclear Repulsion Energy =            811.6565020324296711
    One-Electron Energy =               -2338.3800467091177779
    Two-Electron Energy =                 988.2848780217736930
    Total Energy =                       -538.4386666549144138
  Basis Set: (AUG-CC-PVTZ AUX)
    Blend: AUG-CC-PVTZ-RI
    Molecular point group: c1

    Geometry (in Angstrom), charge = 0, multiplicity = 1:

       Center              X                  Y                   Z               Mass
    ------------   -----------------  -----------------  -----------------  -----------------
         C            0.032001334270     1.246856837159    -0.515051313065    12.000000000000
         C           -1.250502665730     0.470338837159    -0.285179313065    12.000000000000
         C            1.240839334270     0.391583837159    -0.183250313065    12.000000000000
         C            0.096305734270     2.405474137159     0.137994786935    12.000000000000
         C           -1.554693665730    -0.588279162841    -1.155304313065    12.000000000000
         C            2.349770334270     0.364088837159    -1.037436313065    12.000000000000
         C           -2.125157665730     0.730690837159     0.776410686935    12.000000000000
         C            1.294623334270    -0.335052162841     1.014553686935    12.000000000000
         C           -2.703632665730    -1.356540162841    -0.979987313065    12.000000000000
         C            3.486262334270    -0.379552162841    -0.711094313065    12.000000000000
         C           -3.279214665730    -0.038901162841     0.956477686935    12.000000000000
         C            2.429247334270    -1.076166162841     1.344818686935    12.000000000000
         C           -3.571403665730    -1.085079162841     0.082188686935    12.000000000000
         C            3.530436334270    -1.098573162841     0.484442686935    12.000000000000
         H            0.078585334270     1.472863837159    -1.590449313065     1.007825032230
         H            0.142549334270     2.418932837159     1.317504686935     1.007825032230
         H           -0.754763665730     3.214878837159     0.003666686935     1.007825032230
         H            1.018656334270     3.111041837159    -0.048886313065     1.007825032230
         H           -0.875498665730    -0.808832162841    -1.978063313065     1.007825032230
         H            2.319058334270     0.923244837159    -1.971966313065     1.007825032230
         H           -1.923883665730     1.547192837159     1.464644686935     1.007825032230
         H            0.431807334270    -0.337876162841     1.678283686935     1.007825032230
         H           -2.922310665730    -2.168890162841    -1.669479313065     1.007825032230
         H            4.336241334270    -0.395749162841    -1.389693313065     1.007825032230
         H           -3.948644665730     0.181458837159     1.785127686935     1.007825032230
         H            2.454399334270    -1.639211162841     2.275223686935     1.007825032230
         H           -4.469639665730    -1.681652162841     0.222097686935     1.007825032230
         H            4.412530334270    -1.680610162841     0.740423686935     1.007825032230

  Basis Set: AUG-CC-PVTZ
    Blend: AUG-CC-PVTZ
  Basis Set: (AUG-CC-PVTZ AUX)
    Blend: AUG-CC-PVTZ-JKFIT
	 Reference Energy          =    -538.4386666549144138 [Eh]
	 Singles Energy            =      -0.0000000000000000 [Eh]
	 Same-Spin Energy          =      -0.6133280830774916 [Eh]
	 Opposite-Spin Energy      =      -1.9426392117635498 [Eh]
	 Correlation Energy        =      -2.5559672948410412 [Eh]
	 Total Energy              =    -540.9946339497554391 [Eh]

	 ================> DF-SCS-MP2 Energies <==================
	-----------------------------------------------------------
	 SCS Same-Spin Scale       =       0.3333333333333333 [-]
	 SCS Opposite-Spin Scale   =       1.2000000000000000 [-]
	 SCS Same-Spin Energy      =      -0.2044426943591639 [Eh]
	 SCS Opposite-Spin Energy  =      -2.3311670541162597 [Eh]
	 SCS Correlation Energy    =      -2.5356097484754234 [Eh]
	 SCS Total Energy          =    -540.9742764033898084 [Eh]
	-----------------------------------------------------------

  Dipole Moment: [D]
     X:     0.0642      Y:     0.1275      Z:    -0.0725     Total:     0.1601

*** Psi4 exiting successfully. Buy a developer a beer!
