                               Psi4 1.3.2 release

  ==> Input File <==

--------------------------------------------------------------------------
#psi4
#
memory 32 gb

molecule  {
0 1
  C        0.0245919     1.2298056    -0.5038961
  C       -1.2526080     0.4386420    -0.2954290
  C        1.2387340     0.3598870    -0.1935000
  C        0.1038590     2.5478040     0.2258340
  C       -1.5567990    -0.6199760    -1.1655540
  C        2.3476650     0.3323920    -1.0476860
  C       -2.1272630     0.6989940     0.7661610
  C        1.2925180    -0.3667490     1.0043040
  C       -2.7057380    -1.3882370    -0.9902370
  C        3.4841570    -0.4112490    -0.7213440
  C       -3.2813200    -0.0705980     0.9462280
  C        2.4271420    -1.1078630     1.3345690
  C       -3.5735090    -1.1167760     0.0719390
  C        3.5283310    -1.1302700     0.4741930
  H        0.0764800     1.4411670    -1.6006990
  H        0.1404440     2.3872360     1.3072550
  H       -0.7568690     3.1831820    -0.0065830
  H        1.0165510     3.0793450    -0.0591360
  H       -0.8776040    -0.8405290    -1.9883130
  H        2.3169530     0.8915480    -1.9822160
  H       -1.9259890     1.5154960     1.4543950
  H        0.4297020    -0.3695730     1.6680340
  H       -2.9244160    -2.2005870    -1.6797290
  H        4.3341360    -0.4274460    -1.3999430
  H       -3.9507500     0.1497620     1.7748780
  H        2.4522940    -1.6709080     2.2649740
  H       -4.4717450    -1.7133490     0.2118480
  H        4.4104250    -1.7123070     0.7301740
units angstrom
no_reorient  #important for SAPT in psi4, default
symmetry c1  #important for SAPT in psi4, default
}

set PROPERTIES_ORIGIN ["COM"]
properties('MP2/aug-cc-pvtz', properties = ['dipole'])
--------------------------------------------------------------------------

    Molecular point group: c1
  Charge       = 0
  Multiplicity = 1
  Basis Set: AUG-CC-PVTZ
    Blend: AUG-CC-PVTZ
  Basis Set: (AUG-CC-PVTZ AUX)
    Blend: AUG-CC-PVTZ-JKFIT

    Orbital Energies [Eh]
    ---------------------

    Doubly Occupied:

       1A    -11.244166     2A    -11.241449     3A    -11.240479
       4A    -11.235641     5A    -11.235426     6A    -11.235329
       7A    -11.234405     8A    -11.232090     9A    -11.232009
      10A    -11.231401    11A    -11.231220    12A    -11.230972
      13A    -11.229037    14A    -11.219375    15A     -1.164450
      16A     -1.143868    17A     -1.082686    18A     -1.012313
      19A     -1.010642    20A     -1.005775    21A     -0.977699
      22A     -0.876181    23A     -0.828428    24A     -0.819152
      25A     -0.813556    26A     -0.769066    27A     -0.700074
      28A     -0.687397    29A     -0.647157    30A     -0.637356
      31A     -0.624548    32A     -0.615052    33A     -0.596780
      34A     -0.590142    35A     -0.581746    36A     -0.577474
      37A     -0.549740    38A     -0.531899    39A     -0.512682
      40A     -0.506511    41A     -0.494171    42A     -0.491917
      43A     -0.478194    44A     -0.470143    45A     -0.464568
      46A     -0.339696    47A     -0.334585    48A     -0.333564
      49A     -0.312927

  @DF-RHF Final Energy:  -538.48726848556839

   => Energetics <=

    Nuclear Repulsion Energy =            807.5339358854071179
    One-Electron Energy =               -2330.3321339646540764
    Two-Electron Energy =                 984.3109295936785657
    Total Energy =                       -538.4872684855683929
  Basis Set: (AUG-CC-PVTZ AUX)
    Blend: AUG-CC-PVTZ-RI
    Molecular point group: c1

    Geometry (in Angstrom), charge = 0, multiplicity = 1:

       Center              X                  Y                   Z               Mass
    ------------   -----------------  -----------------  -----------------  -----------------
         C            0.026410297094     1.249069988700    -0.501520385608    12.000000000000
         C           -1.250789602906     0.457906388700    -0.293053285608    12.000000000000
         C            1.240552397094     0.379151388700    -0.191124285608    12.000000000000
         C            0.105677397094     2.567068388700     0.228209714392    12.000000000000
         C           -1.554980602906    -0.600711611300    -1.163178285608    12.000000000000
         C            2.349483397094     0.351656388700    -1.045310285608    12.000000000000
         C           -2.125444602906     0.718258388700     0.768536714392    12.000000000000
         C            1.294336397094    -0.347484611300     1.006679714392    12.000000000000
         C           -2.703919602906    -1.368972611300    -0.987861285608    12.000000000000
         C            3.485975397094    -0.391984611300    -0.718968285608    12.000000000000
         C           -3.279501602906    -0.051333611300     0.948603714392    12.000000000000
         C            2.428960397094    -1.088598611300     1.336944714392    12.000000000000
         C           -3.571690602906    -1.097511611300     0.074314714392    12.000000000000
         C            3.530149397094    -1.111005611300     0.476568714392    12.000000000000
         H            0.078298397094     1.460431388700    -1.598323285608     1.007825032230
         H            0.142262397094     2.406500388700     1.309630714392     1.007825032230
         H           -0.755050602906     3.202446388700    -0.004207285608     1.007825032230
         H            1.018369397094     3.098609388700    -0.056760285608     1.007825032230
         H           -0.875785602906    -0.821264611300    -1.985937285608     1.007825032230
         H            2.318771397094     0.910812388700    -1.979840285608     1.007825032230
         H           -1.924170602906     1.534760388700     1.456770714392     1.007825032230
         H            0.431520397094    -0.350308611300     1.670409714392     1.007825032230
         H           -2.922597602906    -2.181322611300    -1.677353285608     1.007825032230
         H            4.335954397094    -0.408181611300    -1.397567285608     1.007825032230
         H           -3.948931602906     0.169026388700     1.777253714392     1.007825032230
         H            2.454112397094    -1.651643611300     2.267349714392     1.007825032230
         H           -4.469926602906    -1.694084611300     0.214223714392     1.007825032230
         H            4.412243397094    -1.693042611300     0.732549714392     1.007825032230

  Basis Set: AUG-CC-PVTZ
    Blend: AUG-CC-PVTZ
  Basis Set: (AUG-CC-PVTZ AUX)
    Blend: AUG-CC-PVTZ-JKFIT
	 Reference Energy          =    -538.4872684855683929 [Eh]
	 Singles Energy            =      -0.0000000000000000 [Eh]
	 Same-Spin Energy          =      -0.6101574045336957 [Eh]
	 Opposite-Spin Energy      =      -1.9382977927048310 [Eh]
	 Correlation Energy        =      -2.5484551972385265 [Eh]
	 Total Energy              =    -541.0357236828069745 [Eh]

	 ================> DF-SCS-MP2 Energies <==================
	-----------------------------------------------------------
	 SCS Same-Spin Scale       =       0.3333333333333333 [-]
	 SCS Opposite-Spin Scale   =       1.2000000000000000 [-]
	 SCS Same-Spin Energy      =      -0.2033858015112319 [Eh]
	 SCS Opposite-Spin Energy  =      -2.3259573512457972 [Eh]
	 SCS Correlation Energy    =      -2.5293431527570291 [Eh]
	 SCS Total Energy          =    -541.0166116383254575 [Eh]
	-----------------------------------------------------------

  Dipole Moment: [D]
     X:     0.0527      Y:     0.2116      Z:    -0.0503     Total:     0.2238

*** Psi4 exiting successfully. Buy a developer a beer!
