                               Psi4 1.3.2 release

  ==> Input File <==

--------------------------------------------------------------------------
#psi4
#
memory 32 gb

molecule  {
0 1
  C        0.0303689     1.2022211    -0.5019160
  C       -1.2526080     0.4386420    -0.2954290
  C        1.2387340     0.3598870    -0.1935000
  C        0.1038590     2.5478040     0.2258340
  C       -1.5567990    -0.6199760    -1.1655540
  C        2.3476650     0.3323920    -1.0476860
  C       -2.1272630     0.6989940     0.7661610
  C        1.2925180    -0.3667490     1.0043040
  C       -2.7057380    -1.3882370    -0.9902370
  C        3.4841570    -0.4112490    -0.7213440
  C       -3.2813200    -0.0705980     0.9462280
  C        2.4271420    -1.1078630     1.3345690
  C       -3.5735090    -1.1167760     0.0719390
  C        3.5283310    -1.1302700     0.4741930
  H        0.0764800     1.4411670    -1.6006990
  H        0.1404440     2.3872360     1.3072550
  H       -0.7568690     3.1831820    -0.0065830
  H        1.0165510     3.0793450    -0.0591360
  H       -0.8776040    -0.8405290    -1.9883130
  H        2.3169530     0.8915480    -1.9822160
  H       -1.9259890     1.5154960     1.4543950
  H        0.4297020    -0.3695730     1.6680340
  H       -2.9244160    -2.2005870    -1.6797290
  H        4.3341360    -0.4274460    -1.3999430
  H       -3.9507500     0.1497620     1.7748780
  H        2.4522940    -1.6709080     2.2649740
  H       -4.4717450    -1.7133490     0.2118480
  H        4.4104250    -1.7123070     0.7301740
units angstrom
no_reorient  #important for SAPT in psi4, default
symmetry c1  #important for SAPT in psi4, default
}

set PROPERTIES_ORIGIN ["COM"]
properties('MP2/aug-cc-pvtz', properties = ['dipole'])
--------------------------------------------------------------------------

    Molecular point group: c1
  Charge       = 0
  Multiplicity = 1
  Basis Set: AUG-CC-PVTZ
    Blend: AUG-CC-PVTZ
  Basis Set: (AUG-CC-PVTZ AUX)
    Blend: AUG-CC-PVTZ-JKFIT

    Orbital Energies [Eh]
    ---------------------

    Doubly Occupied:

       1A    -11.243894     2A    -11.241020     3A    -11.239807
       4A    -11.235778     5A    -11.235469     6A    -11.235431
       7A    -11.234488     8A    -11.232262     9A    -11.232245
      10A    -11.231607    11A    -11.231498    12A    -11.230880
      13A    -11.229055    14A    -11.220224    15A     -1.165477
      16A     -1.144201    17A     -1.082526    18A     -1.012543
      19A     -1.010836    20A     -1.006541    21A     -0.974770
      22A     -0.877767    23A     -0.828902    24A     -0.819313
      25A     -0.814802    26A     -0.768706    27A     -0.700836
      28A     -0.686901    29A     -0.647316    30A     -0.638423
      31A     -0.624654    32A     -0.615211    33A     -0.596374
      34A     -0.589541    35A     -0.581882    36A     -0.576878
      37A     -0.548782    38A     -0.531454    39A     -0.511324
      40A     -0.507190    41A     -0.494506    42A     -0.492174
      43A     -0.476004    44A     -0.472393    45A     -0.465905
      46A     -0.339419    47A     -0.334656    48A     -0.333498
      49A     -0.313194

  @DF-RHF Final Energy:  -538.48707258092099

   => Energetics <=

    Nuclear Repulsion Energy =            807.8300391892194057
    One-Electron Energy =               -2330.9171127677263939
    Two-Electron Energy =                 984.6000009975859939
    Total Energy =                       -538.4870725809209944
  Basis Set: (AUG-CC-PVTZ AUX)
    Blend: AUG-CC-PVTZ-RI
    Molecular point group: c1

    Geometry (in Angstrom), charge = 0, multiplicity = 1:

       Center              X                  Y                   Z               Mass
    ------------   -----------------  -----------------  -----------------  -----------------
         C            0.031806625132     1.223303152843    -0.499670763114    12.000000000000
         C           -1.251170274868     0.459724052843    -0.293183763114    12.000000000000
         C            1.240171725132     0.380969052843    -0.191254763114    12.000000000000
         C            0.105296725132     2.568886052843     0.228079236886    12.000000000000
         C           -1.555361274868    -0.598893947157    -1.163308763114    12.000000000000
         C            2.349102725132     0.353474052843    -1.045440763114    12.000000000000
         C           -2.125825274868     0.720076052843     0.768406236886    12.000000000000
         C            1.293955725132    -0.345666947157     1.006549236886    12.000000000000
         C           -2.704300274868    -1.367154947157    -0.987991763114    12.000000000000
         C            3.485594725132    -0.390166947157    -0.719098763114    12.000000000000
         C           -3.279882274868    -0.049515947157     0.948473236886    12.000000000000
         C            2.428579725132    -1.086780947157     1.336814236886    12.000000000000
         C           -3.572071274868    -1.095693947157     0.074184236886    12.000000000000
         C            3.529768725132    -1.109187947157     0.476438236886    12.000000000000
         H            0.077917725132     1.462249052843    -1.598453763114     1.007825032230
         H            0.141881725132     2.408318052843     1.309500236886     1.007825032230
         H           -0.755431274868     3.204264052843    -0.004337763114     1.007825032230
         H            1.017988725132     3.100427052843    -0.056890763114     1.007825032230
         H           -0.876166274868    -0.819446947157    -1.986067763114     1.007825032230
         H            2.318390725132     0.912630052843    -1.979970763114     1.007825032230
         H           -1.924551274868     1.536578052843     1.456640236886     1.007825032230
         H            0.431139725132    -0.348490947157     1.670279236886     1.007825032230
         H           -2.922978274868    -2.179504947157    -1.677483763114     1.007825032230
         H            4.335573725132    -0.406363947157    -1.397697763114     1.007825032230
         H           -3.949312274868     0.170844052843     1.777123236886     1.007825032230
         H            2.453731725132    -1.649825947157     2.267219236886     1.007825032230
         H           -4.470307274868    -1.692266947157     0.214093236886     1.007825032230
         H            4.411862725132    -1.691224947157     0.732419236886     1.007825032230

  Basis Set: AUG-CC-PVTZ
    Blend: AUG-CC-PVTZ
  Basis Set: (AUG-CC-PVTZ AUX)
    Blend: AUG-CC-PVTZ-JKFIT
	 Reference Energy          =    -538.4870725809209944 [Eh]
	 Singles Energy            =      -0.0000000000000000 [Eh]
	 Same-Spin Energy          =      -0.6102419253830010 [Eh]
	 Opposite-Spin Energy      =      -1.9384235954154370 [Eh]
	 Correlation Energy        =      -2.5486655207984379 [Eh]
	 Total Energy              =    -541.0357381017194029 [Eh]

	 ================> DF-SCS-MP2 Energies <==================
	-----------------------------------------------------------
	 SCS Same-Spin Scale       =       0.3333333333333333 [-]
	 SCS Opposite-Spin Scale   =       1.2000000000000000 [-]
	 SCS Same-Spin Energy      =      -0.2034139751276670 [Eh]
	 SCS Opposite-Spin Energy  =      -2.3261083144985242 [Eh]
	 SCS Correlation Energy    =      -2.5295222896261911 [Eh]
	 SCS Total Energy          =    -541.0165948705472374 [Eh]
	-----------------------------------------------------------

  Dipole Moment: [D]
     X:     0.0390      Y:     0.1886      Z:    -0.0485     Total:     0.1986

*** Psi4 exiting successfully. Buy a developer a beer!
