                               Psi4 1.3.2 release

  ==> Input File <==

--------------------------------------------------------------------------
#psi4
#
memory 32 gb

molecule  {
0 1
  C        0.0298960     1.2151600    -0.5253010
  C       -1.2526080     0.4386420    -0.2954290
  C        1.2387340     0.3598870    -0.1935000
  C        0.1038590     2.5478040     0.2258340
  C       -1.5567990    -0.6199760    -1.1655540
  C        2.3476650     0.3323920    -1.0476860
  C       -2.0647841     0.6803964     0.6903288
  C        1.2925180    -0.3667490     1.0043040
  C       -2.7057380    -1.3882370    -0.9902370
  C        3.4841570    -0.4112490    -0.7213440
  C       -3.2813200    -0.0705980     0.9462280
  C        2.4271420    -1.1078630     1.3345690
  C       -3.5735090    -1.1167760     0.0719390
  C        3.5283310    -1.1302700     0.4741930
  H        0.0764800     1.4411670    -1.6006990
  H        0.1404440     2.3872360     1.3072550
  H       -0.7568690     3.1831820    -0.0065830
  H        1.0165510     3.0793450    -0.0591360
  H       -0.8776040    -0.8405290    -1.9883130
  H        2.3169530     0.8915480    -1.9822160
  H       -1.9259890     1.5154960     1.4543950
  H        0.4297020    -0.3695730     1.6680340
  H       -2.9244160    -2.2005870    -1.6797290
  H        4.3341360    -0.4274460    -1.3999430
  H       -3.9507500     0.1497620     1.7748780
  H        2.4522940    -1.6709080     2.2649740
  H       -4.4717450    -1.7133490     0.2118480
  H        4.4104250    -1.7123070     0.7301740
units angstrom
no_reorient  #important for SAPT in psi4, default
symmetry c1  #important for SAPT in psi4, default
}

set PROPERTIES_ORIGIN ["COM"]
properties('MP2/aug-cc-pvtz', properties = ['dipole'])
--------------------------------------------------------------------------

    Molecular point group: c1
  Charge       = 0
  Multiplicity = 1
  Basis Set: AUG-CC-PVTZ
    Blend: AUG-CC-PVTZ
  Basis Set: (AUG-CC-PVTZ AUX)
    Blend: AUG-CC-PVTZ-JKFIT

    Orbital Energies [Eh]
    ---------------------

    Doubly Occupied:

       1A    -11.242337     2A    -11.240232     3A    -11.239960
       4A    -11.235168     5A    -11.234602     6A    -11.234467
       7A    -11.232731     8A    -11.232045     9A    -11.231742
      10A    -11.231261    11A    -11.230070    12A    -11.229137
      13A    -11.227685    14A    -11.218908    15A     -1.169885
      16A     -1.146285    17A     -1.081765    18A     -1.016782
      19A     -1.009658    20A     -1.002792    21A     -0.976810
      22A     -0.876166    23A     -0.832313    24A     -0.822834
      25A     -0.809916    26A     -0.769216    27A     -0.699770
      28A     -0.686301    29A     -0.646937    30A     -0.636654
      31A     -0.625911    32A     -0.618035    33A     -0.596902
      34A     -0.590800    35A     -0.580196    36A     -0.572402
      37A     -0.545937    38A     -0.526345    39A     -0.514902
      40A     -0.508107    41A     -0.496276    42A     -0.492196
      43A     -0.474903    44A     -0.472840    45A     -0.460099
      46A     -0.346465    47A     -0.334297    48A     -0.331399
      49A     -0.315093

  @DF-RHF Final Energy:  -538.47536225390490

   => Energetics <=

    Nuclear Repulsion Energy =            809.1545814156787628
    One-Electron Energy =               -2333.5648214071179609
    Two-Electron Energy =                 985.9348777375341797
    Total Energy =                       -538.4753622539049047
  Basis Set: (AUG-CC-PVTZ AUX)
    Blend: AUG-CC-PVTZ-RI
    Molecular point group: c1

    Geometry (in Angstrom), charge = 0, multiplicity = 1:

       Center              X                  Y                   Z               Mass
    ------------   -----------------  -----------------  -----------------  -----------------
         C            0.027247876816     1.236614929498    -0.516517905011    12.000000000000
         C           -1.255256123184     0.460096929498    -0.286645905011    12.000000000000
         C            1.236085876816     0.381341929498    -0.184716905011    12.000000000000
         C            0.101210876816     2.569258929498     0.234617094989    12.000000000000
         C           -1.559447123184    -0.598521070502    -1.156770905011    12.000000000000
         C            2.345016876816     0.353846929498    -1.038902905011    12.000000000000
         C           -2.067432223184     0.701851329498     0.699111894989    12.000000000000
         C            1.289869876816    -0.345294070502     1.013087094989    12.000000000000
         C           -2.708386123184    -1.366782070502    -0.981453905011    12.000000000000
         C            3.481508876816    -0.389794070502    -0.712560905011    12.000000000000
         C           -3.283968123184    -0.049143070502     0.955011094989    12.000000000000
         C            2.424493876816    -1.086408070502     1.343352094989    12.000000000000
         C           -3.576157123184    -1.095321070502     0.080722094989    12.000000000000
         C            3.525682876816    -1.108815070502     0.482976094989    12.000000000000
         H            0.073831876816     1.462621929498    -1.591915905011     1.007825032230
         H            0.137795876816     2.408690929498     1.316038094989     1.007825032230
         H           -0.759517123184     3.204636929498     0.002200094989     1.007825032230
         H            1.013902876816     3.100799929498    -0.050352905011     1.007825032230
         H           -0.880252123184    -0.819074070502    -1.979529905011     1.007825032230
         H            2.314304876816     0.913002929498    -1.973432905011     1.007825032230
         H           -1.928637123184     1.536950929498     1.463178094989     1.007825032230
         H            0.427053876816    -0.348118070502     1.676817094989     1.007825032230
         H           -2.927064123184    -2.179132070502    -1.670945905011     1.007825032230
         H            4.331487876816    -0.405991070502    -1.391159905011     1.007825032230
         H           -3.953398123184     0.171216929498     1.783661094989     1.007825032230
         H            2.449645876816    -1.649453070502     2.273757094989     1.007825032230
         H           -4.474393123184    -1.691894070502     0.220631094989     1.007825032230
         H            4.407776876816    -1.690852070502     0.738957094989     1.007825032230

  Basis Set: AUG-CC-PVTZ
    Blend: AUG-CC-PVTZ
  Basis Set: (AUG-CC-PVTZ AUX)
    Blend: AUG-CC-PVTZ-JKFIT
	 Reference Energy          =    -538.4753622539049047 [Eh]
	 Singles Energy            =      -0.0000000000000000 [Eh]
	 Same-Spin Energy          =      -0.6097531102530993 [Eh]
	 Opposite-Spin Energy      =      -1.9384260804035756 [Eh]
	 Correlation Energy        =      -2.5481791906566746 [Eh]
	 Total Energy              =    -541.0235414445616016 [Eh]

	 ================> DF-SCS-MP2 Energies <==================
	-----------------------------------------------------------
	 SCS Same-Spin Scale       =       0.3333333333333333 [-]
	 SCS Opposite-Spin Scale   =       1.2000000000000000 [-]
	 SCS Same-Spin Energy      =      -0.2032510367510331 [Eh]
	 SCS Opposite-Spin Energy  =      -2.3261112964842905 [Eh]
	 SCS Correlation Energy    =      -2.5293623332353237 [Eh]
	 SCS Total Energy          =    -541.0047245871402311 [Eh]
	-----------------------------------------------------------

  Dipole Moment: [D]
     X:    -0.0080      Y:     0.1690      Z:    -0.0576     Total:     0.1787

*** Psi4 exiting successfully. Buy a developer a beer!
