                               Psi4 1.3.2 release

  ==> Input File <==

--------------------------------------------------------------------------
#psi4
#
memory 32 gb

molecule  {
0 1
  C        0.0282312     1.2709339    -0.6164827
  C       -1.2526080     0.4386420    -0.2954290
  C        1.2387340     0.3598870    -0.1935000
  C        0.1038590     2.5478040     0.2258340
  C       -1.5567990    -0.6199760    -1.1655540
  C        2.3476650     0.3323920    -1.0476860
  C       -2.1272630     0.6989940     0.7661610
  C        1.2925180    -0.3667490     1.0043040
  C       -2.7057380    -1.3882370    -0.9902370
  C        3.4841570    -0.4112490    -0.7213440
  C       -3.2813200    -0.0705980     0.9462280
  C        2.4271420    -1.1078630     1.3345690
  C       -3.5735090    -1.1167760     0.0719390
  C        3.5283310    -1.1302700     0.4741930
  H        0.0764800     1.4411670    -1.6006990
  H        0.1404440     2.3872360     1.3072550
  H       -0.7568690     3.1831820    -0.0065830
  H        1.0165510     3.0793450    -0.0591360
  H       -0.8776040    -0.8405290    -1.9883130
  H        2.3169530     0.8915480    -1.9822160
  H       -1.9259890     1.5154960     1.4543950
  H        0.4297020    -0.3695730     1.6680340
  H       -2.9244160    -2.2005870    -1.6797290
  H        4.3341360    -0.4274460    -1.3999430
  H       -3.9507500     0.1497620     1.7748780
  H        2.4522940    -1.6709080     2.2649740
  H       -4.4717450    -1.7133490     0.2118480
  H        4.4104250    -1.7123070     0.7301740
units angstrom
no_reorient  #important for SAPT in psi4, default
symmetry c1  #important for SAPT in psi4, default
}

set PROPERTIES_ORIGIN ["COM"]
properties('MP2/aug-cc-pvtz', properties = ['dipole'])
--------------------------------------------------------------------------

    Molecular point group: c1
  Charge       = 0
  Multiplicity = 1
  Basis Set: AUG-CC-PVTZ
    Blend: AUG-CC-PVTZ
  Basis Set: (AUG-CC-PVTZ AUX)
    Blend: AUG-CC-PVTZ-JKFIT

    Orbital Energies [Eh]
    ---------------------

    Doubly Occupied:

       1A    -11.242866     2A    -11.242608     3A    -11.241928
       4A    -11.235589     5A    -11.234702     6A    -11.234664
       7A    -11.234386     8A    -11.231665     9A    -11.231351
      10A    -11.230588    11A    -11.230187    12A    -11.229843
      13A    -11.229643    14A    -11.220303    15A     -1.160720
      16A     -1.142847    17A     -1.078447    18A     -1.011578
      19A     -1.010106    20A     -1.003357    21A     -0.976305
      22A     -0.877562    23A     -0.826953    24A     -0.818322
      25A     -0.810042    26A     -0.776767    27A     -0.697500
      28A     -0.691645    29A     -0.649794    30A     -0.633686
      31A     -0.622457    32A     -0.614584    33A     -0.595141
      34A     -0.591053    35A     -0.581178    36A     -0.578341
      37A     -0.543938    38A     -0.533428    39A     -0.524891
      40A     -0.504934    41A     -0.493472    42A     -0.490602
      43A     -0.483231    44A     -0.470268    45A     -0.453562
      46A     -0.338887    47A     -0.334183    48A     -0.332930
      49A     -0.312718

  @DF-RHF Final Energy:  -538.47639184574314

   => Energetics <=

    Nuclear Repulsion Energy =            806.0871549733573147
    One-Electron Energy =               -2327.4555944507978893
    Two-Electron Energy =                 982.8920476316973236
    Total Energy =                       -538.4763918457431373
  Basis Set: (AUG-CC-PVTZ AUX)
    Blend: AUG-CC-PVTZ-RI
    Molecular point group: c1

    Geometry (in Angstrom), charge = 0, multiplicity = 1:

       Center              X                  Y                   Z               Mass
    ------------   -----------------  -----------------  -----------------  -----------------
         C            0.029809787596     1.287488163949    -0.606688158882    12.000000000000
         C           -1.251029412404     0.455196263949    -0.285634458882    12.000000000000
         C            1.240312587596     0.376441263949    -0.183705458882    12.000000000000
         C            0.105437587596     2.564358263949     0.235628541118    12.000000000000
         C           -1.555220412404    -0.603421736051    -1.155759458882    12.000000000000
         C            2.349243587596     0.348946263949    -1.037891458882    12.000000000000
         C           -2.125684412404     0.715548263949     0.775955541118    12.000000000000
         C            1.294096587596    -0.350194736051     1.014098541118    12.000000000000
         C           -2.704159412404    -1.371682736051    -0.980442458882    12.000000000000
         C            3.485735587596    -0.394694736051    -0.711549458882    12.000000000000
         C           -3.279741412404    -0.054043736051     0.956022541118    12.000000000000
         C            2.428720587596    -1.091308736051     1.344363541118    12.000000000000
         C           -3.571930412404    -1.100221736051     0.081733541118    12.000000000000
         C            3.529909587596    -1.113715736051     0.483987541118    12.000000000000
         H            0.078058587596     1.457721263949    -1.590904458882     1.007825032230
         H            0.142022587596     2.403790263949     1.317049541118     1.007825032230
         H           -0.755290412404     3.199736263949     0.003211541118     1.007825032230
         H            1.018129587596     3.095899263949    -0.049341458882     1.007825032230
         H           -0.876025412404    -0.823974736051    -1.978518458882     1.007825032230
         H            2.318531587596     0.908102263949    -1.972421458882     1.007825032230
         H           -1.924410412404     1.532050263949     1.464189541118     1.007825032230
         H            0.431280587596    -0.353018736051     1.677828541118     1.007825032230
         H           -2.922837412404    -2.184032736051    -1.669934458882     1.007825032230
         H            4.335714587596    -0.410891736051    -1.390148458882     1.007825032230
         H           -3.949171412404     0.166316263949     1.784672541118     1.007825032230
         H            2.453872587596    -1.654353736051     2.274768541118     1.007825032230
         H           -4.470166412404    -1.696794736051     0.221642541118     1.007825032230
         H            4.412003587596    -1.695752736051     0.739968541118     1.007825032230

  Basis Set: AUG-CC-PVTZ
    Blend: AUG-CC-PVTZ
  Basis Set: (AUG-CC-PVTZ AUX)
    Blend: AUG-CC-PVTZ-JKFIT
	 Reference Energy          =    -538.4763918457431373 [Eh]
	 Singles Energy            =      -0.0000000000000000 [Eh]
	 Same-Spin Energy          =      -0.6095413692567965 [Eh]
	 Opposite-Spin Energy      =      -1.9379482135517596 [Eh]
	 Correlation Energy        =      -2.5474895828085562 [Eh]
	 Total Energy              =    -541.0238814285517037 [Eh]

	 ================> DF-SCS-MP2 Energies <==================
	-----------------------------------------------------------
	 SCS Same-Spin Scale       =       0.3333333333333333 [-]
	 SCS Opposite-Spin Scale   =       1.2000000000000000 [-]
	 SCS Same-Spin Energy      =      -0.2031804564189321 [Eh]
	 SCS Opposite-Spin Energy  =      -2.3255378562621116 [Eh]
	 SCS Correlation Energy    =      -2.5287183126810437 [Eh]
	 SCS Total Energy          =    -541.0051101584241451 [Eh]
	-----------------------------------------------------------

  Dipole Moment: [D]
     X:     0.0398      Y:     0.2583      Z:    -0.1123     Total:     0.2845

*** Psi4 exiting successfully. Buy a developer a beer!
