                               Psi4 1.3.2 release

  ==> Input File <==

--------------------------------------------------------------------------
#psi4
#
memory 32 gb

molecule  {
0 1
  C        0.0298960     1.2151600    -0.5253010
  C       -1.2382991     0.4177271    -0.2877725
  C        1.2387340     0.3598870    -0.1935000
  C        0.1038590     2.5478040     0.2258340
  C       -1.5567990    -0.6199760    -1.1655540
  C        2.3476650     0.3323920    -1.0476860
  C       -2.1272630     0.6989940     0.7661610
  C        1.2925180    -0.3667490     1.0043040
  C       -2.7057380    -1.3882370    -0.9902370
  C        3.4841570    -0.4112490    -0.7213440
  C       -3.2813200    -0.0705980     0.9462280
  C        2.4271420    -1.1078630     1.3345690
  C       -3.5735090    -1.1167760     0.0719390
  C        3.5283310    -1.1302700     0.4741930
  H        0.0764800     1.4411670    -1.6006990
  H        0.1404440     2.3872360     1.3072550
  H       -0.7568690     3.1831820    -0.0065830
  H        1.0165510     3.0793450    -0.0591360
  H       -0.8776040    -0.8405290    -1.9883130
  H        2.3169530     0.8915480    -1.9822160
  H       -1.9259890     1.5154960     1.4543950
  H        0.4297020    -0.3695730     1.6680340
  H       -2.9244160    -2.2005870    -1.6797290
  H        4.3341360    -0.4274460    -1.3999430
  H       -3.9507500     0.1497620     1.7748780
  H        2.4522940    -1.6709080     2.2649740
  H       -4.4717450    -1.7133490     0.2118480
  H        4.4104250    -1.7123070     0.7301740
units angstrom
no_reorient  #important for SAPT in psi4, default
symmetry c1  #important for SAPT in psi4, default
}

set PROPERTIES_ORIGIN ["COM"]
properties('MP2/aug-cc-pvtz', properties = ['dipole'])
--------------------------------------------------------------------------

    Molecular point group: c1
  Charge       = 0
  Multiplicity = 1
  Basis Set: AUG-CC-PVTZ
    Blend: AUG-CC-PVTZ
  Basis Set: (AUG-CC-PVTZ AUX)
    Blend: AUG-CC-PVTZ-JKFIT

    Orbital Energies [Eh]
    ---------------------

    Doubly Occupied:

       1A    -11.243293     2A    -11.241257     3A    -11.239951
       4A    -11.235702     5A    -11.235322     6A    -11.235123
       7A    -11.234427     8A    -11.232308     9A    -11.231903
      10A    -11.231597    11A    -11.231134    12A    -11.229777
      13A    -11.229045    14A    -11.220427    15A     -1.164604
      16A     -1.143808    17A     -1.081695    18A     -1.012021
      19A     -1.010922    20A     -1.005704    21A     -0.975055
      22A     -0.877654    23A     -0.828414    24A     -0.818996
      25A     -0.813558    26A     -0.770045    27A     -0.699853
      28A     -0.687789    29A     -0.648202    30A     -0.637104
      31A     -0.624451    32A     -0.614707    33A     -0.595729
      34A     -0.589737    35A     -0.581770    36A     -0.577711
      37A     -0.547289    38A     -0.531123    39A     -0.514000
      40A     -0.506688    41A     -0.494546    42A     -0.491776
      43A     -0.476598    44A     -0.473884    45A     -0.464639
      46A     -0.340021    47A     -0.333979    48A     -0.333061
      49A     -0.313028

  @DF-RHF Final Energy:  -538.48792045130995

   => Energetics <=

    Nuclear Repulsion Energy =            807.6496146794912647
    One-Electron Energy =               -2330.5722127022850145
    Two-Electron Energy =                 984.4346775714839168
    Total Energy =                       -538.4879204513099467
  Basis Set: (AUG-CC-PVTZ AUX)
    Blend: AUG-CC-PVTZ-RI
    Molecular point group: c1

    Geometry (in Angstrom), charge = 0, multiplicity = 1:

       Center              X                  Y                   Z               Mass
    ------------   -----------------  -----------------  -----------------  -----------------
         C            0.030422010180     1.236767626596    -0.522019343006    12.000000000000
         C           -1.237773089820     0.439334726596    -0.284490843006    12.000000000000
         C            1.239260010180     0.381494626596    -0.190218343006    12.000000000000
         C            0.104385010180     2.569411626596     0.229115656994    12.000000000000
         C           -1.556272989820    -0.598368373404    -1.162272343006    12.000000000000
         C            2.348191010180     0.353999626596    -1.044404343006    12.000000000000
         C           -2.126736989820     0.720601626596     0.769442656994    12.000000000000
         C            1.293044010180    -0.345141373404     1.007585656994    12.000000000000
         C           -2.705211989820    -1.366629373404    -0.986955343006    12.000000000000
         C            3.484683010180    -0.389641373404    -0.718062343006    12.000000000000
         C           -3.280793989820    -0.048990373404     0.949509656994    12.000000000000
         C            2.427668010180    -1.086255373404     1.337850656994    12.000000000000
         C           -3.572982989820    -1.095168373404     0.075220656994    12.000000000000
         C            3.528857010180    -1.108662373404     0.477474656994    12.000000000000
         H            0.077006010180     1.462774626596    -1.597417343006     1.007825032230
         H            0.140970010180     2.408843626596     1.310536656994     1.007825032230
         H           -0.756342989820     3.204789626596    -0.003301343006     1.007825032230
         H            1.017077010180     3.100952626596    -0.055854343006     1.007825032230
         H           -0.877077989820    -0.818921373404    -1.985031343006     1.007825032230
         H            2.317479010180     0.913155626596    -1.978934343006     1.007825032230
         H           -1.925462989820     1.537103626596     1.457676656994     1.007825032230
         H            0.430228010180    -0.347965373404     1.671315656994     1.007825032230
         H           -2.923889989820    -2.178979373404    -1.676447343006     1.007825032230
         H            4.334662010180    -0.405838373404    -1.396661343006     1.007825032230
         H           -3.950223989820     0.171369626596     1.778159656994     1.007825032230
         H            2.452820010180    -1.649300373404     2.268255656994     1.007825032230
         H           -4.471218989820    -1.691741373404     0.215129656994     1.007825032230
         H            4.410951010180    -1.690699373404     0.733455656994     1.007825032230

  Basis Set: AUG-CC-PVTZ
    Blend: AUG-CC-PVTZ
  Basis Set: (AUG-CC-PVTZ AUX)
    Blend: AUG-CC-PVTZ-JKFIT
	 Reference Energy          =    -538.4879204513099467 [Eh]
	 Singles Energy            =      -0.0000000000000000 [Eh]
	 Same-Spin Energy          =      -0.6100956495244471 [Eh]
	 Opposite-Spin Energy      =      -1.9382291557255327 [Eh]
	 Correlation Energy        =      -2.5483248052499796 [Eh]
	 Total Energy              =    -541.0362452565599369 [Eh]

	 ================> DF-SCS-MP2 Energies <==================
	-----------------------------------------------------------
	 SCS Same-Spin Scale       =       0.3333333333333333 [-]
	 SCS Opposite-Spin Scale   =       1.2000000000000000 [-]
	 SCS Same-Spin Energy      =      -0.2033652165081490 [Eh]
	 SCS Opposite-Spin Energy  =      -2.3258749868706392 [Eh]
	 SCS Correlation Energy    =      -2.5292402033787882 [Eh]
	 SCS Total Energy          =    -541.0171606546887233 [Eh]
	-----------------------------------------------------------

  Dipole Moment: [D]
     X:     0.0320      Y:     0.2205      Z:    -0.0683     Total:     0.2331

*** Psi4 exiting successfully. Buy a developer a beer!
