                               Psi4 1.3.2 release

  ==> Input File <==

--------------------------------------------------------------------------
#psi4
#
memory 32 gb

molecule  {
0 1
  C        0.0534686     1.1224805    -0.6520335
  C       -1.2526080     0.4386420    -0.2954290
  C        1.2387340     0.3598870    -0.1935000
  C        0.1038590     2.5478040     0.2258340
  C       -1.5567990    -0.6199760    -1.1655540
  C        2.3476650     0.3323920    -1.0476860
  C       -2.1272630     0.6989940     0.7661610
  C        1.2925180    -0.3667490     1.0043040
  C       -2.7057380    -1.3882370    -0.9902370
  C        3.4841570    -0.4112490    -0.7213440
  C       -3.2813200    -0.0705980     0.9462280
  C        2.4271420    -1.1078630     1.3345690
  C       -3.5735090    -1.1167760     0.0719390
  C        3.5283310    -1.1302700     0.4741930
  H        0.0764800     1.4411670    -1.6006990
  H        0.1404440     2.3872360     1.3072550
  H       -0.7568690     3.1831820    -0.0065830
  H        1.0165510     3.0793450    -0.0591360
  H       -0.8776040    -0.8405290    -1.9883130
  H        2.3169530     0.8915480    -1.9822160
  H       -1.9259890     1.5154960     1.4543950
  H        0.4297020    -0.3695730     1.6680340
  H       -2.9244160    -2.2005870    -1.6797290
  H        4.3341360    -0.4274460    -1.3999430
  H       -3.9507500     0.1497620     1.7748780
  H        2.4522940    -1.6709080     2.2649740
  H       -4.4717450    -1.7133490     0.2118480
  H        4.4104250    -1.7123070     0.7301740
units angstrom
no_reorient  #important for SAPT in psi4, default
symmetry c1  #important for SAPT in psi4, default
}

set PROPERTIES_ORIGIN ["COM"]
properties('MP2/aug-cc-pvtz', properties = ['dipole'])
--------------------------------------------------------------------------

    Molecular point group: c1
  Charge       = 0
  Multiplicity = 1
  Basis Set: AUG-CC-PVTZ
    Blend: AUG-CC-PVTZ
  Basis Set: (AUG-CC-PVTZ AUX)
    Blend: AUG-CC-PVTZ-JKFIT

    Orbital Energies [Eh]
    ---------------------

    Doubly Occupied:

       1A    -11.241737     2A    -11.241179     3A    -11.240506
       4A    -11.236817     5A    -11.235173     6A    -11.234739
       7A    -11.234612     8A    -11.234385     9A    -11.232712
      10A    -11.230410    11A    -11.230154    12A    -11.229993
      13A    -11.229037    14A    -11.223590    15A     -1.165287
      16A     -1.144396    17A     -1.078465    18A     -1.012642
      19A     -1.011417    20A     -1.006506    21A     -0.961053
      22A     -0.884188    23A     -0.829466    24A     -0.819984
      25A     -0.814409    26A     -0.775971    27A     -0.700536
      28A     -0.691923    29A     -0.653531    30A     -0.638295
      31A     -0.623693    32A     -0.615507    33A     -0.594427
      34A     -0.588764    35A     -0.581661    36A     -0.577737
      37A     -0.541374    38A     -0.526127    39A     -0.520440
      40A     -0.508609    41A     -0.495410    42A     -0.491748
      43A     -0.486447    44A     -0.470862    45A     -0.449749
      46A     -0.337670    47A     -0.334951    48A     -0.330671
      49A     -0.313177

  @DF-RHF Final Energy:  -538.46576191467750

   => Energetics <=

    Nuclear Repulsion Energy =            807.2595838740435283
    One-Electron Energy =               -2329.7464154931003577
    Two-Electron Energy =                 984.0210697043793289
    Total Energy =                       -538.4657619146775005
  Basis Set: (AUG-CC-PVTZ AUX)
    Blend: AUG-CC-PVTZ-RI
    Molecular point group: c1

    Geometry (in Angstrom), charge = 0, multiplicity = 1:

       Center              X                  Y                   Z               Mass
    ------------   -----------------  -----------------  -----------------  -----------------
         C            0.053384184204     1.148817012028    -0.639896360161    12.000000000000
         C           -1.252692415796     0.464978512028    -0.283291860161    12.000000000000
         C            1.238649584204     0.386223512028    -0.181362860161    12.000000000000
         C            0.103774584204     2.574140512028     0.237971139839    12.000000000000
         C           -1.556883415796    -0.593639487972    -1.153416860161    12.000000000000
         C            2.347580584204     0.358728512028    -1.035548860161    12.000000000000
         C           -2.127347415796     0.725330512028     0.778298139839    12.000000000000
         C            1.292433584204    -0.340412487972     1.016441139839    12.000000000000
         C           -2.705822415796    -1.361900487972    -0.978099860161    12.000000000000
         C            3.484072584204    -0.384912487972    -0.709206860161    12.000000000000
         C           -3.281404415796    -0.044261487972     0.958365139839    12.000000000000
         C            2.427057584204    -1.081526487972     1.346706139839    12.000000000000
         C           -3.573593415796    -1.090439487972     0.084076139839    12.000000000000
         C            3.528246584204    -1.103933487972     0.486330139839    12.000000000000
         H            0.076395584204     1.467503512028    -1.588561860161     1.007825032230
         H            0.140359584204     2.413572512028     1.319392139839     1.007825032230
         H           -0.756953415796     3.209518512028     0.005554139839     1.007825032230
         H            1.016466584204     3.105681512028    -0.046998860161     1.007825032230
         H           -0.877688415796    -0.814192487972    -1.976175860161     1.007825032230
         H            2.316868584204     0.917884512028    -1.970078860161     1.007825032230
         H           -1.926073415796     1.541832512028     1.466532139839     1.007825032230
         H            0.429617584204    -0.343236487972     1.680171139839     1.007825032230
         H           -2.924500415796    -2.174250487972    -1.667591860161     1.007825032230
         H            4.334051584204    -0.401109487972    -1.387805860161     1.007825032230
         H           -3.950834415796     0.176098512028     1.787015139839     1.007825032230
         H            2.452209584204    -1.644571487972     2.277111139839     1.007825032230
         H           -4.471829415796    -1.687012487972     0.223985139839     1.007825032230
         H            4.410340584204    -1.685970487972     0.742311139839     1.007825032230

  Basis Set: AUG-CC-PVTZ
    Blend: AUG-CC-PVTZ
  Basis Set: (AUG-CC-PVTZ AUX)
    Blend: AUG-CC-PVTZ-JKFIT
	 Reference Energy          =    -538.4657619146775005 [Eh]
	 Singles Energy            =      -0.0000000000000000 [Eh]
	 Same-Spin Energy          =      -0.6102993016461957 [Eh]
	 Opposite-Spin Energy      =      -1.9393282355761425 [Eh]
	 Correlation Energy        =      -2.5496275372223383 [Eh]
	 Total Energy              =    -541.0153894518998641 [Eh]

	 ================> DF-SCS-MP2 Energies <==================
	-----------------------------------------------------------
	 SCS Same-Spin Scale       =       0.3333333333333333 [-]
	 SCS Opposite-Spin Scale   =       1.2000000000000000 [-]
	 SCS Same-Spin Energy      =      -0.2034331005487319 [Eh]
	 SCS Opposite-Spin Energy  =      -2.3271938826913710 [Eh]
	 SCS Correlation Energy    =      -2.5306269832401029 [Eh]
	 SCS Total Energy          =    -540.9963888979176545 [Eh]
	-----------------------------------------------------------

  Dipole Moment: [D]
     X:    -0.0795      Y:     0.1520      Z:    -0.1374     Total:     0.2197

*** Psi4 exiting successfully. Buy a developer a beer!
