                               Psi4 1.3.2 release

  ==> Input File <==

--------------------------------------------------------------------------
#psi4
#
memory 32 gb

molecule  {
0 1
  C        0.0298960     1.2151600    -0.5253010
  C       -1.2611294     0.4579117    -0.2794021
  C        1.2387340     0.3598870    -0.1935000
  C        0.1038590     2.5478040     0.2258340
  C       -1.5567990    -0.6199760    -1.1655540
  C        2.3476650     0.3323920    -1.0476860
  C       -2.1272630     0.6989940     0.7661610
  C        1.2925180    -0.3667490     1.0043040
  C       -2.7057380    -1.3882370    -0.9902370
  C        3.4841570    -0.4112490    -0.7213440
  C       -3.2813200    -0.0705980     0.9462280
  C        2.4271420    -1.1078630     1.3345690
  C       -3.5735090    -1.1167760     0.0719390
  C        3.5283310    -1.1302700     0.4741930
  H        0.0764800     1.4411670    -1.6006990
  H        0.1404440     2.3872360     1.3072550
  H       -0.7568690     3.1831820    -0.0065830
  H        1.0165510     3.0793450    -0.0591360
  H       -0.8776040    -0.8405290    -1.9883130
  H        2.3169530     0.8915480    -1.9822160
  H       -1.9259890     1.5154960     1.4543950
  H        0.4297020    -0.3695730     1.6680340
  H       -2.9244160    -2.2005870    -1.6797290
  H        4.3341360    -0.4274460    -1.3999430
  H       -3.9507500     0.1497620     1.7748780
  H        2.4522940    -1.6709080     2.2649740
  H       -4.4717450    -1.7133490     0.2118480
  H        4.4104250    -1.7123070     0.7301740
units angstrom
no_reorient  #important for SAPT in psi4, default
symmetry c1  #important for SAPT in psi4, default
}

set PROPERTIES_ORIGIN ["COM"]
properties('MP2/aug-cc-pvtz', properties = ['dipole'])
--------------------------------------------------------------------------

    Molecular point group: c1
  Charge       = 0
  Multiplicity = 1
  Basis Set: AUG-CC-PVTZ
    Blend: AUG-CC-PVTZ
  Basis Set: (AUG-CC-PVTZ AUX)
    Blend: AUG-CC-PVTZ-JKFIT

    Orbital Energies [Eh]
    ---------------------

    Doubly Occupied:

       1A    -11.243387     2A    -11.241113     3A    -11.240501
       4A    -11.235742     5A    -11.235385     6A    -11.235115
       7A    -11.234592     8A    -11.232906     9A    -11.232193
      10A    -11.232054    11A    -11.231420    12A    -11.229515
      13A    -11.229309    14A    -11.219487    15A     -1.164406
      16A     -1.143998    17A     -1.081705    18A     -1.013712
      19A     -1.010325    20A     -1.004906    21A     -0.974928
      22A     -0.877037    23A     -0.829199    24A     -0.819732
      25A     -0.813211    26A     -0.769338    27A     -0.700270
      28A     -0.687853    29A     -0.647565    30A     -0.637561
      31A     -0.623800    32A     -0.615758    33A     -0.596261
      34A     -0.590920    35A     -0.581539    36A     -0.576502
      37A     -0.547035    38A     -0.530701    39A     -0.514165
      40A     -0.506620    41A     -0.494651    42A     -0.491821
      43A     -0.474077    44A     -0.472193    45A     -0.467987
      46A     -0.338120    47A     -0.336865    48A     -0.333360
      49A     -0.312707

  @DF-RHF Final Energy:  -538.48755499630875

   => Energetics <=

    Nuclear Repulsion Energy =            807.4403165860949230
    One-Electron Energy =               -2330.1486497965793205
    Two-Electron Energy =                 984.2207782141756525
    Total Energy =                       -538.4875549963087451
  Basis Set: (AUG-CC-PVTZ AUX)
    Blend: AUG-CC-PVTZ-RI
    Molecular point group: c1

    Geometry (in Angstrom), charge = 0, multiplicity = 1:

       Center              X                  Y                   Z               Mass
    ------------   -----------------  -----------------  -----------------  -----------------
         C            0.031926399155     1.234119686393    -0.522570905512    12.000000000000
         C           -1.259099000845     0.476871386393    -0.276672005512    12.000000000000
         C            1.240764399155     0.378846686393    -0.190769905512    12.000000000000
         C            0.105889399155     2.566763686393     0.228564094488    12.000000000000
         C           -1.554768600845    -0.601016313607    -1.162823905512    12.000000000000
         C            2.349695399155     0.351351686393    -1.044955905512    12.000000000000
         C           -2.125232600845     0.717953686393     0.768891094488    12.000000000000
         C            1.294548399155    -0.347789313607     1.007034094488    12.000000000000
         C           -2.703707600845    -1.369277313607    -0.987506905512    12.000000000000
         C            3.486187399155    -0.392289313607    -0.718613905512    12.000000000000
         C           -3.279289600845    -0.051638313607     0.948958094488    12.000000000000
         C            2.429172399155    -1.088903313607     1.337299094488    12.000000000000
         C           -3.571478600845    -1.097816313607     0.074669094488    12.000000000000
         C            3.530361399155    -1.111310313607     0.476923094488    12.000000000000
         H            0.078510399155     1.460126686393    -1.597968905512     1.007825032230
         H            0.142474399155     2.406195686393     1.309985094488     1.007825032230
         H           -0.754838600845     3.202141686393    -0.003852905512     1.007825032230
         H            1.018581399155     3.098304686393    -0.056405905512     1.007825032230
         H           -0.875573600845    -0.821569313607    -1.985582905512     1.007825032230
         H            2.318983399155     0.910507686393    -1.979485905512     1.007825032230
         H           -1.923958600845     1.534455686393     1.457125094488     1.007825032230
         H            0.431732399155    -0.350613313607     1.670764094488     1.007825032230
         H           -2.922385600845    -2.181627313607    -1.676998905512     1.007825032230
         H            4.336166399155    -0.408486313607    -1.397212905512     1.007825032230
         H           -3.948719600845     0.168721686393     1.777608094488     1.007825032230
         H            2.454324399155    -1.651948313607     2.267704094488     1.007825032230
         H           -4.469714600845    -1.694389313607     0.214578094488     1.007825032230
         H            4.412455399155    -1.693347313607     0.732904094488     1.007825032230

  Basis Set: AUG-CC-PVTZ
    Blend: AUG-CC-PVTZ
  Basis Set: (AUG-CC-PVTZ AUX)
    Blend: AUG-CC-PVTZ-JKFIT
	 Reference Energy          =    -538.4875549963087451 [Eh]
	 Singles Energy            =      -0.0000000000000000 [Eh]
	 Same-Spin Energy          =      -0.6099312086214923 [Eh]
	 Opposite-Spin Energy      =      -1.9381360004201544 [Eh]
	 Correlation Energy        =      -2.5480672090416467 [Eh]
	 Total Energy              =    -541.0356222053503643 [Eh]

	 ================> DF-SCS-MP2 Energies <==================
	-----------------------------------------------------------
	 SCS Same-Spin Scale       =       0.3333333333333333 [-]
	 SCS Opposite-Spin Scale   =       1.2000000000000000 [-]
	 SCS Same-Spin Energy      =      -0.2033104028738308 [Eh]
	 SCS Opposite-Spin Energy  =      -2.3257632005041851 [Eh]
	 SCS Correlation Energy    =      -2.5290736033780159 [Eh]
	 SCS Total Energy          =    -541.0166285996867828 [Eh]
	-----------------------------------------------------------

  Dipole Moment: [D]
     X:     0.0405      Y:     0.1881      Z:    -0.0685     Total:     0.2042

*** Psi4 exiting successfully. Buy a developer a beer!
