                               Psi4 1.4a3.dev225

  ==> Input File <==

--------------------------------------------------------------------------
#psi4
#
memory 32 gb

molecule  {
0 1
  C        0.0298960     1.2151600    -0.5253010
  C       -1.2526080     0.4386420    -0.2954290
  C        1.2387340     0.3598870    -0.1935000
  C        0.1038590     2.5478040     0.2258340
  C       -1.5567990    -0.6199760    -1.1655540
  C        2.3476650     0.3323920    -1.0476860
  C       -2.1147672     0.6952745     0.7509946
  C        1.2925180    -0.3667490     1.0043040
  C       -2.7057380    -1.3882370    -0.9902370
  C        3.4841570    -0.4112490    -0.7213440
  C       -3.2813200    -0.0705980     0.9462280
  C        2.4271420    -1.1078630     1.3345690
  C       -3.5735090    -1.1167760     0.0719390
  C        3.5283310    -1.1302700     0.4741930
  H        0.0764800     1.4411670    -1.6006990
  H        0.1404440     2.3872360     1.3072550
  H       -0.7568690     3.1831820    -0.0065830
  H        1.0165510     3.0793450    -0.0591360
  H       -0.8776040    -0.8405290    -1.9883130
  H        2.3169530     0.8915480    -1.9822160
  H       -1.9259890     1.5154960     1.4543950
  H        0.4297020    -0.3695730     1.6680340
  H       -2.9244160    -2.2005870    -1.6797290
  H        4.3341360    -0.4274460    -1.3999430
  H       -3.9507500     0.1497620     1.7748780
  H        2.4522940    -1.6709080     2.2649740
  H       -4.4717450    -1.7133490     0.2118480
  H        4.4104250    -1.7123070     0.7301740
units angstrom
no_reorient  #important for SAPT in psi4, default
symmetry c1  #important for SAPT in psi4, default
}

set PROPERTIES_ORIGIN ["COM"]
properties('MP2/aug-cc-pvtz', properties = ['dipole'])
--------------------------------------------------------------------------

    Molecular point group: c1
  Charge       = 0
  Multiplicity = 1
  Basis Set: AUG-CC-PVTZ
    Blend: AUG-CC-PVTZ
  Basis Set: (AUG-CC-PVTZ AUX)
    Blend: AUG-CC-PVTZ-JKFIT

    Orbital Energies [Eh]
    ---------------------

    Doubly Occupied:

       1A    -11.243036     2A    -11.240189     3A    -11.238922
       4A    -11.236612     5A    -11.235224     6A    -11.235113
       7A    -11.234490     8A    -11.232207     9A    -11.231808
      10A    -11.231321    11A    -11.231275    12A    -11.230877
      13A    -11.229167    14A    -11.219823    15A     -1.165267
      16A     -1.144376    17A     -1.081620    18A     -1.012286
      19A     -1.009754    20A     -1.006650    21A     -0.975364
      22A     -0.877088    23A     -0.828948    24A     -0.820005
      25A     -0.813157    26A     -0.769940    27A     -0.699975
      28A     -0.687384    29A     -0.647607    30A     -0.637245
      31A     -0.623858    32A     -0.616144    33A     -0.596124
      34A     -0.590185    35A     -0.581195    36A     -0.576671
      37A     -0.546816    38A     -0.529898    39A     -0.514189
      40A     -0.506875    41A     -0.494513    42A     -0.492235
      43A     -0.474393    44A     -0.473816    45A     -0.466405
      46A     -0.339373    47A     -0.334743    48A     -0.333409
      49A     -0.313958

  @DF-RHF Final Energy:  -538.48795731031851

   => Energetics <=

    Nuclear Repulsion Energy =            807.8151023530931525
    One-Electron Energy =               -2330.9030636398561001
    Two-Electron Energy =                 984.6000039764444409
    Total Energy =                       -538.4879573103185066
  Basis Set: (AUG-CC-PVTZ AUX)
    Blend: AUG-CC-PVTZ-RI
    Molecular point group: c1

    Geometry (in Angstrom), charge = 0, multiplicity = 1:

       Center              X                  Y                   Z               Mass
    ------------   -----------------  -----------------  -----------------  -----------------
         C            0.030541483321     1.235634545989    -0.520515441649    12.000000000000
         C           -1.251962516679     0.459116545989    -0.290643441649    12.000000000000
         C            1.239379483321     0.380361545989    -0.188714441649    12.000000000000
         C            0.104504483321     2.568278545989     0.230619558351    12.000000000000
         C           -1.556153516679    -0.599501454011    -1.160768441649    12.000000000000
         C            2.348310483321     0.352866545989    -1.042900441649    12.000000000000
         C           -2.114121716679     0.715749045989     0.755780158351    12.000000000000
         C            1.293163483321    -0.346274454011     1.009089558351    12.000000000000
         C           -2.705092516679    -1.367762454011    -0.985451441649    12.000000000000
         C            3.484802483321    -0.390774454011    -0.716558441649    12.000000000000
         C           -3.280674516679    -0.050123454011     0.951013558351    12.000000000000
         C            2.427787483321    -1.087388454011     1.339354558351    12.000000000000
         C           -3.572863516679    -1.096301454011     0.076724558351    12.000000000000
         C            3.528976483321    -1.109795454011     0.478978558351    12.000000000000
         H            0.077125483321     1.461641545989    -1.595913441649     1.007825032230
         H            0.141089483321     2.407710545989     1.312040558351     1.007825032230
         H           -0.756223516679     3.203656545989    -0.001797441649     1.007825032230
         H            1.017196483321     3.099819545989    -0.054350441649     1.007825032230
         H           -0.876958516679    -0.820054454011    -1.983527441649     1.007825032230
         H            2.317598483321     0.912022545989    -1.977430441649     1.007825032230
         H           -1.925343516679     1.535970545989     1.459180558351     1.007825032230
         H            0.430347483321    -0.349098454011     1.672819558351     1.007825032230
         H           -2.923770516679    -2.180112454011    -1.674943441649     1.007825032230
         H            4.334781483321    -0.406971454011    -1.395157441649     1.007825032230
         H           -3.950104516679     0.170236545989     1.779663558351     1.007825032230
         H            2.452939483321    -1.650433454011     2.269759558351     1.007825032230
         H           -4.471099516679    -1.692874454011     0.216633558351     1.007825032230
         H            4.411070483321    -1.691832454011     0.734959558351     1.007825032230

  Basis Set: AUG-CC-PVTZ
    Blend: AUG-CC-PVTZ
  Basis Set: (AUG-CC-PVTZ AUX)
    Blend: AUG-CC-PVTZ-JKFIT
	 Reference Energy          =    -538.4879573103185066 [Eh]
	 Singles Energy            =      -0.0000000000000000 [Eh]
	 Same-Spin Energy          =      -0.6099895741383237 [Eh]
	 Opposite-Spin Energy      =      -1.9381040451803637 [Eh]
	 Correlation Energy        =      -2.5480936193186876 [Eh]
	 Total Energy              =    -541.0360509296372129 [Eh]

	 ================> DF-SCS-MP2 Energies <==================
	-----------------------------------------------------------
	 SCS Same-Spin Scale       =       0.3333333333333333 [-]
	 SCS Opposite-Spin Scale   =       1.2000000000000000 [-]
	 SCS Same-Spin Energy      =      -0.2033298580461079 [Eh]
	 SCS Opposite-Spin Energy  =      -2.3257248542164364 [Eh]
	 SCS Correlation Energy    =      -2.5290547122625444 [Eh]
	 SCS Total Energy          =    -541.0170120225810706 [Eh]
	-----------------------------------------------------------

  Dipole Moment: [D]
     X:     0.0288      Y:     0.1976      Z:    -0.0626     Total:     0.2093

*** Psi4 exiting successfully. Buy a developer a beer!
