                               Psi4 1.3.2 release

  ==> Input File <==

--------------------------------------------------------------------------
#psi4
#
memory 32 gb

molecule  {
0 1
  C        0.0290180     1.2422516    -0.5713775
  C       -1.2526080     0.4386420    -0.2954290
  C        1.2387340     0.3598870    -0.1935000
  C        0.1038590     2.5478040     0.2258340
  C       -1.5567990    -0.6199760    -1.1655540
  C        2.3476650     0.3323920    -1.0476860
  C       -2.1272630     0.6989940     0.7661610
  C        1.2925180    -0.3667490     1.0043040
  C       -2.7057380    -1.3882370    -0.9902370
  C        3.4841570    -0.4112490    -0.7213440
  C       -3.2813200    -0.0705980     0.9462280
  C        2.4271420    -1.1078630     1.3345690
  C       -3.5735090    -1.1167760     0.0719390
  C        3.5283310    -1.1302700     0.4741930
  H        0.0764800     1.4411670    -1.6006990
  H        0.1404440     2.3872360     1.3072550
  H       -0.7568690     3.1831820    -0.0065830
  H        1.0165510     3.0793450    -0.0591360
  H       -0.8776040    -0.8405290    -1.9883130
  H        2.3169530     0.8915480    -1.9822160
  H       -1.9259890     1.5154960     1.4543950
  H        0.4297020    -0.3695730     1.6680340
  H       -2.9244160    -2.2005870    -1.6797290
  H        4.3341360    -0.4274460    -1.3999430
  H       -3.9507500     0.1497620     1.7748780
  H        2.4522940    -1.6709080     2.2649740
  H       -4.4717450    -1.7133490     0.2118480
  H        4.4104250    -1.7123070     0.7301740
units angstrom
no_reorient  #important for SAPT in psi4, default
symmetry c1  #important for SAPT in psi4, default
}

set PROPERTIES_ORIGIN ["COM"]
properties('MP2/aug-cc-pvtz', properties = ['dipole'])
--------------------------------------------------------------------------

    Molecular point group: c1
  Charge       = 0
  Multiplicity = 1
  Basis Set: AUG-CC-PVTZ
    Blend: AUG-CC-PVTZ
  Basis Set: (AUG-CC-PVTZ AUX)
    Blend: AUG-CC-PVTZ-JKFIT

    Orbital Energies [Eh]
    ---------------------

    Doubly Occupied:

       1A    -11.242514     2A    -11.241742     3A    -11.241247
       4A    -11.235656     5A    -11.234972     6A    -11.234839
       7A    -11.234554     8A    -11.231793     9A    -11.231584
      10A    -11.231050    11A    -11.230847    12A    -11.230135
      13A    -11.229497    14A    -11.219975    15A     -1.162516
      16A     -1.143360    17A     -1.079946    18A     -1.011931
      19A     -1.010391    20A     -1.004584    21A     -0.975534
      22A     -0.877054    23A     -0.827741    24A     -0.818710
      25A     -0.811851    26A     -0.772946    27A     -0.698720
      28A     -0.689639    29A     -0.648768    30A     -0.635524
      31A     -0.623339    32A     -0.614837    33A     -0.595268
      34A     -0.590772    35A     -0.581433    36A     -0.577986
      37A     -0.544463    38A     -0.530811    39A     -0.520639
      40A     -0.505885    41A     -0.493888    42A     -0.491189
      43A     -0.479489    44A     -0.473077    45A     -0.460575
      46A     -0.339133    47A     -0.334390    48A     -0.333150
      49A     -0.313082

  @DF-RHF Final Energy:  -538.48594967351232

   => Energetics <=

    Nuclear Repulsion Energy =            806.8050832116022093
    One-Electron Energy =               -2328.8960156301805000
    Two-Electron Energy =                 983.6049827450658540
    Total Energy =                       -538.4859496735123230
  Basis Set: (AUG-CC-PVTZ AUX)
    Blend: AUG-CC-PVTZ-RI
    Molecular point group: c1

    Geometry (in Angstrom), charge = 0, multiplicity = 1:

       Center              X                  Y                   Z               Mass
    ------------   -----------------  -----------------  -----------------  -----------------
         C            0.030544741880     1.260695866967    -0.564555139081    12.000000000000
         C           -1.251081258120     0.457086266967    -0.288606639081    12.000000000000
         C            1.240260741880     0.378331266967    -0.186677639081    12.000000000000
         C            0.105385741880     2.566248266967     0.232656360919    12.000000000000
         C           -1.555272258120    -0.601531733033    -1.158731639081    12.000000000000
         C            2.349191741880     0.350836266967    -1.040863639081    12.000000000000
         C           -2.125736258120     0.717438266967     0.772983360919    12.000000000000
         C            1.294044741880    -0.348304733033     1.011126360919    12.000000000000
         C           -2.704211258120    -1.369792733033    -0.983414639081    12.000000000000
         C            3.485683741880    -0.392804733033    -0.714521639081    12.000000000000
         C           -3.279793258120    -0.052153733033     0.953050360919    12.000000000000
         C            2.428668741880    -1.089418733033     1.341391360919    12.000000000000
         C           -3.571982258120    -1.098331733033     0.078761360919    12.000000000000
         C            3.529857741880    -1.111825733033     0.481015360919    12.000000000000
         H            0.078006741880     1.459611266967    -1.593876639081     1.007825032230
         H            0.141970741880     2.405680266967     1.314077360919     1.007825032230
         H           -0.755342258120     3.201626266967     0.000239360919     1.007825032230
         H            1.018077741880     3.097789266967    -0.052313639081     1.007825032230
         H           -0.876077258120    -0.822084733033    -1.981490639081     1.007825032230
         H            2.318479741880     0.909992266967    -1.975393639081     1.007825032230
         H           -1.924462258120     1.533940266967     1.461217360919     1.007825032230
         H            0.431228741880    -0.351128733033     1.674856360919     1.007825032230
         H           -2.922889258120    -2.182142733033    -1.672906639081     1.007825032230
         H            4.335662741880    -0.409001733033    -1.393120639081     1.007825032230
         H           -3.949223258120     0.168206266967     1.781700360919     1.007825032230
         H            2.453820741880    -1.652463733033     2.271796360919     1.007825032230
         H           -4.470218258120    -1.694904733033     0.218670360919     1.007825032230
         H            4.411951741880    -1.693862733033     0.736996360919     1.007825032230

  Basis Set: AUG-CC-PVTZ
    Blend: AUG-CC-PVTZ
  Basis Set: (AUG-CC-PVTZ AUX)
    Blend: AUG-CC-PVTZ-JKFIT
	 Reference Energy          =    -538.4859496735123230 [Eh]
	 Singles Energy            =      -0.0000000000000000 [Eh]
	 Same-Spin Energy          =      -0.6096902261880933 [Eh]
	 Opposite-Spin Energy      =      -1.9378196699318140 [Eh]
	 Correlation Energy        =      -2.5475098961199074 [Eh]
	 Total Energy              =    -541.0334595696322140 [Eh]

	 ================> DF-SCS-MP2 Energies <==================
	-----------------------------------------------------------
	 SCS Same-Spin Scale       =       0.3333333333333333 [-]
	 SCS Opposite-Spin Scale   =       1.2000000000000000 [-]
	 SCS Same-Spin Energy      =      -0.2032300753960311 [Eh]
	 SCS Opposite-Spin Energy  =      -2.3253836039181768 [Eh]
	 SCS Correlation Energy    =      -2.5286136793142080 [Eh]
	 SCS Total Energy          =    -541.0145633528264852 [Eh]
	-----------------------------------------------------------

  Dipole Moment: [D]
     X:     0.0365      Y:     0.2312      Z:    -0.0920     Total:     0.2515

*** Psi4 exiting successfully. Buy a developer a beer!
