                               Psi4 1.4a3.dev225

  ==> Input File <==

--------------------------------------------------------------------------
#psi4
#
memory 32 gb

molecule  {
0 1
  C        0.0298960     1.2151600    -0.5253010
  C       -1.2526080     0.4386420    -0.2954290
  C        1.2387340     0.3598870    -0.1935000
  C        0.1014443     2.5042973     0.2013118
  C       -1.5567990    -0.6199760    -1.1655540
  C        2.3476650     0.3323920    -1.0476860
  C       -2.1272630     0.6989940     0.7661610
  C        1.2925180    -0.3667490     1.0043040
  C       -2.7057380    -1.3882370    -0.9902370
  C        3.4841570    -0.4112490    -0.7213440
  C       -3.2813200    -0.0705980     0.9462280
  C        2.4271420    -1.1078630     1.3345690
  C       -3.5735090    -1.1167760     0.0719390
  C        3.5283310    -1.1302700     0.4741930
  H        0.0764800     1.4411670    -1.6006990
  H        0.1404440     2.3872360     1.3072550
  H       -0.7568690     3.1831820    -0.0065830
  H        1.0165510     3.0793450    -0.0591360
  H       -0.8776040    -0.8405290    -1.9883130
  H        2.3169530     0.8915480    -1.9822160
  H       -1.9259890     1.5154960     1.4543950
  H        0.4297020    -0.3695730     1.6680340
  H       -2.9244160    -2.2005870    -1.6797290
  H        4.3341360    -0.4274460    -1.3999430
  H       -3.9507500     0.1497620     1.7748780
  H        2.4522940    -1.6709080     2.2649740
  H       -4.4717450    -1.7133490     0.2118480
  H        4.4104250    -1.7123070     0.7301740
units angstrom
no_reorient  #important for SAPT in psi4, default
symmetry c1  #important for SAPT in psi4, default
}

set PROPERTIES_ORIGIN ["COM"]
properties('MP2/aug-cc-pvtz', properties = ['dipole'])
--------------------------------------------------------------------------

    Molecular point group: c1
  Charge       = 0
  Multiplicity = 1
  Basis Set: AUG-CC-PVTZ
    Blend: AUG-CC-PVTZ
  Basis Set: (AUG-CC-PVTZ AUX)
    Blend: AUG-CC-PVTZ-JKFIT

    Orbital Energies [Eh]
    ---------------------

    Doubly Occupied:

       1A    -11.241568     2A    -11.240978     3A    -11.240310
       4A    -11.235757     5A    -11.235312     6A    -11.235300
       7A    -11.234567     8A    -11.232199     9A    -11.232030
      10A    -11.231680    11A    -11.231426    12A    -11.230776
      13A    -11.229384    14A    -11.222256    15A     -1.166041
      16A     -1.144048    17A     -1.086026    18A     -1.012461
      19A     -1.010836    20A     -1.006116    21A     -0.977589
      22A     -0.874404    23A     -0.828785    24A     -0.818950
      25A     -0.814119    26A     -0.770027    27A     -0.700566
      28A     -0.688727    29A     -0.649008    30A     -0.638092
      31A     -0.625575    32A     -0.615256    33A     -0.595518
      34A     -0.589633    35A     -0.581805    36A     -0.577670
      37A     -0.552440    38A     -0.526473    39A     -0.511037
      40A     -0.506569    41A     -0.493952    42A     -0.491124
      43A     -0.479172    44A     -0.471079    45A     -0.463705
      46A     -0.339700    47A     -0.334663    48A     -0.333643
      49A     -0.313499

  @DF-RHF Final Energy:  -538.48521041605397

   => Energetics <=

    Nuclear Repulsion Energy =            808.4871740592925562
    One-Electron Energy =               -2332.2210653737665780
    Two-Electron Energy =                 985.2486808984200479
    Total Energy =                       -538.4852104160539739
  Basis Set: (AUG-CC-PVTZ AUX)
    Blend: AUG-CC-PVTZ-RI
    Molecular point group: c1

    Geometry (in Angstrom), charge = 0, multiplicity = 1:

       Center              X                  Y                   Z               Mass
    ------------   -----------------  -----------------  -----------------  -----------------
         C            0.031524001808     1.238256299757    -0.519898946799    12.000000000000
         C           -1.250979998192     0.461738299757    -0.290026946799    12.000000000000
         C            1.240362001808     0.382983299757    -0.188097946799    12.000000000000
         C            0.103072301808     2.527393599757     0.206713853201    12.000000000000
         C           -1.555170998192    -0.596879700243    -1.160151946799    12.000000000000
         C            2.349293001808     0.355488299757    -1.042283946799    12.000000000000
         C           -2.125634998192     0.722090299757     0.771563053201    12.000000000000
         C            1.294146001808    -0.343652700243     1.009706053201    12.000000000000
         C           -2.704109998192    -1.365140700243    -0.984834946799    12.000000000000
         C            3.485785001808    -0.388152700243    -0.715941946799    12.000000000000
         C           -3.279691998192    -0.047501700243     0.951630053201    12.000000000000
         C            2.428770001808    -1.084766700243     1.339971053201    12.000000000000
         C           -3.571880998192    -1.093679700243     0.077341053201    12.000000000000
         C            3.529959001808    -1.107173700243     0.479595053201    12.000000000000
         H            0.078108001808     1.464263299757    -1.595296946799     1.007825032230
         H            0.142072001808     2.410332299757     1.312657053201     1.007825032230
         H           -0.755240998192     3.206278299757    -0.001180946799     1.007825032230
         H            1.018179001808     3.102441299757    -0.053733946799     1.007825032230
         H           -0.875975998192    -0.817432700243    -1.982910946799     1.007825032230
         H            2.318581001808     0.914644299757    -1.976813946799     1.007825032230
         H           -1.924360998192     1.538592299757     1.459797053201     1.007825032230
         H            0.431330001808    -0.346476700243     1.673436053201     1.007825032230
         H           -2.922787998192    -2.177490700243    -1.674326946799     1.007825032230
         H            4.335764001808    -0.404349700243    -1.394540946799     1.007825032230
         H           -3.949121998192     0.172858299757     1.780280053201     1.007825032230
         H            2.453922001808    -1.647811700243     2.270376053201     1.007825032230
         H           -4.470116998192    -1.690252700243     0.217250053201     1.007825032230
         H            4.412053001808    -1.689210700243     0.735576053201     1.007825032230

  Basis Set: AUG-CC-PVTZ
    Blend: AUG-CC-PVTZ
  Basis Set: (AUG-CC-PVTZ AUX)
    Blend: AUG-CC-PVTZ-JKFIT
	 Reference Energy          =    -538.4852104160539739 [Eh]
	 Singles Energy            =      -0.0000000000000000 [Eh]
	 Same-Spin Energy          =      -0.6104878086872337 [Eh]
	 Opposite-Spin Energy      =      -1.9386495426115822 [Eh]
	 Correlation Energy        =      -2.5491373512988158 [Eh]
	 Total Energy              =    -541.0343477673527559 [Eh]

	 ================> DF-SCS-MP2 Energies <==================
	-----------------------------------------------------------
	 SCS Same-Spin Scale       =       0.3333333333333333 [-]
	 SCS Opposite-Spin Scale   =       1.2000000000000000 [-]
	 SCS Same-Spin Energy      =      -0.2034959362290779 [Eh]
	 SCS Opposite-Spin Energy  =      -2.3263794511338984 [Eh]
	 SCS Correlation Energy    =      -2.5298753873629765 [Eh]
	 SCS Total Energy          =    -541.0150858034169232 [Eh]
	-----------------------------------------------------------

  Dipole Moment: [D]
     X:     0.0447      Y:     0.1975      Z:    -0.0616     Total:     0.2117

*** Psi4 exiting successfully. Buy a developer a beer!
