                               Psi4 1.3.2 release

  ==> Input File <==

--------------------------------------------------------------------------
#psi4
#
memory 32 gb

molecule  {
0 1
  C        0.0298960     1.2151600    -0.5253010
  C       -1.2800495     0.4811749    -0.3109496
  C        1.2387340     0.3598870    -0.1935000
  C        0.1038590     2.5478040     0.2258340
  C       -1.5567990    -0.6199760    -1.1655540
  C        2.3476650     0.3323920    -1.0476860
  C       -2.1272630     0.6989940     0.7661610
  C        1.2925180    -0.3667490     1.0043040
  C       -2.7057380    -1.3882370    -0.9902370
  C        3.4841570    -0.4112490    -0.7213440
  C       -3.2813200    -0.0705980     0.9462280
  C        2.4271420    -1.1078630     1.3345690
  C       -3.5735090    -1.1167760     0.0719390
  C        3.5283310    -1.1302700     0.4741930
  H        0.0764800     1.4411670    -1.6006990
  H        0.1404440     2.3872360     1.3072550
  H       -0.7568690     3.1831820    -0.0065830
  H        1.0165510     3.0793450    -0.0591360
  H       -0.8776040    -0.8405290    -1.9883130
  H        2.3169530     0.8915480    -1.9822160
  H       -1.9259890     1.5154960     1.4543950
  H        0.4297020    -0.3695730     1.6680340
  H       -2.9244160    -2.2005870    -1.6797290
  H        4.3341360    -0.4274460    -1.3999430
  H       -3.9507500     0.1497620     1.7748780
  H        2.4522940    -1.6709080     2.2649740
  H       -4.4717450    -1.7133490     0.2118480
  H        4.4104250    -1.7123070     0.7301740
units angstrom
no_reorient  #important for SAPT in psi4, default
symmetry c1  #important for SAPT in psi4, default
}

set PROPERTIES_ORIGIN ["COM"]
properties('MP2/aug-cc-pvtz', properties = ['dipole'])
--------------------------------------------------------------------------

    Molecular point group: c1
  Charge       = 0
  Multiplicity = 1
  Basis Set: AUG-CC-PVTZ
    Blend: AUG-CC-PVTZ
  Basis Set: (AUG-CC-PVTZ AUX)
    Blend: AUG-CC-PVTZ-JKFIT

    Orbital Energies [Eh]
    ---------------------

    Doubly Occupied:

       1A    -11.243162     2A    -11.241404     3A    -11.240867
       4A    -11.235773     5A    -11.235491     6A    -11.235196
       7A    -11.234664     8A    -11.232722     9A    -11.232417
      10A    -11.232288    11A    -11.231580    12A    -11.230673
      13A    -11.229473    14A    -11.219262    15A     -1.164076
      16A     -1.144013    17A     -1.081545    18A     -1.013216
      19A     -1.010425    20A     -1.005581    21A     -0.974694
      22A     -0.876820    23A     -0.828732    24A     -0.819411
      25A     -0.813974    26A     -0.769520    27A     -0.700545
      28A     -0.687700    29A     -0.646920    30A     -0.638204
      31A     -0.623521    32A     -0.615746    33A     -0.596359
      34A     -0.590314    35A     -0.581662    36A     -0.576514
      37A     -0.546828    38A     -0.530708    39A     -0.513998
      40A     -0.507050    41A     -0.493959    42A     -0.491864
      43A     -0.473514    44A     -0.472389    45A     -0.468140
      46A     -0.338119    47A     -0.336111    48A     -0.333546
      49A     -0.313381

  @DF-RHF Final Energy:  -538.48697705837333

   => Energetics <=

    Nuclear Repulsion Energy =            807.1484095542971318
    One-Electron Energy =               -2329.5626312189028795
    Two-Electron Energy =                 983.9272446062324207
    Total Energy =                       -538.4869770583733271
  Basis Set: (AUG-CC-PVTZ AUX)
    Blend: AUG-CC-PVTZ-RI
    Molecular point group: c1

    Geometry (in Angstrom), charge = 0, multiplicity = 1:

       Center              X                  Y                   Z               Mass
    ------------   -----------------  -----------------  -----------------  -----------------
         C            0.033173127838     1.232586771731    -0.520492101852    12.000000000000
         C           -1.276772372162     0.498601671731    -0.306140701852    12.000000000000
         C            1.242011127838     0.377313771731    -0.188691101852    12.000000000000
         C            0.107136127838     2.565230771731     0.230642898148    12.000000000000
         C           -1.553521872162    -0.602549228269    -1.160745101852    12.000000000000
         C            2.350942127838     0.349818771731    -1.042877101852    12.000000000000
         C           -2.123985872162     0.716420771731     0.770969898148    12.000000000000
         C            1.295795127838    -0.349322228269     1.009112898148    12.000000000000
         C           -2.702460872162    -1.370810228269    -0.985428101852    12.000000000000
         C            3.487434127838    -0.393822228269    -0.716535101852    12.000000000000
         C           -3.278042872162    -0.053171228269     0.951036898148    12.000000000000
         C            2.430419127838    -1.090436228269     1.339377898148    12.000000000000
         C           -3.570231872162    -1.099349228269     0.076747898148    12.000000000000
         C            3.531608127838    -1.112843228269     0.479001898148    12.000000000000
         H            0.079757127838     1.458593771731    -1.595890101852     1.007825032230
         H            0.143721127838     2.404662771731     1.312063898148     1.007825032230
         H           -0.753591872162     3.200608771731    -0.001774101852     1.007825032230
         H            1.019828127838     3.096771771731    -0.054327101852     1.007825032230
         H           -0.874326872162    -0.823102228269    -1.983504101852     1.007825032230
         H            2.320230127838     0.908974771731    -1.977407101852     1.007825032230
         H           -1.922711872162     1.532922771731     1.459203898148     1.007825032230
         H            0.432979127838    -0.352146228269     1.672842898148     1.007825032230
         H           -2.921138872162    -2.183160228269    -1.674920101852     1.007825032230
         H            4.337413127838    -0.410019228269    -1.395134101852     1.007825032230
         H           -3.947472872162     0.167188771731     1.779686898148     1.007825032230
         H            2.455571127838    -1.653481228269     2.269782898148     1.007825032230
         H           -4.468467872162    -1.695922228269     0.216656898148     1.007825032230
         H            4.413702127838    -1.694880228269     0.734982898148     1.007825032230

  Basis Set: AUG-CC-PVTZ
    Blend: AUG-CC-PVTZ
  Basis Set: (AUG-CC-PVTZ AUX)
    Blend: AUG-CC-PVTZ-JKFIT
	 Reference Energy          =    -538.4869770583733271 [Eh]
	 Singles Energy            =      -0.0000000000000000 [Eh]
	 Same-Spin Energy          =      -0.6099371579243426 [Eh]
	 Opposite-Spin Energy      =      -1.9381603200873347 [Eh]
	 Correlation Energy        =      -2.5480974780116772 [Eh]
	 Total Energy              =    -541.0350745363849683 [Eh]

	 ================> DF-SCS-MP2 Energies <==================
	-----------------------------------------------------------
	 SCS Same-Spin Scale       =       0.3333333333333333 [-]
	 SCS Opposite-Spin Scale   =       1.2000000000000000 [-]
	 SCS Same-Spin Energy      =      -0.2033123859747809 [Eh]
	 SCS Opposite-Spin Energy  =      -2.3257923841048016 [Eh]
	 SCS Correlation Energy    =      -2.5291047700795826 [Eh]
	 SCS Total Energy          =    -541.0160818284529114 [Eh]
	-----------------------------------------------------------

  Dipole Moment: [D]
     X:     0.0433      Y:     0.1647      Z:    -0.0563     Total:     0.1794

*** Psi4 exiting successfully. Buy a developer a beer!
