                               Psi4 1.3.2 release

  ==> Input File <==

--------------------------------------------------------------------------
#psi4
#
memory 32 gb

molecule  {
0 1
  C        0.0298960     1.2151600    -0.5253010
  C       -1.3301131     0.5688705    -0.3427552
  C        1.2387340     0.3598870    -0.1935000
  C        0.1038590     2.5478040     0.2258340
  C       -1.5567990    -0.6199760    -1.1655540
  C        2.3476650     0.3323920    -1.0476860
  C       -2.1272630     0.6989940     0.7661610
  C        1.2925180    -0.3667490     1.0043040
  C       -2.7057380    -1.3882370    -0.9902370
  C        3.4841570    -0.4112490    -0.7213440
  C       -3.2813200    -0.0705980     0.9462280
  C        2.4271420    -1.1078630     1.3345690
  C       -3.5735090    -1.1167760     0.0719390
  C        3.5283310    -1.1302700     0.4741930
  H        0.0764800     1.4411670    -1.6006990
  H        0.1404440     2.3872360     1.3072550
  H       -0.7568690     3.1831820    -0.0065830
  H        1.0165510     3.0793450    -0.0591360
  H       -0.8776040    -0.8405290    -1.9883130
  H        2.3169530     0.8915480    -1.9822160
  H       -1.9259890     1.5154960     1.4543950
  H        0.4297020    -0.3695730     1.6680340
  H       -2.9244160    -2.2005870    -1.6797290
  H        4.3341360    -0.4274460    -1.3999430
  H       -3.9507500     0.1497620     1.7748780
  H        2.4522940    -1.6709080     2.2649740
  H       -4.4717450    -1.7133490     0.2118480
  H        4.4104250    -1.7123070     0.7301740
units angstrom
no_reorient  #important for SAPT in psi4, default
symmetry c1  #important for SAPT in psi4, default
}

set PROPERTIES_ORIGIN ["COM"]
properties('MP2/aug-cc-pvtz', properties = ['dipole'])
--------------------------------------------------------------------------

    Molecular point group: c1
  Charge       = 0
  Multiplicity = 1
  Basis Set: AUG-CC-PVTZ
    Blend: AUG-CC-PVTZ
  Basis Set: (AUG-CC-PVTZ AUX)
    Blend: AUG-CC-PVTZ-JKFIT

    Orbital Energies [Eh]
    ---------------------

    Doubly Occupied:

       1A    -11.243383     2A    -11.242785     3A    -11.242068
       4A    -11.237962     5A    -11.235972     6A    -11.235875
       7A    -11.234990     8A    -11.234788     9A    -11.233750
      10A    -11.233130    11A    -11.232124    12A    -11.230404
      13A    -11.230036    14A    -11.217619    15A     -1.163025
      16A     -1.143782    17A     -1.081518    18A     -1.015261
      19A     -1.010675    20A     -1.003487    21A     -0.973660
      22A     -0.875639    23A     -0.829199    24A     -0.820324
      25A     -0.813376    26A     -0.767995    27A     -0.701197
      28A     -0.687799    29A     -0.645441    30A     -0.639999
      31A     -0.621229    32A     -0.616667    33A     -0.597233
      34A     -0.590138    35A     -0.581550    36A     -0.574731
      37A     -0.546368    38A     -0.530064    39A     -0.514014
      40A     -0.507116    41A     -0.493596    42A     -0.491830
      43A     -0.475690    44A     -0.470230    45A     -0.462396
      46A     -0.339360    47A     -0.336199    48A     -0.333238
      49A     -0.312895

  @DF-RHF Final Energy:  -538.47608786212948

   => Energetics <=

    Nuclear Repulsion Energy =            806.2880209164003418
    One-Electron Energy =               -2327.8245997066255768
    Two-Electron Energy =                 983.0604909280956463
    Total Energy =                       -538.4760878621294751
  Basis Set: (AUG-CC-PVTZ AUX)
    Blend: AUG-CC-PVTZ-RI
    Molecular point group: c1

    Geometry (in Angstrom), charge = 0, multiplicity = 1:

       Center              X                  Y                   Z               Mass
    ------------   -----------------  -----------------  -----------------  -----------------
         C            0.036472038843     1.226808122575    -0.518396290847    12.000000000000
         C           -1.323537061157     0.580518622575    -0.335850490847    12.000000000000
         C            1.245310038843     0.371535122575    -0.186595290847    12.000000000000
         C            0.110435038843     2.559452122575     0.232738709153    12.000000000000
         C           -1.550222961157    -0.608327877425    -1.158649290847    12.000000000000
         C            2.354241038843     0.344040122575    -1.040781290847    12.000000000000
         C           -2.120686961157     0.710642122575     0.773065709153    12.000000000000
         C            1.299094038843    -0.355100877425     1.011208709153    12.000000000000
         C           -2.699161961157    -1.376588877425    -0.983332290847    12.000000000000
         C            3.490733038843    -0.399600877425    -0.714439290847    12.000000000000
         C           -3.274743961157    -0.058949877425     0.953132709153    12.000000000000
         C            2.433718038843    -1.096214877425     1.341473709153    12.000000000000
         C           -3.566932961157    -1.105127877425     0.078843709153    12.000000000000
         C            3.534907038843    -1.118621877425     0.481097709153    12.000000000000
         H            0.083056038843     1.452815122575    -1.593794290847     1.007825032230
         H            0.147020038843     2.398884122575     1.314159709153     1.007825032230
         H           -0.750292961157     3.194830122575     0.000321709153     1.007825032230
         H            1.023127038843     3.090993122575    -0.052231290847     1.007825032230
         H           -0.871027961157    -0.828880877425    -1.981408290847     1.007825032230
         H            2.323529038843     0.903196122575    -1.975311290847     1.007825032230
         H           -1.919412961157     1.527144122575     1.461299709153     1.007825032230
         H            0.436278038843    -0.357924877425     1.674938709153     1.007825032230
         H           -2.917839961157    -2.188938877425    -1.672824290847     1.007825032230
         H            4.340712038843    -0.415797877425    -1.393038290847     1.007825032230
         H           -3.944173961157     0.161410122575     1.781782709153     1.007825032230
         H            2.458870038843    -1.659259877425     2.271878709153     1.007825032230
         H           -4.465168961157    -1.701700877425     0.218752709153     1.007825032230
         H            4.417001038843    -1.700658877425     0.737078709153     1.007825032230

  Basis Set: AUG-CC-PVTZ
    Blend: AUG-CC-PVTZ
  Basis Set: (AUG-CC-PVTZ AUX)
    Blend: AUG-CC-PVTZ-JKFIT
	 Reference Energy          =    -538.4760878621294751 [Eh]
	 Singles Energy            =      -0.0000000000000000 [Eh]
	 Same-Spin Energy          =      -0.6101103734270061 [Eh]
	 Opposite-Spin Energy      =      -1.9392547913066287 [Eh]
	 Correlation Energy        =      -2.5493651647336346 [Eh]
	 Total Energy              =    -541.0254530268631470 [Eh]

	 ================> DF-SCS-MP2 Energies <==================
	-----------------------------------------------------------
	 SCS Same-Spin Scale       =       0.3333333333333333 [-]
	 SCS Opposite-Spin Scale   =       1.2000000000000000 [-]
	 SCS Same-Spin Energy      =      -0.2033701244756687 [Eh]
	 SCS Opposite-Spin Energy  =      -2.3271057495679544 [Eh]
	 SCS Correlation Energy    =      -2.5304758740436233 [Eh]
	 SCS Total Energy          =    -541.0065637361731206 [Eh]
	-----------------------------------------------------------

  Dipole Moment: [D]
     X:     0.0386      Y:     0.0746      Z:    -0.0330     Total:     0.0902

*** Psi4 exiting successfully. Buy a developer a beer!
