                               Psi4 1.4a3.dev225

  ==> Input File <==

--------------------------------------------------------------------------
#psi4
#
memory 32 gb

molecule  {
0 1
  C        0.0298960     1.2151600    -0.5253010
  C       -1.2948850     0.4130445    -0.2878514
  C        1.2387340     0.3598870    -0.1935000
  C        0.1038590     2.5478040     0.2258340
  C       -1.5567990    -0.6199760    -1.1655540
  C        2.3476650     0.3323920    -1.0476860
  C       -2.1272630     0.6989940     0.7661610
  C        1.2925180    -0.3667490     1.0043040
  C       -2.7057380    -1.3882370    -0.9902370
  C        3.4841570    -0.4112490    -0.7213440
  C       -3.2813200    -0.0705980     0.9462280
  C        2.4271420    -1.1078630     1.3345690
  C       -3.5735090    -1.1167760     0.0719390
  C        3.5283310    -1.1302700     0.4741930
  H        0.0764800     1.4411670    -1.6006990
  H        0.1404440     2.3872360     1.3072550
  H       -0.7568690     3.1831820    -0.0065830
  H        1.0165510     3.0793450    -0.0591360
  H       -0.8776040    -0.8405290    -1.9883130
  H        2.3169530     0.8915480    -1.9822160
  H       -1.9259890     1.5154960     1.4543950
  H        0.4297020    -0.3695730     1.6680340
  H       -2.9244160    -2.2005870    -1.6797290
  H        4.3341360    -0.4274460    -1.3999430
  H       -3.9507500     0.1497620     1.7748780
  H        2.4522940    -1.6709080     2.2649740
  H       -4.4717450    -1.7133490     0.2118480
  H        4.4104250    -1.7123070     0.7301740
units angstrom
no_reorient  #important for SAPT in psi4, default
symmetry c1  #important for SAPT in psi4, default
}

set PROPERTIES_ORIGIN ["COM"]
properties('MP2/aug-cc-pvtz', properties = ['dipole'])
--------------------------------------------------------------------------

    Molecular point group: c1
  Charge       = 0
  Multiplicity = 1
  Basis Set: AUG-CC-PVTZ
    Blend: AUG-CC-PVTZ
  Basis Set: (AUG-CC-PVTZ AUX)
    Blend: AUG-CC-PVTZ-JKFIT

    Orbital Energies [Eh]
    ---------------------

    Doubly Occupied:

       1A    -11.244215     2A    -11.239427     3A    -11.238005
       4A    -11.235965     5A    -11.235513     6A    -11.234814
       7A    -11.234077     8A    -11.231731     9A    -11.231247
      10A    -11.230801    11A    -11.228927    12A    -11.228633
      13A    -11.228447    14A    -11.219311    15A     -1.165062
      16A     -1.146020    17A     -1.077336    18A     -1.014881
      19A     -1.010869    20A     -1.006641    21A     -0.975389
      22A     -0.873267    23A     -0.828329    24A     -0.821507
      25A     -0.812591    26A     -0.770280    27A     -0.700558
      28A     -0.687509    29A     -0.645160    30A     -0.635714
      31A     -0.625755    32A     -0.615963    33A     -0.594588
      34A     -0.591615    35A     -0.582135    36A     -0.576428
      37A     -0.546369    38A     -0.530864    39A     -0.513459
      40A     -0.507433    41A     -0.495055    42A     -0.493815
      43A     -0.476812    44A     -0.473499    45A     -0.457355
      46A     -0.340088    47A     -0.336245    48A     -0.333085
      49A     -0.315047

  @DF-RHF Final Energy:  -538.48686494476090

   => Energetics <=

    Nuclear Repulsion Energy =            807.5015479787269896
    One-Electron Energy =               -2330.3011436129741014
    Two-Electron Energy =                 984.3127306894861022
    Total Energy =                       -538.4868649447608959
  Basis Set: (AUG-CC-PVTZ AUX)
    Blend: AUG-CC-PVTZ-RI
    Molecular point group: c1

    Geometry (in Angstrom), charge = 0, multiplicity = 1:

       Center              X                  Y                   Z               Mass
    ------------   -----------------  -----------------  -----------------  -----------------
         C            0.034150704245     1.237076183725    -0.522014143938    12.000000000000
         C           -1.290630295755     0.434960683725    -0.284564543938    12.000000000000
         C            1.242988704245     0.381803183725    -0.190213143938    12.000000000000
         C            0.108113704245     2.569720183725     0.229120856062    12.000000000000
         C           -1.552544295755    -0.598059816275    -1.162267143938    12.000000000000
         C            2.351919704245     0.354308183725    -1.044399143938    12.000000000000
         C           -2.123008295755     0.720910183725     0.769447856062    12.000000000000
         C            1.296772704245    -0.344832816275     1.007590856062    12.000000000000
         C           -2.701483295755    -1.366320816275    -0.986950143938    12.000000000000
         C            3.488411704245    -0.389332816275    -0.718057143938    12.000000000000
         C           -3.277065295755    -0.048681816275     0.949514856062    12.000000000000
         C            2.431396704245    -1.085946816275     1.337855856062    12.000000000000
         C           -3.569254295755    -1.094859816275     0.075225856062    12.000000000000
         C            3.532585704245    -1.108353816275     0.477479856062    12.000000000000
         H            0.080734704245     1.463083183725    -1.597412143938     1.007825032230
         H            0.144698704245     2.409152183725     1.310541856062     1.007825032230
         H           -0.752614295755     3.205098183725    -0.003296143938     1.007825032230
         H            1.020805704245     3.101261183725    -0.055849143938     1.007825032230
         H           -0.873349295755    -0.818612816275    -1.985026143938     1.007825032230
         H            2.321207704245     0.913464183725    -1.978929143938     1.007825032230
         H           -1.921734295755     1.537412183725     1.457681856062     1.007825032230
         H            0.433956704245    -0.347656816275     1.671320856062     1.007825032230
         H           -2.920161295755    -2.178670816275    -1.676442143938     1.007825032230
         H            4.338390704245    -0.405529816275    -1.396656143938     1.007825032230
         H           -3.946495295755     0.171678183725     1.778164856062     1.007825032230
         H            2.456548704245    -1.648991816275     2.268260856062     1.007825032230
         H           -4.467490295755    -1.691432816275     0.215134856062     1.007825032230
         H            4.414679704245    -1.690390816275     0.733460856062     1.007825032230

  Basis Set: AUG-CC-PVTZ
    Blend: AUG-CC-PVTZ
  Basis Set: (AUG-CC-PVTZ AUX)
    Blend: AUG-CC-PVTZ-JKFIT
	 Reference Energy          =    -538.4868649447608959 [Eh]
	 Singles Energy            =      -0.0000000000000000 [Eh]
	 Same-Spin Energy          =      -0.6096033682023828 [Eh]
	 Opposite-Spin Energy      =      -1.9374059733467237 [Eh]
	 Correlation Energy        =      -2.5470093415491064 [Eh]
	 Total Energy              =    -541.0338742863100379 [Eh]

	 ================> DF-SCS-MP2 Energies <==================
	-----------------------------------------------------------
	 SCS Same-Spin Scale       =       0.3333333333333333 [-]
	 SCS Opposite-Spin Scale   =       1.2000000000000000 [-]
	 SCS Same-Spin Energy      =      -0.2032011227341276 [Eh]
	 SCS Opposite-Spin Energy  =      -2.3248871680160685 [Eh]
	 SCS Correlation Energy    =      -2.5280882907501963 [Eh]
	 SCS Total Energy          =    -541.0149532355111432 [Eh]
	-----------------------------------------------------------

  Dipole Moment: [D]
     X:    -0.0340      Y:     0.1865      Z:    -0.0657     Total:     0.2006

*** Psi4 exiting successfully. Buy a developer a beer!
