                               Psi4 1.3.2 release

  ==> Input File <==

--------------------------------------------------------------------------
#psi4
#
memory 32 gb

molecule  {
0 1
  C       -0.0077279     1.2993318    -0.3960500
  C       -1.2526080     0.4386420    -0.2954290
  C        1.2387340     0.3598870    -0.1935000
  C        0.1038590     2.5478040     0.2258340
  C       -1.5567990    -0.6199760    -1.1655540
  C        2.3476650     0.3323920    -1.0476860
  C       -2.1272630     0.6989940     0.7661610
  C        1.2925180    -0.3667490     1.0043040
  C       -2.7057380    -1.3882370    -0.9902370
  C        3.4841570    -0.4112490    -0.7213440
  C       -3.2813200    -0.0705980     0.9462280
  C        2.4271420    -1.1078630     1.3345690
  C       -3.5735090    -1.1167760     0.0719390
  C        3.5283310    -1.1302700     0.4741930
  H        0.0764800     1.4411670    -1.6006990
  H        0.1404440     2.3872360     1.3072550
  H       -0.7568690     3.1831820    -0.0065830
  H        1.0165510     3.0793450    -0.0591360
  H       -0.8776040    -0.8405290    -1.9883130
  H        2.3169530     0.8915480    -1.9822160
  H       -1.9259890     1.5154960     1.4543950
  H        0.4297020    -0.3695730     1.6680340
  H       -2.9244160    -2.2005870    -1.6797290
  H        4.3341360    -0.4274460    -1.3999430
  H       -3.9507500     0.1497620     1.7748780
  H        2.4522940    -1.6709080     2.2649740
  H       -4.4717450    -1.7133490     0.2118480
  H        4.4104250    -1.7123070     0.7301740
units angstrom
no_reorient  #important for SAPT in psi4, default
symmetry c1  #important for SAPT in psi4, default
}

set PROPERTIES_ORIGIN ["COM"]
properties('MP2/aug-cc-pvtz', properties = ['dipole'])
--------------------------------------------------------------------------

    Molecular point group: c1
  Charge       = 0
  Multiplicity = 1
  Basis Set: AUG-CC-PVTZ
    Blend: AUG-CC-PVTZ
  Basis Set: (AUG-CC-PVTZ AUX)
    Blend: AUG-CC-PVTZ-JKFIT

    Orbital Energies [Eh]
    ---------------------

    Doubly Occupied:

       1A    -11.251143     2A    -11.243954     3A    -11.242558
       4A    -11.236633     5A    -11.235752     6A    -11.235162
       7A    -11.233953     8A    -11.233279     9A    -11.232996
      10A    -11.231807    11A    -11.231758    12A    -11.229492
      13A    -11.228329    14A    -11.216092    15A     -1.165364
      16A     -1.143796    17A     -1.091364    18A     -1.012520
      19A     -1.010634    20A     -1.005492    21A     -0.991728
      22A     -0.870286    23A     -0.828407    24A     -0.819873
      25A     -0.812032    26A     -0.765156    27A     -0.700172
      28A     -0.686796    29A     -0.646226    30A     -0.637480
      31A     -0.627533    32A     -0.615124    33A     -0.602077
      34A     -0.591871    35A     -0.582017    36A     -0.579320
      37A     -0.567984    38A     -0.533927    39A     -0.509043
      40A     -0.505344    41A     -0.494107    42A     -0.492530
      43A     -0.487486    44A     -0.454862    45A     -0.443841
      46A     -0.341199    47A     -0.334969    48A     -0.333828
      49A     -0.310539

  @DF-RHF Final Energy:  -538.45912302716977

   => Energetics <=

    Nuclear Repulsion Energy =            807.7299092581184823
    One-Electron Energy =               -2330.6223956597500546
    Two-Electron Energy =                 984.4333633744619192
    Total Energy =                       -538.4591230271697668
  Basis Set: (AUG-CC-PVTZ AUX)
    Blend: AUG-CC-PVTZ-RI
    Molecular point group: c1

    Geometry (in Angstrom), charge = 0, multiplicity = 1:

       Center              X                  Y                   Z               Mass
    ------------   -----------------  -----------------  -----------------  -----------------
         C           -0.003779808999     1.314014801299    -0.400780739920    12.000000000000
         C           -1.248659908999     0.453325001299    -0.300159739920    12.000000000000
         C            1.242682091001     0.374570001299    -0.198230739920    12.000000000000
         C            0.107807091001     2.562487001299     0.221103260080    12.000000000000
         C           -1.552850908999    -0.605292998701    -1.170284739920    12.000000000000
         C            2.351613091001     0.347075001299    -1.052416739920    12.000000000000
         C           -2.123314908999     0.713677001299     0.761430260080    12.000000000000
         C            1.296466091001    -0.352065998701     0.999573260080    12.000000000000
         C           -2.701789908999    -1.373553998701    -0.994967739920    12.000000000000
         C            3.488105091001    -0.396565998701    -0.726074739920    12.000000000000
         C           -3.277371908999    -0.055914998701     0.941497260080    12.000000000000
         C            2.431090091001    -1.093179998701     1.329838260080    12.000000000000
         C           -3.569560908999    -1.102092998701     0.067208260080    12.000000000000
         C            3.532279091001    -1.115586998701     0.469462260080    12.000000000000
         H            0.080428091001     1.455850001299    -1.605429739920     1.007825032230
         H            0.144392091001     2.401919001299     1.302524260080     1.007825032230
         H           -0.752920908999     3.197865001299    -0.011313739920     1.007825032230
         H            1.020499091001     3.094028001299    -0.063866739920     1.007825032230
         H           -0.873655908999    -0.825845998701    -1.993043739920     1.007825032230
         H            2.320901091001     0.906231001299    -1.986946739920     1.007825032230
         H           -1.922040908999     1.530179001299     1.449664260080     1.007825032230
         H            0.433650091001    -0.354889998701     1.663303260080     1.007825032230
         H           -2.920467908999    -2.185903998701    -1.684459739920     1.007825032230
         H            4.338084091001    -0.412762998701    -1.404673739920     1.007825032230
         H           -3.946801908999     0.164445001299     1.770147260080     1.007825032230
         H            2.456242091001    -1.656224998701     2.260243260080     1.007825032230
         H           -4.467796908999    -1.698665998701     0.207117260080     1.007825032230
         H            4.414373091001    -1.697623998701     0.725443260080     1.007825032230

  Basis Set: AUG-CC-PVTZ
    Blend: AUG-CC-PVTZ
  Basis Set: (AUG-CC-PVTZ AUX)
    Blend: AUG-CC-PVTZ-JKFIT
	 Reference Energy          =    -538.4591230271697668 [Eh]
	 Singles Energy            =      -0.0000000000000000 [Eh]
	 Same-Spin Energy          =      -0.6117204075618863 [Eh]
	 Opposite-Spin Energy      =      -1.9408123953160028 [Eh]
	 Correlation Energy        =      -2.5525328028778889 [Eh]
	 Total Energy              =    -541.0116558300476299 [Eh]

	 ================> DF-SCS-MP2 Energies <==================
	-----------------------------------------------------------
	 SCS Same-Spin Scale       =       0.3333333333333333 [-]
	 SCS Opposite-Spin Scale   =       1.2000000000000000 [-]
	 SCS Same-Spin Energy      =      -0.2039068025206288 [Eh]
	 SCS Opposite-Spin Energy  =      -2.3289748743792034 [Eh]
	 SCS Correlation Energy    =      -2.5328816768998319 [Eh]
	 SCS Total Energy          =    -540.9920047040695863 [Eh]
	-----------------------------------------------------------

  Dipole Moment: [D]
     X:     0.1159      Y:     0.2557      Z:     0.0376     Total:     0.2832

*** Psi4 exiting successfully. Buy a developer a beer!
