                               Psi4 1.3.2 release

  ==> Input File <==

--------------------------------------------------------------------------
#psi4
#
memory 32 gb

molecule  {
0 1
  C        0.0298960     1.2151600    -0.5253010
  C       -1.1933749     0.3281914    -0.3928886
  C        1.2387340     0.3598870    -0.1935000
  C        0.1038590     2.5478040     0.2258340
  C       -1.5567990    -0.6199760    -1.1655540
  C        2.3476650     0.3323920    -1.0476860
  C       -2.1272630     0.6989940     0.7661610
  C        1.2925180    -0.3667490     1.0043040
  C       -2.7057380    -1.3882370    -0.9902370
  C        3.4841570    -0.4112490    -0.7213440
  C       -3.2813200    -0.0705980     0.9462280
  C        2.4271420    -1.1078630     1.3345690
  C       -3.5735090    -1.1167760     0.0719390
  C        3.5283310    -1.1302700     0.4741930
  H        0.0764800     1.4411670    -1.6006990
  H        0.1404440     2.3872360     1.3072550
  H       -0.7568690     3.1831820    -0.0065830
  H        1.0165510     3.0793450    -0.0591360
  H       -0.8776040    -0.8405290    -1.9883130
  H        2.3169530     0.8915480    -1.9822160
  H       -1.9259890     1.5154960     1.4543950
  H        0.4297020    -0.3695730     1.6680340
  H       -2.9244160    -2.2005870    -1.6797290
  H        4.3341360    -0.4274460    -1.3999430
  H       -3.9507500     0.1497620     1.7748780
  H        2.4522940    -1.6709080     2.2649740
  H       -4.4717450    -1.7133490     0.2118480
  H        4.4104250    -1.7123070     0.7301740
units angstrom
no_reorient  #important for SAPT in psi4, default
symmetry c1  #important for SAPT in psi4, default
}

set PROPERTIES_ORIGIN ["COM"]
properties('MP2/aug-cc-pvtz', properties = ['dipole'])
--------------------------------------------------------------------------

    Molecular point group: c1
  Charge       = 0
  Multiplicity = 1
  Basis Set: AUG-CC-PVTZ
    Blend: AUG-CC-PVTZ
  Basis Set: (AUG-CC-PVTZ AUX)
    Blend: AUG-CC-PVTZ-JKFIT

    Orbital Energies [Eh]
    ---------------------

    Doubly Occupied:

       1A    -11.243603     2A    -11.242031     3A    -11.239285
       4A    -11.239065     5A    -11.236278     6A    -11.234721
       7A    -11.234666     8A    -11.234231     9A    -11.231920
      10A    -11.230825    11A    -11.230634    12A    -11.228746
      13A    -11.223815    14A    -11.214435    15A     -1.166729
      16A     -1.144789    17A     -1.081850    18A     -1.025228
      19A     -1.010137    20A     -0.997981    21A     -0.974485
      22A     -0.879818    23A     -0.826936    24A     -0.825436
      25A     -0.807240    26A     -0.769797    27A     -0.699386
      28A     -0.688006    29A     -0.649939    30A     -0.637640
      31A     -0.625925    32A     -0.610097    33A     -0.596848
      34A     -0.586327    35A     -0.581091    36A     -0.578760
      37A     -0.548977    38A     -0.533173    39A     -0.513542
      40A     -0.510480    41A     -0.500367    42A     -0.489519
      43A     -0.485091    44A     -0.473400    45A     -0.440661
      46A     -0.354274    47A     -0.333584    48A     -0.325580
      49A     -0.310362

  @DF-RHF Final Energy:  -538.45853063951733

   => Energetics <=

    Nuclear Repulsion Energy =            807.9223806979440496
    One-Electron Energy =               -2331.0664002401640573
    Two-Electron Energy =                 984.6854889027027866
    Total Energy =                       -538.4585306395173347
  Basis Set: (AUG-CC-PVTZ AUX)
    Blend: AUG-CC-PVTZ-RI
    Molecular point group: c1

    Geometry (in Angstrom), charge = 0, multiplicity = 1:

       Center              X                  Y                   Z               Mass
    ------------   -----------------  -----------------  -----------------  -----------------
         C            0.027461756867     1.242667528042    -0.515092780413    12.000000000000
         C           -1.195809143133     0.355698928042    -0.382680380413    12.000000000000
         C            1.236299756867     0.387394528042    -0.183291780413    12.000000000000
         C            0.101424756867     2.575311528042     0.236042219587    12.000000000000
         C           -1.559233243133    -0.592468471958    -1.155345780413    12.000000000000
         C            2.345230756867     0.359899528042    -1.037477780413    12.000000000000
         C           -2.129697243133     0.726501528042     0.776369219587    12.000000000000
         C            1.290083756867    -0.339241471958     1.014512219587    12.000000000000
         C           -2.708172243133    -1.360729471958    -0.980028780413    12.000000000000
         C            3.481722756867    -0.383741471958    -0.711135780413    12.000000000000
         C           -3.283754243133    -0.043090471958     0.956436219587    12.000000000000
         C            2.424707756867    -1.080355471958     1.344777219587    12.000000000000
         C           -3.575943243133    -1.089268471958     0.082147219587    12.000000000000
         C            3.525896756867    -1.102762471958     0.484401219587    12.000000000000
         H            0.074045756867     1.468674528042    -1.590490780413     1.007825032230
         H            0.138009756867     2.414743528042     1.317463219587     1.007825032230
         H           -0.759303243133     3.210689528042     0.003625219587     1.007825032230
         H            1.014116756867     3.106852528042    -0.048927780413     1.007825032230
         H           -0.880038243133    -0.813021471958    -1.978104780413     1.007825032230
         H            2.314518756867     0.919055528042    -1.972007780413     1.007825032230
         H           -1.928423243133     1.543003528042     1.464603219587     1.007825032230
         H            0.427267756867    -0.342065471958     1.678242219587     1.007825032230
         H           -2.926850243133    -2.173079471958    -1.669520780413     1.007825032230
         H            4.331701756867    -0.399938471958    -1.389734780413     1.007825032230
         H           -3.953184243133     0.177269528042     1.785086219587     1.007825032230
         H            2.449859756867    -1.643400471958     2.275182219587     1.007825032230
         H           -4.474179243133    -1.685841471958     0.222056219587     1.007825032230
         H            4.407990756867    -1.684799471958     0.740382219587     1.007825032230

  Basis Set: AUG-CC-PVTZ
    Blend: AUG-CC-PVTZ
  Basis Set: (AUG-CC-PVTZ AUX)
    Blend: AUG-CC-PVTZ-JKFIT
	 Reference Energy          =    -538.4585306395173347 [Eh]
	 Singles Energy            =      -0.0000000000000000 [Eh]
	 Same-Spin Energy          =      -0.6097398857313413 [Eh]
	 Opposite-Spin Energy      =      -1.9393459902553336 [Eh]
	 Correlation Energy        =      -2.5490858759866750 [Eh]
	 Total Energy              =    -541.0076165155039689 [Eh]

	 ================> DF-SCS-MP2 Energies <==================
	-----------------------------------------------------------
	 SCS Same-Spin Scale       =       0.3333333333333333 [-]
	 SCS Opposite-Spin Scale   =       1.2000000000000000 [-]
	 SCS Same-Spin Energy      =      -0.2032466285771138 [Eh]
	 SCS Opposite-Spin Energy  =      -2.3272151883064001 [Eh]
	 SCS Correlation Energy    =      -2.5304618168835140 [Eh]
	 SCS Total Energy          =    -540.9889924564008652 [Eh]
	-----------------------------------------------------------

  Dipole Moment: [D]
     X:     0.0412      Y:     0.2980      Z:    -0.0397     Total:     0.3034

*** Psi4 exiting successfully. Buy a developer a beer!
