                               Psi4 1.3.2 release

  ==> Input File <==

--------------------------------------------------------------------------
#psi4
#
memory 32 gb

molecule  {
0 1
  C        0.0393307     1.1851638    -0.5678943
  C       -1.2526080     0.4386420    -0.2954290
  C        1.2387340     0.3598870    -0.1935000
  C        0.1038590     2.5478040     0.2258340
  C       -1.5567990    -0.6199760    -1.1655540
  C        2.3476650     0.3323920    -1.0476860
  C       -2.1272630     0.6989940     0.7661610
  C        1.2925180    -0.3667490     1.0043040
  C       -2.7057380    -1.3882370    -0.9902370
  C        3.4841570    -0.4112490    -0.7213440
  C       -3.2813200    -0.0705980     0.9462280
  C        2.4271420    -1.1078630     1.3345690
  C       -3.5735090    -1.1167760     0.0719390
  C        3.5283310    -1.1302700     0.4741930
  H        0.0764800     1.4411670    -1.6006990
  H        0.1404440     2.3872360     1.3072550
  H       -0.7568690     3.1831820    -0.0065830
  H        1.0165510     3.0793450    -0.0591360
  H       -0.8776040    -0.8405290    -1.9883130
  H        2.3169530     0.8915480    -1.9822160
  H       -1.9259890     1.5154960     1.4543950
  H        0.4297020    -0.3695730     1.6680340
  H       -2.9244160    -2.2005870    -1.6797290
  H        4.3341360    -0.4274460    -1.3999430
  H       -3.9507500     0.1497620     1.7748780
  H        2.4522940    -1.6709080     2.2649740
  H       -4.4717450    -1.7133490     0.2118480
  H        4.4104250    -1.7123070     0.7301740
units angstrom
no_reorient  #important for SAPT in psi4, default
symmetry c1  #important for SAPT in psi4, default
}

set PROPERTIES_ORIGIN ["COM"]
properties('MP2/aug-cc-pvtz', properties = ['dipole'])
--------------------------------------------------------------------------

    Molecular point group: c1
  Charge       = 0
  Multiplicity = 1
  Basis Set: AUG-CC-PVTZ
    Blend: AUG-CC-PVTZ
  Basis Set: (AUG-CC-PVTZ AUX)
    Blend: AUG-CC-PVTZ-JKFIT

    Orbital Energies [Eh]
    ---------------------

    Doubly Occupied:

       1A    -11.241936     2A    -11.240917     3A    -11.240023
       4A    -11.236023     5A    -11.235087     6A    -11.234980
       7A    -11.234706     8A    -11.232531     9A    -11.232215
      10A    -11.231309    11A    -11.231012    12A    -11.230007
      13A    -11.229483    14A    -11.221338    15A     -1.164599
      16A     -1.144027    17A     -1.080051    18A     -1.012389
      19A     -1.010831    20A     -1.006089    21A     -0.969803
      22A     -0.879741    23A     -0.828757    24A     -0.819171
      25A     -0.814154    26A     -0.771767    27A     -0.700201
      28A     -0.688720    29A     -0.649337    30A     -0.637690
      31A     -0.623775    32A     -0.615194    33A     -0.594607
      34A     -0.589787    35A     -0.581695    36A     -0.577280
      37A     -0.543579    38A     -0.528625    39A     -0.517098
      40A     -0.507456    41A     -0.494613    42A     -0.491713
      43A     -0.479642    44A     -0.468722    45A     -0.467645
      46A     -0.338630    47A     -0.334629    48A     -0.332789
      49A     -0.313615

  @DF-RHF Final Energy:  -538.48606733538668

   => Energetics <=

    Nuclear Repulsion Energy =            807.4211121442813237
    One-Electron Energy =               -2330.1143869406660087
    Two-Electron Energy =                 984.2072074609980064
    Total Energy =                       -538.4860673353866787
  Basis Set: (AUG-CC-PVTZ AUX)
    Blend: AUG-CC-PVTZ-RI
    Molecular point group: c1

    Geometry (in Angstrom), charge = 0, multiplicity = 1:

       Center              X                  Y                   Z               Mass
    ------------   -----------------  -----------------  -----------------  -----------------
         C            0.040177892676     1.207369833433    -0.561301462464    12.000000000000
         C           -1.251760807324     0.460848033433    -0.288836162464    12.000000000000
         C            1.239581192676     0.382093033433    -0.186907162464    12.000000000000
         C            0.104706192676     2.570010033433     0.232426837536    12.000000000000
         C           -1.555951807324    -0.597769966567    -1.158961162464    12.000000000000
         C            2.348512192676     0.354598033433    -1.041093162464    12.000000000000
         C           -2.126415807324     0.721200033433     0.772753837536    12.000000000000
         C            1.293365192676    -0.344542966567     1.010896837536    12.000000000000
         C           -2.704890807324    -1.366030966567    -0.983644162464    12.000000000000
         C            3.485004192676    -0.389042966567    -0.714751162464    12.000000000000
         C           -3.280472807324    -0.048391966567     0.952820837536    12.000000000000
         C            2.427989192676    -1.085656966567     1.341161837536    12.000000000000
         C           -3.572661807324    -1.094569966567     0.078531837536    12.000000000000
         C            3.529178192676    -1.108063966567     0.480785837536    12.000000000000
         H            0.077327192676     1.463373033433    -1.594106162464     1.007825032230
         H            0.141291192676     2.409442033433     1.313847837536     1.007825032230
         H           -0.756021807324     3.205388033433     0.000009837536     1.007825032230
         H            1.017398192676     3.101551033433    -0.052543162464     1.007825032230
         H           -0.876756807324    -0.818322966567    -1.981720162464     1.007825032230
         H            2.317800192676     0.913754033433    -1.975623162464     1.007825032230
         H           -1.925141807324     1.537702033433     1.460987837536     1.007825032230
         H            0.430549192676    -0.347366966567     1.674626837536     1.007825032230
         H           -2.923568807324    -2.178380966567    -1.673136162464     1.007825032230
         H            4.334983192676    -0.405239966567    -1.393350162464     1.007825032230
         H           -3.949902807324     0.171968033433     1.781470837536     1.007825032230
         H            2.453141192676    -1.648701966567     2.271566837536     1.007825032230
         H           -4.470897807324    -1.691142966567     0.218440837536     1.007825032230
         H            4.411272192676    -1.690100966567     0.736766837536     1.007825032230

  Basis Set: AUG-CC-PVTZ
    Blend: AUG-CC-PVTZ
  Basis Set: (AUG-CC-PVTZ AUX)
    Blend: AUG-CC-PVTZ-JKFIT
	 Reference Energy          =    -538.4860673353866787 [Eh]
	 Singles Energy            =      -0.0000000000000000 [Eh]
	 Same-Spin Energy          =      -0.6098974593330240 [Eh]
	 Opposite-Spin Energy      =      -1.9380926390692028 [Eh]
	 Correlation Energy        =      -2.5479900984022268 [Eh]
	 Total Energy              =    -541.0340574337889166 [Eh]

	 ================> DF-SCS-MP2 Energies <==================
	-----------------------------------------------------------
	 SCS Same-Spin Scale       =       0.3333333333333333 [-]
	 SCS Opposite-Spin Scale   =       1.2000000000000000 [-]
	 SCS Same-Spin Energy      =      -0.2032991531110080 [Eh]
	 SCS Opposite-Spin Energy  =      -2.3257111668830435 [Eh]
	 SCS Correlation Energy    =      -2.5290103199940512 [Eh]
	 SCS Total Energy          =    -541.0150776553807646 [Eh]
	-----------------------------------------------------------

  Dipole Moment: [D]
     X:     0.0024      Y:     0.1860      Z:    -0.0914     Total:     0.2072

*** Psi4 exiting successfully. Buy a developer a beer!
