                               Psi4 1.3.2 release

  ==> Input File <==

--------------------------------------------------------------------------
#psi4
#
memory 32 gb

molecule  {
0 1
  C        0.0298960     1.2151600    -0.5253010
  C       -1.2526080     0.4386420    -0.2954290
  C        1.2387340     0.3598870    -0.1935000
  C        0.1086883     2.6348173     0.2748784
  C       -1.5567990    -0.6199760    -1.1655540
  C        2.3476650     0.3323920    -1.0476860
  C       -2.1272630     0.6989940     0.7661610
  C        1.2925180    -0.3667490     1.0043040
  C       -2.7057380    -1.3882370    -0.9902370
  C        3.4841570    -0.4112490    -0.7213440
  C       -3.2813200    -0.0705980     0.9462280
  C        2.4271420    -1.1078630     1.3345690
  C       -3.5735090    -1.1167760     0.0719390
  C        3.5283310    -1.1302700     0.4741930
  H        0.0764800     1.4411670    -1.6006990
  H        0.1404440     2.3872360     1.3072550
  H       -0.7568690     3.1831820    -0.0065830
  H        1.0165510     3.0793450    -0.0591360
  H       -0.8776040    -0.8405290    -1.9883130
  H        2.3169530     0.8915480    -1.9822160
  H       -1.9259890     1.5154960     1.4543950
  H        0.4297020    -0.3695730     1.6680340
  H       -2.9244160    -2.2005870    -1.6797290
  H        4.3341360    -0.4274460    -1.3999430
  H       -3.9507500     0.1497620     1.7748780
  H        2.4522940    -1.6709080     2.2649740
  H       -4.4717450    -1.7133490     0.2118480
  H        4.4104250    -1.7123070     0.7301740
units angstrom
no_reorient  #important for SAPT in psi4, default
symmetry c1  #important for SAPT in psi4, default
}

set PROPERTIES_ORIGIN ["COM"]
properties('MP2/aug-cc-pvtz', properties = ['dipole'])
--------------------------------------------------------------------------

    Molecular point group: c1
  Charge       = 0
  Multiplicity = 1
  Basis Set: AUG-CC-PVTZ
    Blend: AUG-CC-PVTZ
  Basis Set: (AUG-CC-PVTZ AUX)
    Blend: AUG-CC-PVTZ-JKFIT

    Orbital Energies [Eh]
    ---------------------

    Doubly Occupied:

       1A    -11.246529     2A    -11.241383     3A    -11.240206
       4A    -11.235718     5A    -11.235281     6A    -11.235161
       7A    -11.234422     8A    -11.231947     9A    -11.231536
      10A    -11.231514    11A    -11.231034    12A    -11.230448
      13A    -11.228860    14A    -11.217941    15A     -1.162314
      16A     -1.143714    17A     -1.074906    18A     -1.012131
      19A     -1.010467    20A     -1.005509    21A     -0.970982
      22A     -0.882558    23A     -0.828108    24A     -0.819353
      25A     -0.813291    26A     -0.769616    27A     -0.699406
      28A     -0.686285    29A     -0.646058    30A     -0.636616
      31A     -0.622469    32A     -0.614919    33A     -0.598722
      34A     -0.592290    35A     -0.581678    36A     -0.578085
      37A     -0.548375    38A     -0.537026    39A     -0.514861
      40A     -0.506855    41A     -0.494670    42A     -0.492350
      43A     -0.476414    44A     -0.469936    45A     -0.460058
      46A     -0.338533    47A     -0.334472    48A     -0.332536
      49A     -0.312560

  @DF-RHF Final Energy:  -538.48146559500879

   => Energetics <=

    Nuclear Repulsion Energy =            805.5839903644729247
    One-Electron Energy =               -2326.4507106849614502
    Two-Electron Energy =                 982.3852547254798537
    Total Energy =                       -538.4814655950087854
  Basis Set: (AUG-CC-PVTZ AUX)
    Blend: AUG-CC-PVTZ-RI
    Molecular point group: c1

    Geometry (in Angstrom), charge = 0, multiplicity = 1:

       Center              X                  Y                   Z               Mass
    ------------   -----------------  -----------------  -----------------  -----------------
         C            0.031046662757     1.229655762354    -0.524746573943    12.000000000000
         C           -1.251457337243     0.453137762354    -0.294874573943    12.000000000000
         C            1.239884662757     0.374382762354    -0.192945573943    12.000000000000
         C            0.109838962757     2.649313062354     0.275432826057    12.000000000000
         C           -1.555648337243    -0.605480237646    -1.164999573943    12.000000000000
         C            2.348815662757     0.346887762354    -1.047131573943    12.000000000000
         C           -2.126112337243     0.713489762354     0.766715426057    12.000000000000
         C            1.293668662757    -0.352253237646     1.004858426057    12.000000000000
         C           -2.704587337243    -1.373741237646    -0.989682573943    12.000000000000
         C            3.485307662757    -0.396753237646    -0.720789573943    12.000000000000
         C           -3.280169337243    -0.056102237646     0.946782426057    12.000000000000
         C            2.428292662757    -1.093367237646     1.335123426057    12.000000000000
         C           -3.572358337243    -1.102280237646     0.072493426057    12.000000000000
         C            3.529481662757    -1.115774237646     0.474747426057    12.000000000000
         H            0.077630662757     1.455662762354    -1.600144573943     1.007825032230
         H            0.141594662757     2.401731762354     1.307809426057     1.007825032230
         H           -0.755718337243     3.197677762354    -0.006028573943     1.007825032230
         H            1.017701662757     3.093840762354    -0.058581573943     1.007825032230
         H           -0.876453337243    -0.826033237646    -1.987758573943     1.007825032230
         H            2.318103662757     0.906043762354    -1.981661573943     1.007825032230
         H           -1.924838337243     1.529991762354     1.454949426057     1.007825032230
         H            0.430852662757    -0.355077237646     1.668588426057     1.007825032230
         H           -2.923265337243    -2.186091237646    -1.679174573943     1.007825032230
         H            4.335286662757    -0.412950237646    -1.399388573943     1.007825032230
         H           -3.949599337243     0.164257762354     1.775432426057     1.007825032230
         H            2.453444662757    -1.656412237646     2.265528426057     1.007825032230
         H           -4.470594337243    -1.698853237646     0.212402426057     1.007825032230
         H            4.411575662757    -1.697811237646     0.730728426057     1.007825032230

  Basis Set: AUG-CC-PVTZ
    Blend: AUG-CC-PVTZ
  Basis Set: (AUG-CC-PVTZ AUX)
    Blend: AUG-CC-PVTZ-JKFIT
	 Reference Energy          =    -538.4814655950087854 [Eh]
	 Singles Energy            =      -0.0000000000000000 [Eh]
	 Same-Spin Energy          =      -0.6096711657369400 [Eh]
	 Opposite-Spin Energy      =      -1.9380733236474463 [Eh]
	 Correlation Energy        =      -2.5477444893843861 [Eh]
	 Total Energy              =    -541.0292100843931848 [Eh]

	 ================> DF-SCS-MP2 Energies <==================
	-----------------------------------------------------------
	 SCS Same-Spin Scale       =       0.3333333333333333 [-]
	 SCS Opposite-Spin Scale   =       1.2000000000000000 [-]
	 SCS Same-Spin Energy      =      -0.2032237219123133 [Eh]
	 SCS Opposite-Spin Energy  =      -2.3256879883769357 [Eh]
	 SCS Correlation Energy    =      -2.5289117102892491 [Eh]
	 SCS Total Energy          =    -541.0103773052979932 [Eh]
	-----------------------------------------------------------

  Dipole Moment: [D]
     X:     0.0205      Y:     0.1924      Z:    -0.0790     Total:     0.2090

*** Psi4 exiting successfully. Buy a developer a beer!
