                               Psi4 1.3.2 release

  ==> Input File <==

--------------------------------------------------------------------------
#psi4
#
memory 32 gb

molecule  {
0 1
  C        0.0298960     1.2151600    -0.5253010
  C       -1.2236040     0.3970552    -0.2801884
  C        1.2387340     0.3598870    -0.1935000
  C        0.1038590     2.5478040     0.2258340
  C       -1.5567990    -0.6199760    -1.1655540
  C        2.3476650     0.3323920    -1.0476860
  C       -2.1272630     0.6989940     0.7661610
  C        1.2925180    -0.3667490     1.0043040
  C       -2.7057380    -1.3882370    -0.9902370
  C        3.4841570    -0.4112490    -0.7213440
  C       -3.2813200    -0.0705980     0.9462280
  C        2.4271420    -1.1078630     1.3345690
  C       -3.5735090    -1.1167760     0.0719390
  C        3.5283310    -1.1302700     0.4741930
  H        0.0764800     1.4411670    -1.6006990
  H        0.1404440     2.3872360     1.3072550
  H       -0.7568690     3.1831820    -0.0065830
  H        1.0165510     3.0793450    -0.0591360
  H       -0.8776040    -0.8405290    -1.9883130
  H        2.3169530     0.8915480    -1.9822160
  H       -1.9259890     1.5154960     1.4543950
  H        0.4297020    -0.3695730     1.6680340
  H       -2.9244160    -2.2005870    -1.6797290
  H        4.3341360    -0.4274460    -1.3999430
  H       -3.9507500     0.1497620     1.7748780
  H        2.4522940    -1.6709080     2.2649740
  H       -4.4717450    -1.7133490     0.2118480
  H        4.4104250    -1.7123070     0.7301740
units angstrom
no_reorient  #important for SAPT in psi4, default
symmetry c1  #important for SAPT in psi4, default
}

set PROPERTIES_ORIGIN ["COM"]
properties('MP2/aug-cc-pvtz', properties = ['dipole'])
--------------------------------------------------------------------------

    Molecular point group: c1
  Charge       = 0
  Multiplicity = 1
  Basis Set: AUG-CC-PVTZ
    Blend: AUG-CC-PVTZ
  Basis Set: (AUG-CC-PVTZ AUX)
    Blend: AUG-CC-PVTZ-JKFIT

    Orbital Energies [Eh]
    ---------------------

    Doubly Occupied:

       1A    -11.243355     2A    -11.241425     3A    -11.239658
       4A    -11.235672     5A    -11.235353     6A    -11.235002
       7A    -11.234351     8A    -11.233032     9A    -11.231841
      10A    -11.231361    11A    -11.230979    12A    -11.229025
      13A    -11.228903    14A    -11.220801    15A     -1.164726
      16A     -1.143672    17A     -1.081770    18A     -1.011973
      19A     -1.011050    20A     -1.005336    21A     -0.975109
      22A     -0.877929    23A     -0.828319    24A     -0.818913
      25A     -0.813224    26A     -0.770099    27A     -0.699585
      28A     -0.687842    29A     -0.648660    30A     -0.636775
      31A     -0.624617    32A     -0.614289    33A     -0.595540
      34A     -0.589407    35A     -0.581829    36A     -0.578053
      37A     -0.547466    38A     -0.531237    39A     -0.513987
      40A     -0.506534    41A     -0.494855    42A     -0.491687
      43A     -0.477878    44A     -0.473986    45A     -0.462990
      46A     -0.340741    47A     -0.333687    48A     -0.332424
      49A     -0.312748

  @DF-RHF Final Energy:  -538.48683137248656

   => Energetics <=

    Nuclear Repulsion Energy =            807.7889742075102504
    One-Electron Energy =               -2330.8522168008271365
    Two-Electron Energy =                 984.5764112208302095
    Total Energy =                       -538.4868313724865629
  Basis Set: (AUG-CC-PVTZ AUX)
    Blend: AUG-CC-PVTZ-RI
    Molecular point group: c1

    Geometry (in Angstrom), charge = 0, multiplicity = 1:

       Center              X                  Y                   Z               Mass
    ------------   -----------------  -----------------  -----------------  -----------------
         C            0.029453685347     1.238129789094    -0.522519092743    12.000000000000
         C           -1.224046314653     0.420024989094    -0.277406492743    12.000000000000
         C            1.238291685347     0.382856789094    -0.190718092743    12.000000000000
         C            0.103416685347     2.570773789094     0.228615907257    12.000000000000
         C           -1.557241314653    -0.597006210906    -1.162772092743    12.000000000000
         C            2.347222685347     0.355361789094    -1.044904092743    12.000000000000
         C           -2.127705314653     0.721963789094     0.768942907257    12.000000000000
         C            1.292075685347    -0.343779210906     1.007085907257    12.000000000000
         C           -2.706180314653    -1.365267210906    -0.987455092743    12.000000000000
         C            3.483714685347    -0.388279210906    -0.718562092743    12.000000000000
         C           -3.281762314653    -0.047628210906     0.949009907257    12.000000000000
         C            2.426699685347    -1.084893210906     1.337350907257    12.000000000000
         C           -3.573951314653    -1.093806210906     0.074720907257    12.000000000000
         C            3.527888685347    -1.107300210906     0.476974907257    12.000000000000
         H            0.076037685347     1.464136789094    -1.597917092743     1.007825032230
         H            0.140001685347     2.410205789094     1.310036907257     1.007825032230
         H           -0.757311314653     3.206151789094    -0.003801092743     1.007825032230
         H            1.016108685347     3.102314789094    -0.056354092743     1.007825032230
         H           -0.878046314653    -0.817559210906    -1.985531092743     1.007825032230
         H            2.316510685347     0.914517789094    -1.979434092743     1.007825032230
         H           -1.926431314653     1.538465789094     1.457176907257     1.007825032230
         H            0.429259685347    -0.346603210906     1.670815907257     1.007825032230
         H           -2.924858314653    -2.177617210906    -1.676947092743     1.007825032230
         H            4.333693685347    -0.404476210906    -1.397161092743     1.007825032230
         H           -3.951192314653     0.172731789094     1.777659907257     1.007825032230
         H            2.451851685347    -1.647938210906     2.267755907257     1.007825032230
         H           -4.472187314653    -1.690379210906     0.214629907257     1.007825032230
         H            4.409982685347    -1.689337210906     0.732955907257     1.007825032230

  Basis Set: AUG-CC-PVTZ
    Blend: AUG-CC-PVTZ
  Basis Set: (AUG-CC-PVTZ AUX)
    Blend: AUG-CC-PVTZ-JKFIT
	 Reference Energy          =    -538.4868313724865629 [Eh]
	 Singles Energy            =      -0.0000000000000000 [Eh]
	 Same-Spin Energy          =      -0.6102027005014174 [Eh]
	 Opposite-Spin Energy      =      -1.9384217372059624 [Eh]
	 Correlation Energy        =      -2.5486244377073799 [Eh]
	 Total Energy              =    -541.0354558101939801 [Eh]

	 ================> DF-SCS-MP2 Energies <==================
	-----------------------------------------------------------
	 SCS Same-Spin Scale       =       0.3333333333333333 [-]
	 SCS Opposite-Spin Scale   =       1.2000000000000000 [-]
	 SCS Same-Spin Energy      =      -0.2034009001671391 [Eh]
	 SCS Opposite-Spin Energy  =      -2.3261060846471548 [Eh]
	 SCS Correlation Energy    =      -2.5295069848142941 [Eh]
	 SCS Total Energy          =    -541.0163383573008105 [Eh]
	-----------------------------------------------------------

  Dipole Moment: [D]
     X:     0.0259      Y:     0.2366      Z:    -0.0715     Total:     0.2486

*** Psi4 exiting successfully. Buy a developer a beer!
