                               Psi4 1.3.2 release

  ==> Input File <==

--------------------------------------------------------------------------
#psi4
#
memory 32 gb

molecule  {
0 1
  C        0.0298960     1.2151600    -0.5253010
  C       -1.0834998     0.5410320    -0.3257394
  C        1.2387340     0.3598870    -0.1935000
  C        0.1038590     2.5478040     0.2258340
  C       -1.5567990    -0.6199760    -1.1655540
  C        2.3476650     0.3323920    -1.0476860
  C       -2.1272630     0.6989940     0.7661610
  C        1.2925180    -0.3667490     1.0043040
  C       -2.7057380    -1.3882370    -0.9902370
  C        3.4841570    -0.4112490    -0.7213440
  C       -3.2813200    -0.0705980     0.9462280
  C        2.4271420    -1.1078630     1.3345690
  C       -3.5735090    -1.1167760     0.0719390
  C        3.5283310    -1.1302700     0.4741930
  H        0.0764800     1.4411670    -1.6006990
  H        0.1404440     2.3872360     1.3072550
  H       -0.7568690     3.1831820    -0.0065830
  H        1.0165510     3.0793450    -0.0591360
  H       -0.8776040    -0.8405290    -1.9883130
  H        2.3169530     0.8915480    -1.9822160
  H       -1.9259890     1.5154960     1.4543950
  H        0.4297020    -0.3695730     1.6680340
  H       -2.9244160    -2.2005870    -1.6797290
  H        4.3341360    -0.4274460    -1.3999430
  H       -3.9507500     0.1497620     1.7748780
  H        2.4522940    -1.6709080     2.2649740
  H       -4.4717450    -1.7133490     0.2118480
  H        4.4104250    -1.7123070     0.7301740
units angstrom
no_reorient  #important for SAPT in psi4, default
symmetry c1  #important for SAPT in psi4, default
}

set PROPERTIES_ORIGIN ["COM"]
properties('MP2/aug-cc-pvtz', properties = ['dipole'])
--------------------------------------------------------------------------

    Molecular point group: c1
  Charge       = 0
  Multiplicity = 1
  Basis Set: AUG-CC-PVTZ
    Blend: AUG-CC-PVTZ
  Basis Set: (AUG-CC-PVTZ AUX)
    Blend: AUG-CC-PVTZ-JKFIT

    Orbital Energies [Eh]
    ---------------------

    Doubly Occupied:

       1A    -11.256319     2A    -11.245446     3A    -11.242704
       4A    -11.240157     5A    -11.237499     6A    -11.236695
       7A    -11.235150     8A    -11.234935     9A    -11.234766
      10A    -11.234305    11A    -11.233766    12A    -11.232055
      13A    -11.231835    14A    -11.223850    15A     -1.175888
      16A     -1.136900    17A     -1.101099    18A     -1.013509
      19A     -1.005818    20A     -1.002503    21A     -0.968597
      22A     -0.898001    23A     -0.832317    24A     -0.820021
      25A     -0.806601    26A     -0.765354    27A     -0.703380
      28A     -0.686852    29A     -0.663590    30A     -0.645757
      31A     -0.622855    32A     -0.612649    33A     -0.600071
      34A     -0.592068    35A     -0.583165    36A     -0.571338
      37A     -0.550067    38A     -0.533029    39A     -0.520433
      40A     -0.514004    41A     -0.498107    42A     -0.490584
      43A     -0.488209    44A     -0.470934    45A     -0.436869
      46A     -0.338610    47A     -0.335527    48A     -0.329788
      49A     -0.297422

  @DF-RHF Final Energy:  -538.42510147067833

   => Energetics <=

    Nuclear Repulsion Energy =            807.9335029331790565
    One-Electron Energy =               -2330.8544175100973916
    Two-Electron Energy =                 984.4958131062398934
    Total Energy =                       -538.4251014706783280
  Basis Set: (AUG-CC-PVTZ AUX)
    Blend: AUG-CC-PVTZ-RI
    Molecular point group: c1

    Geometry (in Angstrom), charge = 0, multiplicity = 1:

       Center              X                  Y                   Z               Mass
    ------------   -----------------  -----------------  -----------------  -----------------
         C            0.020221602813     1.228642523897    -0.519517536819    12.000000000000
         C           -1.093174197187     0.554514523897    -0.319955936819    12.000000000000
         C            1.229059602813     0.373369523897    -0.187716536819    12.000000000000
         C            0.094184602813     2.561286523897     0.231617463181    12.000000000000
         C           -1.566473397187    -0.606493476103    -1.159770536819    12.000000000000
         C            2.337990602813     0.345874523897    -1.041902536819    12.000000000000
         C           -2.136937397187     0.712476523897     0.771944463181    12.000000000000
         C            1.282843602813    -0.353266476103     1.010087463181    12.000000000000
         C           -2.715412397187    -1.374754476103    -0.984453536819    12.000000000000
         C            3.474482602813    -0.397766476103    -0.715560536819    12.000000000000
         C           -3.290994397187    -0.057115476103     0.952011463181    12.000000000000
         C            2.417467602813    -1.094380476103     1.340352463181    12.000000000000
         C           -3.583183397187    -1.103293476103     0.077722463181    12.000000000000
         C            3.518656602813    -1.116787476103     0.479976463181    12.000000000000
         H            0.066805602813     1.454649523897    -1.594915536819     1.007825032230
         H            0.130769602813     2.400718523897     1.313038463181     1.007825032230
         H           -0.766543397187     3.196664523897    -0.000799536819     1.007825032230
         H            1.006876602813     3.092827523897    -0.053352536819     1.007825032230
         H           -0.887278397187    -0.827046476103    -1.982529536819     1.007825032230
         H            2.307278602813     0.905030523897    -1.976432536819     1.007825032230
         H           -1.935663397187     1.528978523897     1.460178463181     1.007825032230
         H            0.420027602813    -0.356090476103     1.673817463181     1.007825032230
         H           -2.934090397187    -2.187104476103    -1.673945536819     1.007825032230
         H            4.324461602813    -0.413963476103    -1.394159536819     1.007825032230
         H           -3.960424397187     0.163244523897     1.780661463181     1.007825032230
         H            2.442619602813    -1.657425476103     2.270757463181     1.007825032230
         H           -4.481419397187    -1.699866476103     0.217631463181     1.007825032230
         H            4.400750602813    -1.698824476103     0.735957463181     1.007825032230

  Basis Set: AUG-CC-PVTZ
    Blend: AUG-CC-PVTZ
  Basis Set: (AUG-CC-PVTZ AUX)
    Blend: AUG-CC-PVTZ-JKFIT
	 Reference Energy          =    -538.4251014706783280 [Eh]
	 Singles Energy            =      -0.0000000000000000 [Eh]
	 Same-Spin Energy          =      -0.6149295380095366 [Eh]
	 Opposite-Spin Energy      =      -1.9463115919864358 [Eh]
	 Correlation Energy        =      -2.5612411299959725 [Eh]
	 Total Energy              =    -540.9863426006743339 [Eh]

	 ================> DF-SCS-MP2 Energies <==================
	-----------------------------------------------------------
	 SCS Same-Spin Scale       =       0.3333333333333333 [-]
	 SCS Opposite-Spin Scale   =       1.2000000000000000 [-]
	 SCS Same-Spin Energy      =      -0.2049765126698455 [Eh]
	 SCS Opposite-Spin Energy  =      -2.3355739103837228 [Eh]
	 SCS Correlation Energy    =      -2.5405504230535683 [Eh]
	 SCS Total Energy          =    -540.9656518937318879 [Eh]
	-----------------------------------------------------------

  Dipole Moment: [D]
     X:     0.4154      Y:     0.2968      Z:    -0.0610     Total:     0.5142

*** Psi4 exiting successfully. Buy a developer a beer!
