                               Psi4 1.4a3.dev225

  ==> Input File <==

--------------------------------------------------------------------------
#psi4
#
memory 32 gb

molecule  {
0 1
  C        0.0298960     1.2151600    -0.5253010
  C       -1.2695188     0.4284030    -0.2923980
  C        1.2387340     0.3598870    -0.1935000
  C        0.1038590     2.5478040     0.2258340
  C       -1.5567990    -0.6199760    -1.1655540
  C        2.3476650     0.3323920    -1.0476860
  C       -2.1272630     0.6989940     0.7661610
  C        1.2925180    -0.3667490     1.0043040
  C       -2.7057380    -1.3882370    -0.9902370
  C        3.4841570    -0.4112490    -0.7213440
  C       -3.2813200    -0.0705980     0.9462280
  C        2.4271420    -1.1078630     1.3345690
  C       -3.5735090    -1.1167760     0.0719390
  C        3.5283310    -1.1302700     0.4741930
  H        0.0764800     1.4411670    -1.6006990
  H        0.1404440     2.3872360     1.3072550
  H       -0.7568690     3.1831820    -0.0065830
  H        1.0165510     3.0793450    -0.0591360
  H       -0.8776040    -0.8405290    -1.9883130
  H        2.3169530     0.8915480    -1.9822160
  H       -1.9259890     1.5154960     1.4543950
  H        0.4297020    -0.3695730     1.6680340
  H       -2.9244160    -2.2005870    -1.6797290
  H        4.3341360    -0.4274460    -1.3999430
  H       -3.9507500     0.1497620     1.7748780
  H        2.4522940    -1.6709080     2.2649740
  H       -4.4717450    -1.7133490     0.2118480
  H        4.4104250    -1.7123070     0.7301740
units angstrom
no_reorient  #important for SAPT in psi4, default
symmetry c1  #important for SAPT in psi4, default
}

set PROPERTIES_ORIGIN ["COM"]
properties('MP2/aug-cc-pvtz', properties = ['dipole'])
--------------------------------------------------------------------------

    Molecular point group: c1
  Charge       = 0
  Multiplicity = 1
  Basis Set: AUG-CC-PVTZ
    Blend: AUG-CC-PVTZ
  Basis Set: (AUG-CC-PVTZ AUX)
    Blend: AUG-CC-PVTZ-JKFIT

    Orbital Energies [Eh]
    ---------------------

    Doubly Occupied:

       1A    -11.243676     2A    -11.239932     3A    -11.239866
       4A    -11.235810     5A    -11.235359     6A    -11.235071
       7A    -11.234332     8A    -11.231945     9A    -11.231595
      10A    -11.231090    11A    -11.230530    12A    -11.229737
      13A    -11.228963    14A    -11.219749    15A     -1.164520
      16A     -1.144813    17A     -1.079861    18A     -1.013192
      19A     -1.010840    20A     -1.006187    21A     -0.975186
      22A     -0.875669    23A     -0.828358    24A     -0.820134
      25A     -0.813316    26A     -0.770098    27A     -0.700227
      28A     -0.687675    29A     -0.646645    30A     -0.636727
      31A     -0.624750    32A     -0.615446    33A     -0.595390
      34A     -0.590490    35A     -0.581973    36A     -0.577059
      37A     -0.546821    38A     -0.530932    39A     -0.513751
      40A     -0.506913    41A     -0.494163    42A     -0.492930
      43A     -0.475616    44A     -0.473831    45A     -0.463249
      46A     -0.339597    47A     -0.335206    48A     -0.333279
      49A     -0.314047

  @DF-RHF Final Energy:  -538.48845382984246

   => Energetics <=

    Nuclear Repulsion Energy =            807.4939491117474972
    One-Electron Energy =               -2330.2717110721237077
    Two-Electron Energy =                 984.2893081305337546
    Total Energy =                       -538.4884538298424559
  Basis Set: (AUG-CC-PVTZ AUX)
    Blend: AUG-CC-PVTZ-RI
    Molecular point group: c1

    Geometry (in Angstrom), charge = 0, multiplicity = 1:

       Center              X                  Y                   Z               Mass
    ------------   -----------------  -----------------  -----------------  -----------------
         C            0.032479213655     1.236064144546    -0.521714548448    12.000000000000
         C           -1.266935586345     0.449307144546    -0.288811548448    12.000000000000
         C            1.241317213655     0.380791144546    -0.189913548448    12.000000000000
         C            0.106442213655     2.568708144546     0.229420451552    12.000000000000
         C           -1.554215786345    -0.599071855454    -1.161967548448    12.000000000000
         C            2.350248213655     0.353296144546    -1.044099548448    12.000000000000
         C           -2.124679786345     0.719898144546     0.769747451552    12.000000000000
         C            1.295101213655    -0.345844855454     1.007890451552    12.000000000000
         C           -2.703154786345    -1.367332855454    -0.986650548448    12.000000000000
         C            3.486740213655    -0.390344855454    -0.717757548448    12.000000000000
         C           -3.278736786345    -0.049693855454     0.949814451552    12.000000000000
         C            2.429725213655    -1.086958855454     1.338155451552    12.000000000000
         C           -3.570925786345    -1.095871855454     0.075525451552    12.000000000000
         C            3.530914213655    -1.109365855454     0.477779451552    12.000000000000
         H            0.079063213655     1.462071144546    -1.597112548448     1.007825032230
         H            0.143027213655     2.408140144546     1.310841451552     1.007825032230
         H           -0.754285786345     3.204086144546    -0.002996548448     1.007825032230
         H            1.019134213655     3.100249144546    -0.055549548448     1.007825032230
         H           -0.875020786345    -0.819624855454    -1.984726548448     1.007825032230
         H            2.319536213655     0.912452144546    -1.978629548448     1.007825032230
         H           -1.923405786345     1.536400144546     1.457981451552     1.007825032230
         H            0.432285213655    -0.348668855454     1.671620451552     1.007825032230
         H           -2.921832786345    -2.179682855454    -1.676142548448     1.007825032230
         H            4.336719213655    -0.406541855454    -1.396356548448     1.007825032230
         H           -3.948166786345     0.170666144546     1.778464451552     1.007825032230
         H            2.454877213655    -1.650003855454     2.268560451552     1.007825032230
         H           -4.469161786345    -1.692444855454     0.215434451552     1.007825032230
         H            4.413008213655    -1.691402855454     0.733760451552     1.007825032230

  Basis Set: AUG-CC-PVTZ
    Blend: AUG-CC-PVTZ
  Basis Set: (AUG-CC-PVTZ AUX)
    Blend: AUG-CC-PVTZ-JKFIT
	 Reference Energy          =    -538.4884538298424559 [Eh]
	 Singles Energy            =      -0.0000000000000000 [Eh]
	 Same-Spin Energy          =      -0.6098137998652643 [Eh]
	 Opposite-Spin Energy      =      -1.9377729916245838 [Eh]
	 Correlation Energy        =      -2.5475867914898482 [Eh]
	 Total Energy              =    -541.0360406213322904 [Eh]

	 ================> DF-SCS-MP2 Energies <==================
	-----------------------------------------------------------
	 SCS Same-Spin Scale       =       0.3333333333333333 [-]
	 SCS Opposite-Spin Scale   =       1.2000000000000000 [-]
	 SCS Same-Spin Energy      =      -0.2032712666217548 [Eh]
	 SCS Opposite-Spin Energy  =      -2.3253275899495005 [Eh]
	 SCS Correlation Energy    =      -2.5285988565712554 [Eh]
	 SCS Total Energy          =    -541.0170526864137628 [Eh]
	-----------------------------------------------------------

  Dipole Moment: [D]
     X:     0.0082      Y:     0.1964      Z:    -0.0652     Total:     0.2071

*** Psi4 exiting successfully. Buy a developer a beer!
