                               Psi4 1.3.2 release

  ==> Input File <==

--------------------------------------------------------------------------
#psi4
#
memory 32 gb

molecule  {
0 1
  C        0.0063523     1.2722788    -0.4393265
  C       -1.2526080     0.4386420    -0.2954290
  C        1.2387340     0.3598870    -0.1935000
  C        0.1038590     2.5478040     0.2258340
  C       -1.5567990    -0.6199760    -1.1655540
  C        2.3476650     0.3323920    -1.0476860
  C       -2.1272630     0.6989940     0.7661610
  C        1.2925180    -0.3667490     1.0043040
  C       -2.7057380    -1.3882370    -0.9902370
  C        3.4841570    -0.4112490    -0.7213440
  C       -3.2813200    -0.0705980     0.9462280
  C        2.4271420    -1.1078630     1.3345690
  C       -3.5735090    -1.1167760     0.0719390
  C        3.5283310    -1.1302700     0.4741930
  H        0.0764800     1.4411670    -1.6006990
  H        0.1404440     2.3872360     1.3072550
  H       -0.7568690     3.1831820    -0.0065830
  H        1.0165510     3.0793450    -0.0591360
  H       -0.8776040    -0.8405290    -1.9883130
  H        2.3169530     0.8915480    -1.9822160
  H       -1.9259890     1.5154960     1.4543950
  H        0.4297020    -0.3695730     1.6680340
  H       -2.9244160    -2.2005870    -1.6797290
  H        4.3341360    -0.4274460    -1.3999430
  H       -3.9507500     0.1497620     1.7748780
  H        2.4522940    -1.6709080     2.2649740
  H       -4.4717450    -1.7133490     0.2118480
  H        4.4104250    -1.7123070     0.7301740
units angstrom
no_reorient  #important for SAPT in psi4, default
symmetry c1  #important for SAPT in psi4, default
}

set PROPERTIES_ORIGIN ["COM"]
properties('MP2/aug-cc-pvtz', properties = ['dipole'])
--------------------------------------------------------------------------

    Molecular point group: c1
  Charge       = 0
  Multiplicity = 1
  Basis Set: AUG-CC-PVTZ
    Blend: AUG-CC-PVTZ
  Basis Set: (AUG-CC-PVTZ AUX)
    Blend: AUG-CC-PVTZ-JKFIT

    Orbital Energies [Eh]
    ---------------------

    Doubly Occupied:

       1A    -11.247909     2A    -11.242694     3A    -11.241562
       4A    -11.236135     5A    -11.235584     6A    -11.235279
       7A    -11.234124     8A    -11.232831     9A    -11.232165
      10A    -11.231803    11A    -11.231677    12A    -11.230117
      13A    -11.228600    14A    -11.217351    15A     -1.164776
      16A     -1.143800    17A     -1.087140    18A     -1.012377
      19A     -1.010600    20A     -1.005536    21A     -0.986175
      22A     -0.872595    23A     -0.828323    24A     -0.819526
      25A     -0.812686    26A     -0.766649    27A     -0.700082
      28A     -0.686826    29A     -0.646175    30A     -0.637263
      31A     -0.626045    32A     -0.615033    33A     -0.599806
      34A     -0.590952    35A     -0.581853    36A     -0.578337
      37A     -0.560180    38A     -0.533466    39A     -0.509987
      40A     -0.505675    41A     -0.493976    42A     -0.492257
      43A     -0.484865    44A     -0.459898    45A     -0.454969
      46A     -0.340688    47A     -0.334764    48A     -0.333811
      49A     -0.311679

  @DF-RHF Final Energy:  -538.47507649696900

   => Energetics <=

    Nuclear Repulsion Energy =            807.6491289683184505
    One-Electron Energy =               -2330.5152094986829070
    Two-Electron Energy =                 984.3910040333953475
    Total Energy =                       -538.4750764969689953
  Basis Set: (AUG-CC-PVTZ AUX)
    Blend: AUG-CC-PVTZ-RI
    Molecular point group: c1

    Geometry (in Angstrom), charge = 0, multiplicity = 1:

       Center              X                  Y                   Z               Mass
    ------------   -----------------  -----------------  -----------------  -----------------
         C            0.009372584637     1.288744442567    -0.441205560814    12.000000000000
         C           -1.249587715363     0.455107642567    -0.297308060814    12.000000000000
         C            1.241754284637     0.376352642567    -0.195379060814    12.000000000000
         C            0.106879284637     2.564269642567     0.223954939186    12.000000000000
         C           -1.553778715363    -0.603510357433    -1.167433060814    12.000000000000
         C            2.350685284637     0.348857642567    -1.049565060814    12.000000000000
         C           -2.124242715363     0.715459642567     0.764281939186    12.000000000000
         C            1.295538284637    -0.350283357433     1.002424939186    12.000000000000
         C           -2.702717715363    -1.371771357433    -0.992116060814    12.000000000000
         C            3.487177284637    -0.394783357433    -0.723223060814    12.000000000000
         C           -3.278299715363    -0.054132357433     0.944348939186    12.000000000000
         C            2.430162284637    -1.091397357433     1.332689939186    12.000000000000
         C           -3.570488715363    -1.100310357433     0.070059939186    12.000000000000
         C            3.531351284637    -1.113804357433     0.472313939186    12.000000000000
         H            0.079500284637     1.457632642567    -1.602578060814     1.007825032230
         H            0.143464284637     2.403701642567     1.305375939186     1.007825032230
         H           -0.753848715363     3.199647642567    -0.008462060814     1.007825032230
         H            1.019571284637     3.095810642567    -0.061015060814     1.007825032230
         H           -0.874583715363    -0.824063357433    -1.990192060814     1.007825032230
         H            2.319973284637     0.908013642567    -1.984095060814     1.007825032230
         H           -1.922968715363     1.531961642567     1.452515939186     1.007825032230
         H            0.432722284637    -0.353107357433     1.666154939186     1.007825032230
         H           -2.921395715363    -2.184121357433    -1.681608060814     1.007825032230
         H            4.337156284637    -0.410980357433    -1.401822060814     1.007825032230
         H           -3.947729715363     0.166227642567     1.772998939186     1.007825032230
         H            2.455314284637    -1.654442357433     2.263094939186     1.007825032230
         H           -4.468724715363    -1.696883357433     0.209968939186     1.007825032230
         H            4.413445284637    -1.695841357433     0.728294939186     1.007825032230

  Basis Set: AUG-CC-PVTZ
    Blend: AUG-CC-PVTZ
  Basis Set: (AUG-CC-PVTZ AUX)
    Blend: AUG-CC-PVTZ-JKFIT
	 Reference Energy          =    -538.4750764969689953 [Eh]
	 Singles Energy            =      -0.0000000000000000 [Eh]
	 Same-Spin Energy          =      -0.6109217329791641 [Eh]
	 Opposite-Spin Energy      =      -1.9394792173619599 [Eh]
	 Correlation Energy        =      -2.5504009503411238 [Eh]
	 Total Energy              =    -541.0254774473100952 [Eh]

	 ================> DF-SCS-MP2 Energies <==================
	-----------------------------------------------------------
	 SCS Same-Spin Scale       =       0.3333333333333333 [-]
	 SCS Opposite-Spin Scale   =       1.2000000000000000 [-]
	 SCS Same-Spin Energy      =      -0.2036405776597214 [Eh]
	 SCS Opposite-Spin Energy  =      -2.3273750608343517 [Eh]
	 SCS Correlation Energy    =      -2.5310156384940732 [Eh]
	 SCS Total Energy          =    -541.0060921354630636 [Eh]
	-----------------------------------------------------------

  Dipole Moment: [D]
     X:     0.0938      Y:     0.2375      Z:    -0.0011     Total:     0.2553

*** Psi4 exiting successfully. Buy a developer a beer!
