                               Psi4 1.3.2 release

  ==> Input File <==

--------------------------------------------------------------------------
#psi4
#
memory 32 gb

molecule  {
0 1
  S       -0.8053760     1.6060500    -0.1399530
  O        2.1464270     1.2641370     0.3857660
  N        2.2049820    -0.9697390    -0.1110850
  C       -2.1414430    -0.6044570     0.0238790
  C        0.0898864     0.1931471    -0.2087495
  C       -0.7695060    -0.9522330     0.1212440
  C       -2.2969850     0.7606620    -0.1265510
  C        1.5543500     0.2131940     0.1149440
  C       -3.2736380    -1.5890470     0.0915590
  C        3.6575090    -0.9906510    -0.1565210
  H       -0.4188890    -1.9677560     0.2899290
  H       -3.2284760     1.3059560    -0.2284190
  H       -3.2707310    -2.1282860     1.0440440
  H       -4.2368380    -1.0812090    -0.0045560
  H       -3.2021610    -2.3307440    -0.7101950
  H        1.7010110    -1.6882330    -0.6139760
  H        4.0494680    -0.5484410    -1.0790020
  H        3.9975300    -2.0243190    -0.0750760
  H        4.0378180    -0.4153140     0.6868970
units angstrom
no_reorient  #important for SAPT in psi4, default
symmetry c1  #important for SAPT in psi4, default
}

set PROPERTIES_ORIGIN ["COM"]
properties('MP2/aug-cc-pvtz', properties = ['dipole'])
--------------------------------------------------------------------------

    Molecular point group: c1
  Charge       = 0
  Multiplicity = 1
  Basis Set: AUG-CC-PVTZ
    Blend: AUG-CC-PVTZ
  Basis Set: (AUG-CC-PVTZ AUX)
    Blend: AUG-CC-PVTZ-JKFIT

    Orbital Energies [Eh]
    ---------------------

    Doubly Occupied:

       1A    -91.995029     2A    -20.519148     3A    -15.586498
       4A    -11.360120     5A    -11.278751     6A    -11.271602
       7A    -11.267007     8A    -11.259443     9A    -11.256198
      10A    -11.239449    11A     -8.995361    12A     -6.676240
      13A     -6.675688    14A     -6.674982    15A     -1.373665
      16A     -1.228988    17A     -1.182890    18A     -1.050727
      19A     -0.999645    20A     -0.948078    21A     -0.927247
      22A     -0.825432    23A     -0.766970    24A     -0.747399
      25A     -0.697265    26A     -0.641860    27A     -0.627793
      28A     -0.622485    29A     -0.595712    30A     -0.591388
      31A     -0.565284    32A     -0.550647    33A     -0.547358
      34A     -0.536182    35A     -0.527111    36A     -0.499486
      37A     -0.477992    38A     -0.431446    39A     -0.395908
      40A     -0.344347    41A     -0.325741

  @DF-RHF Final Energy:  -797.29706070138764

   => Energetics <=

    Nuclear Repulsion Energy =            587.4414426743869626
    One-Electron Energy =               -2259.3078870921594898
    Two-Electron Energy =                 874.5693837163848912
    Total Energy =                       -797.2970607013876361
  Basis Set: (AUG-CC-PVTZ AUX)
    Blend: AUG-CC-PVTZ-RI
    Molecular point group: c1

    Geometry (in Angstrom), charge = 0, multiplicity = 1:

       Center              X                  Y                   Z               Mass
    ------------   -----------------  -----------------  -----------------  -----------------
         S           -0.810053788137     1.532565367289    -0.125518534314    31.972071174400
         O            2.141749211863     1.190652367289     0.400200465686    15.994914619570
         N            2.200304211863    -1.043223632711    -0.096650534314    14.003074004430
         C           -2.146120788137    -0.677941632711     0.038313465686    12.000000000000
         C            0.085208611863     0.119662467289    -0.194315034314    12.000000000000
         C           -0.774183788137    -1.025717632711     0.135678465686    12.000000000000
         C           -2.301662788137     0.687177367289    -0.112116534314    12.000000000000
         C            1.549672211863     0.139709367289     0.129378465686    12.000000000000
         C           -3.278315788137    -1.662531632711     0.105993465686    12.000000000000
         C            3.652831211863    -1.064135632711    -0.142086534314    12.000000000000
         H           -0.423566788137    -2.041240632711     0.304363465686     1.007825032230
         H           -3.233153788137     1.232471367289    -0.213984534314     1.007825032230
         H           -3.275408788137    -2.201770632711     1.058478465686     1.007825032230
         H           -4.241515788137    -1.154693632711     0.009878465686     1.007825032230
         H           -3.206838788137    -2.404228632711    -0.695760534314     1.007825032230
         H            1.696333211863    -1.761717632711    -0.599541534314     1.007825032230
         H            4.044790211863    -0.621925632711    -1.064567534314     1.007825032230
         H            3.992852211863    -2.097803632711    -0.060641534314     1.007825032230
         H            4.033140211863    -0.488798632711     0.701331465686     1.007825032230

  Basis Set: AUG-CC-PVTZ
    Blend: AUG-CC-PVTZ
  Basis Set: (AUG-CC-PVTZ AUX)
    Blend: AUG-CC-PVTZ-JKFIT
	 Reference Energy          =    -797.2970607013876361 [Eh]
	 Singles Energy            =      -0.0000000000000000 [Eh]
	 Same-Spin Energy          =      -0.4891300468030796 [Eh]
	 Opposite-Spin Energy      =      -1.5068023496395533 [Eh]
	 Correlation Energy        =      -1.9959323964426328 [Eh]
	 Total Energy              =    -799.2929930978302764 [Eh]

	 ================> DF-SCS-MP2 Energies <==================
	-----------------------------------------------------------
	 SCS Same-Spin Scale       =       0.3333333333333333 [-]
	 SCS Opposite-Spin Scale   =       1.2000000000000000 [-]
	 SCS Same-Spin Energy      =      -0.1630433489343598 [Eh]
	 SCS Opposite-Spin Energy  =      -1.8081628195674639 [Eh]
	 SCS Correlation Energy    =      -1.9712061685018238 [Eh]
	 SCS Total Energy          =    -799.2682668698894304 [Eh]
	-----------------------------------------------------------

  Dipole Moment: [D]
     X:    -1.6489      Y:    -3.6489      Z:    -0.9932     Total:     4.1255

*** Psi4 exiting successfully. Buy a developer a beer!
