                               Psi4 1.3.2 release

  ==> Input File <==

--------------------------------------------------------------------------
#psi4
#
memory 32 gb

molecule  {
0 1
  S       -0.8053760     1.6060500    -0.1399530
  O        2.1464270     1.2641370     0.3857660
  N        2.2049820    -0.9697390    -0.1110850
  C       -2.1414430    -0.6044570     0.0238790
  C        0.0782130     0.1386370     0.0349560
  C       -0.7695060    -0.9522330     0.1212440
  C       -2.2969850     0.7606620    -0.1265510
  C        1.5543500     0.2131940     0.1149440
  C       -3.2736380    -1.5890470     0.0915590
  C        3.6575090    -0.9906510    -0.1565210
  H       -0.4066563    -2.0006057     0.0423987
  H       -3.2284760     1.3059560    -0.2284190
  H       -3.2707310    -2.1282860     1.0440440
  H       -4.2368380    -1.0812090    -0.0045560
  H       -3.2021610    -2.3307440    -0.7101950
  H        1.7010110    -1.6882330    -0.6139760
  H        4.0494680    -0.5484410    -1.0790020
  H        3.9975300    -2.0243190    -0.0750760
  H        4.0378180    -0.4153140     0.6868970
units angstrom
no_reorient  #important for SAPT in psi4, default
symmetry c1  #important for SAPT in psi4, default
}

set PROPERTIES_ORIGIN ["COM"]
properties('MP2/aug-cc-pvtz', properties = ['dipole'])
--------------------------------------------------------------------------

    Molecular point group: c1
  Charge       = 0
  Multiplicity = 1
  Basis Set: AUG-CC-PVTZ
    Blend: AUG-CC-PVTZ
  Basis Set: (AUG-CC-PVTZ AUX)
    Blend: AUG-CC-PVTZ-JKFIT

    Orbital Energies [Eh]
    ---------------------

    Doubly Occupied:

       1A    -91.990732     2A    -20.522422     3A    -15.589366
       4A    -11.361284     5A    -11.275524     6A    -11.269353
       7A    -11.260739     8A    -11.260016     9A    -11.254411
      10A    -11.238324    11A     -8.990481    12A     -6.671345
      13A     -6.670796    14A     -6.670088    15A     -1.376726
      16A     -1.231948    17A     -1.183773    18A     -1.046873
      19A     -1.006905    20A     -0.953750    21A     -0.922966
      22A     -0.828931    23A     -0.768931    24A     -0.748192
      25A     -0.706991    26A     -0.643778    27A     -0.628937
      28A     -0.620895    29A     -0.594082    30A     -0.590123
      31A     -0.566744    32A     -0.552025    33A     -0.550383
      34A     -0.535005    35A     -0.521506    36A     -0.500905
      37A     -0.478158    38A     -0.435196    39A     -0.399205
      40A     -0.347977    41A     -0.328116

  @DF-RHF Final Energy:  -797.31600269928322

   => Energetics <=

    Nuclear Repulsion Energy =            587.8449583884699905
    One-Electron Energy =               -2260.1341124621180825
    Two-Electron Energy =                 874.9731513743649884
    Total Energy =                       -797.3160026992832172
  Basis Set: (AUG-CC-PVTZ AUX)
    Blend: AUG-CC-PVTZ-RI
    Molecular point group: c1

    Geometry (in Angstrom), charge = 0, multiplicity = 1:

       Center              X                  Y                   Z               Mass
    ------------   -----------------  -----------------  -----------------  -----------------
         S           -0.809229794464     1.536997938237    -0.142772084352    31.972071174400
         O            2.142573205536     1.195084938237     0.382946915648    15.994914619570
         N            2.201128205536    -1.038791061763    -0.113904084352    14.003074004430
         C           -2.145296794464    -0.673509061763     0.021059915648    12.000000000000
         C            0.074359205536     0.069584938237     0.032136915648    12.000000000000
         C           -0.773359794464    -1.021285061763     0.118424915648    12.000000000000
         C           -2.300838794464     0.691609938237    -0.129370084352    12.000000000000
         C            1.550496205536     0.144141938237     0.112124915648    12.000000000000
         C           -3.277491794464    -1.658099061763     0.088739915648    12.000000000000
         C            3.653655205536    -1.059703061763    -0.159340084352    12.000000000000
         H           -0.410510094464    -2.069657761763     0.039579615648     1.007825032230
         H           -3.232329794464     1.236903938237    -0.231238084352     1.007825032230
         H           -3.274584794464    -2.197338061763     1.041224915648     1.007825032230
         H           -4.240691794464    -1.150261061763    -0.007375084352     1.007825032230
         H           -3.206014794464    -2.399796061763    -0.713014084352     1.007825032230
         H            1.697157205536    -1.757285061763    -0.616795084352     1.007825032230
         H            4.045614205536    -0.617493061763    -1.081821084352     1.007825032230
         H            3.993676205536    -2.093371061763    -0.077895084352     1.007825032230
         H            4.033964205536    -0.484366061763     0.684077915648     1.007825032230

  Basis Set: AUG-CC-PVTZ
    Blend: AUG-CC-PVTZ
  Basis Set: (AUG-CC-PVTZ AUX)
    Blend: AUG-CC-PVTZ-JKFIT
	 Reference Energy          =    -797.3160026992832172 [Eh]
	 Singles Energy            =      -0.0000000000000000 [Eh]
	 Same-Spin Energy          =      -0.4872016085735159 [Eh]
	 Opposite-Spin Energy      =      -1.5042862849462022 [Eh]
	 Correlation Energy        =      -1.9914878935197180 [Eh]
	 Total Energy              =    -799.3074905928028784 [Eh]

	 ================> DF-SCS-MP2 Energies <==================
	-----------------------------------------------------------
	 SCS Same-Spin Scale       =       0.3333333333333333 [-]
	 SCS Opposite-Spin Scale   =       1.2000000000000000 [-]
	 SCS Same-Spin Energy      =      -0.1624005361911720 [Eh]
	 SCS Opposite-Spin Energy  =      -1.8051435419354425 [Eh]
	 SCS Correlation Energy    =      -1.9675440781266145 [Eh]
	 SCS Total Energy          =    -799.2835467774098106 [Eh]
	-----------------------------------------------------------

  Dipole Moment: [D]
     X:    -1.4950      Y:    -3.7230      Z:    -1.3247     Total:     4.2250

*** Psi4 exiting successfully. Buy a developer a beer!
