                               Psi4 1.3.2 release

  ==> Input File <==

--------------------------------------------------------------------------
#psi4
#
memory 32 gb

molecule  {
0 1
  S       -0.8053760     1.6060500    -0.1399530
  O        2.1464270     1.2641370     0.3857660
  N        2.2049820    -0.9697390    -0.1110850
  C       -2.1414430    -0.6044570     0.0238790
  C        0.0782130     0.1386370     0.0349560
  C       -0.7695060    -0.9522330     0.1212440
  C       -2.2969850     0.7606620    -0.1265510
  C        1.5543500     0.2131940     0.1149440
  C       -3.2736380    -1.5890470     0.0915590
  C        3.6575090    -0.9906510    -0.1565210
  H       -0.4139959    -1.9808959     0.1909169
  H       -3.2284760     1.3059560    -0.2284190
  H       -3.2707310    -2.1282860     1.0440440
  H       -4.2368380    -1.0812090    -0.0045560
  H       -3.2021610    -2.3307440    -0.7101950
  H        1.7010110    -1.6882330    -0.6139760
  H        4.0494680    -0.5484410    -1.0790020
  H        3.9975300    -2.0243190    -0.0750760
  H        4.0378180    -0.4153140     0.6868970
units angstrom
no_reorient  #important for SAPT in psi4, default
symmetry c1  #important for SAPT in psi4, default
}

set PROPERTIES_ORIGIN ["COM"]
properties('MP2/aug-cc-pvtz', properties = ['dipole'])
--------------------------------------------------------------------------

    Molecular point group: c1
  Charge       = 0
  Multiplicity = 1
  Basis Set: AUG-CC-PVTZ
    Blend: AUG-CC-PVTZ
  Basis Set: (AUG-CC-PVTZ AUX)
    Blend: AUG-CC-PVTZ-JKFIT

    Orbital Energies [Eh]
    ---------------------

    Doubly Occupied:

       1A    -91.990401     2A    -20.522057     3A    -15.589392
       4A    -11.361008     5A    -11.274982     6A    -11.269196
       7A    -11.260700     8A    -11.257816     9A    -11.254071
      10A    -11.238318    11A     -8.990152    12A     -6.671019
      13A     -6.670469    14A     -6.669759    15A     -1.376465
      16A     -1.231848    17A     -1.183587    18A     -1.046695
      19A     -1.007282    20A     -0.954052    21A     -0.922845
      22A     -0.828900    23A     -0.768796    24A     -0.749842
      25A     -0.708657    26A     -0.643966    27A     -0.628941
      28A     -0.620742    29A     -0.593850    30A     -0.591084
      31A     -0.567586    32A     -0.551807    33A     -0.549758
      34A     -0.534882    35A     -0.522868    36A     -0.500938
      37A     -0.478285    38A     -0.434850    39A     -0.399014
      40A     -0.348166    41A     -0.327927

  @DF-RHF Final Energy:  -797.31907856213081

   => Energetics <=

    Nuclear Repulsion Energy =            587.9253239087221345
    One-Electron Energy =               -2260.3028661943417319
    Two-Electron Energy =                 875.0584637234888987
    Total Energy =                       -797.3190785621308123
  Basis Set: (AUG-CC-PVTZ AUX)
    Blend: AUG-CC-PVTZ-RI
    Molecular point group: c1

    Geometry (in Angstrom), charge = 0, multiplicity = 1:

       Center              X                  Y                   Z               Mass
    ------------   -----------------  -----------------  -----------------  -----------------
         S           -0.809182084135     1.536869816671    -0.143737511928    31.972071174400
         O            2.142620915865     1.194956816671     0.381981488072    15.994914619570
         N            2.201175915865    -1.038919183329    -0.114869511928    14.003074004430
         C           -2.145249084135    -0.673637183329     0.020094488072    12.000000000000
         C            0.074406915865     0.069456816671     0.031171488072    12.000000000000
         C           -0.773312084135    -1.021413183329     0.117459488072    12.000000000000
         C           -2.300791084135     0.691481816671    -0.130335511928    12.000000000000
         C            1.550543915865     0.144013816671     0.111159488072    12.000000000000
         C           -3.277444084135    -1.658227183329     0.087774488072    12.000000000000
         C            3.653702915865    -1.059831183329    -0.160305511928    12.000000000000
         H           -0.417801984135    -2.050076083329     0.187132388072     1.007825032230
         H           -3.232282084135     1.236775816671    -0.232203511928     1.007825032230
         H           -3.274537084135    -2.197466183329     1.040259488072     1.007825032230
         H           -4.240644084135    -1.150389183329    -0.008340511928     1.007825032230
         H           -3.205967084135    -2.399924183329    -0.713979511928     1.007825032230
         H            1.697204915865    -1.757413183329    -0.617760511928     1.007825032230
         H            4.045661915865    -0.617621183329    -1.082786511928     1.007825032230
         H            3.993723915865    -2.093499183329    -0.078860511928     1.007825032230
         H            4.034011915865    -0.484494183329     0.683112488072     1.007825032230

  Basis Set: AUG-CC-PVTZ
    Blend: AUG-CC-PVTZ
  Basis Set: (AUG-CC-PVTZ AUX)
    Blend: AUG-CC-PVTZ-JKFIT
	 Reference Energy          =    -797.3190785621308123 [Eh]
	 Singles Energy            =      -0.0000000000000000 [Eh]
	 Same-Spin Energy          =      -0.4870242328095203 [Eh]
	 Opposite-Spin Energy      =      -1.5038694523530669 [Eh]
	 Correlation Energy        =      -1.9908936851625871 [Eh]
	 Total Energy              =    -799.3099722472934445 [Eh]

	 ================> DF-SCS-MP2 Energies <==================
	-----------------------------------------------------------
	 SCS Same-Spin Scale       =       0.3333333333333333 [-]
	 SCS Opposite-Spin Scale   =       1.2000000000000000 [-]
	 SCS Same-Spin Energy      =      -0.1623414109365068 [Eh]
	 SCS Opposite-Spin Energy  =      -1.8046433428236801 [Eh]
	 SCS Correlation Energy    =      -1.9669847537601868 [Eh]
	 SCS Total Energy          =    -799.2860633158909422 [Eh]
	-----------------------------------------------------------

  Dipole Moment: [D]
     X:    -1.4891      Y:    -3.7490      Z:    -1.2169     Total:     4.2135

*** Psi4 exiting successfully. Buy a developer a beer!
