                               Psi4 1.3.2 release

  ==> Input File <==

--------------------------------------------------------------------------
#psi4
#
memory 32 gb

molecule  {
0 1
  S       -0.8053760     1.6060500    -0.1399530
  O        2.1464270     1.2641370     0.3857660
  N        2.2049820    -0.9697390    -0.1110850
  C       -2.1414430    -0.6044570     0.0238790
  C        0.0782130     0.1386370     0.0349560
  C       -0.7695060    -0.9522330     0.1212440
  C       -2.2969850     0.7606620    -0.1265510
  C        1.5543500     0.2131940     0.1149440
  C       -3.2736380    -1.5890470     0.0915590
  C        3.6575090    -0.9906510    -0.1565210
  H       -0.4115494    -1.9874658     0.1414108
  H       -3.2284760     1.3059560    -0.2284190
  H       -3.2707310    -2.1282860     1.0440440
  H       -4.2368380    -1.0812090    -0.0045560
  H       -3.2021610    -2.3307440    -0.7101950
  H        1.7010110    -1.6882330    -0.6139760
  H        4.0494680    -0.5484410    -1.0790020
  H        3.9975300    -2.0243190    -0.0750760
  H        4.0378180    -0.4153140     0.6868970
units angstrom
no_reorient  #important for SAPT in psi4, default
symmetry c1  #important for SAPT in psi4, default
}

set PROPERTIES_ORIGIN ["COM"]
properties('MP2/aug-cc-pvtz', properties = ['dipole'])
--------------------------------------------------------------------------

    Molecular point group: c1
  Charge       = 0
  Multiplicity = 1
  Basis Set: AUG-CC-PVTZ
    Blend: AUG-CC-PVTZ
  Basis Set: (AUG-CC-PVTZ AUX)
    Blend: AUG-CC-PVTZ-JKFIT

    Orbital Energies [Eh]
    ---------------------

    Doubly Occupied:

       1A    -91.990465     2A    -20.522163     3A    -15.589386
       4A    -11.361086     5A    -11.275093     6A    -11.269238
       7A    -11.260716     8A    -11.258368     9A    -11.254155
      10A    -11.238322    11A     -8.990216    12A     -6.671083
      13A     -6.670533    14A     -6.669823    15A     -1.376538
      16A     -1.231884    17A     -1.183630    18A     -1.046737
      19A     -1.007199    20A     -0.953982    21A     -0.922877
      22A     -0.828924    23A     -0.768837    24A     -0.749452
      25A     -0.708315    26A     -0.643905    27A     -0.628935
      28A     -0.620812    29A     -0.593878    30A     -0.590904
      31A     -0.567383    32A     -0.551874    33A     -0.549978
      34A     -0.534954    35A     -0.522444    36A     -0.500965
      37A     -0.478257    38A     -0.434949    39A     -0.399083
      40A     -0.348109    41A     -0.327969

  @DF-RHF Final Energy:  -797.31840548628156

   => Energetics <=

    Nuclear Repulsion Energy =            587.9077907712701290
    One-Electron Energy =               -2260.2655566241519409
    Two-Electron Energy =                 875.0393603666002491
    Total Energy =                       -797.3184054862815628
  Basis Set: (AUG-CC-PVTZ AUX)
    Blend: AUG-CC-PVTZ-RI
    Molecular point group: c1

    Geometry (in Angstrom), charge = 0, multiplicity = 1:

       Center              X                  Y                   Z               Mass
    ------------   -----------------  -----------------  -----------------  -----------------
         S           -0.809197987361     1.536912523643    -0.143415702519    31.972071174400
         O            2.142605012639     1.194999523643     0.382303297481    15.994914619570
         N            2.201160012639    -1.038876476357    -0.114547702519    14.003074004430
         C           -2.145264987361    -0.673594476357     0.020416297481    12.000000000000
         C            0.074391012639     0.069499523643     0.031493297481    12.000000000000
         C           -0.773327987361    -1.021370476357     0.117781297481    12.000000000000
         C           -2.300806987361     0.691524523643    -0.130013702519    12.000000000000
         C            1.550528012639     0.144056523643     0.111481297481    12.000000000000
         C           -3.277459987361    -1.658184476357     0.088096297481    12.000000000000
         C            3.653687012639    -1.059788476357    -0.159983702519    12.000000000000
         H           -0.415371387361    -2.056603276357     0.137948097481     1.007825032230
         H           -3.232297987361     1.236818523643    -0.231881702519     1.007825032230
         H           -3.274552987361    -2.197423476357     1.040581297481     1.007825032230
         H           -4.240659987361    -1.150346476357    -0.008018702519     1.007825032230
         H           -3.205982987361    -2.399881476357    -0.713657702519     1.007825032230
         H            1.697189012639    -1.757370476357    -0.617438702519     1.007825032230
         H            4.045646012639    -0.617578476357    -1.082464702519     1.007825032230
         H            3.993708012639    -2.093456476357    -0.078538702519     1.007825032230
         H            4.033996012639    -0.484451476357     0.683434297481     1.007825032230

  Basis Set: AUG-CC-PVTZ
    Blend: AUG-CC-PVTZ
  Basis Set: (AUG-CC-PVTZ AUX)
    Blend: AUG-CC-PVTZ-JKFIT
	 Reference Energy          =    -797.3184054862815628 [Eh]
	 Singles Energy            =      -0.0000000000000000 [Eh]
	 Same-Spin Energy          =      -0.4870618253537048 [Eh]
	 Opposite-Spin Energy      =      -1.5039663712939606 [Eh]
	 Correlation Energy        =      -1.9910281966476655 [Eh]
	 Total Energy              =    -799.3094336829292388 [Eh]

	 ================> DF-SCS-MP2 Energies <==================
	-----------------------------------------------------------
	 SCS Same-Spin Scale       =       0.3333333333333333 [-]
	 SCS Opposite-Spin Scale   =       1.2000000000000000 [-]
	 SCS Same-Spin Energy      =      -0.1623539417845683 [Eh]
	 SCS Opposite-Spin Energy  =      -1.8047596455527526 [Eh]
	 SCS Correlation Energy    =      -1.9671135873373209 [Eh]
	 SCS Total Energy          =    -799.2855190736188433 [Eh]
	-----------------------------------------------------------

  Dipole Moment: [D]
     X:    -1.4897      Y:    -3.7442      Z:    -1.2530     Total:     4.2200

*** Psi4 exiting successfully. Buy a developer a beer!
