                               Psi4 1.3.2 release

  ==> Input File <==

--------------------------------------------------------------------------
#psi4
#
memory 32 gb

molecule  {
0 1
  S       -0.8053760     1.6060500    -0.1399530
  O        2.1464270     1.2641370     0.3857660
  N        2.2049820    -0.9697390    -0.1110850
  C       -2.1414430    -0.6044570     0.0238790
  C        0.0875518     0.1822451    -0.1600084
  C       -0.7695060    -0.9522330     0.1212440
  C       -2.2969850     0.7606620    -0.1265510
  C        1.5543500     0.2131940     0.1149440
  C       -3.2736380    -1.5890470     0.0915590
  C        3.6575090    -0.9906510    -0.1565210
  H       -0.4188890    -1.9677560     0.2899290
  H       -3.2284760     1.3059560    -0.2284190
  H       -3.2707310    -2.1282860     1.0440440
  H       -4.2368380    -1.0812090    -0.0045560
  H       -3.2021610    -2.3307440    -0.7101950
  H        1.7010110    -1.6882330    -0.6139760
  H        4.0494680    -0.5484410    -1.0790020
  H        3.9975300    -2.0243190    -0.0750760
  H        4.0378180    -0.4153140     0.6868970
units angstrom
no_reorient  #important for SAPT in psi4, default
symmetry c1  #important for SAPT in psi4, default
}

set PROPERTIES_ORIGIN ["COM"]
properties('MP2/aug-cc-pvtz', properties = ['dipole'])
--------------------------------------------------------------------------

    Molecular point group: c1
  Charge       = 0
  Multiplicity = 1
  Basis Set: AUG-CC-PVTZ
    Blend: AUG-CC-PVTZ
  Basis Set: (AUG-CC-PVTZ AUX)
    Blend: AUG-CC-PVTZ-JKFIT

    Orbital Energies [Eh]
    ---------------------

    Doubly Occupied:

       1A    -91.994166     2A    -20.519710     3A    -15.587163
       4A    -11.360148     5A    -11.277688     6A    -11.270649
       7A    -11.264559     8A    -11.259737     9A    -11.255613
      10A    -11.239109    11A     -8.994418    12A     -6.675298
      13A     -6.674755    14A     -6.674040    15A     -1.374339
      16A     -1.229666    17A     -1.183243    18A     -1.049995
      19A     -1.001592    20A     -0.949383    21A     -0.926477
      22A     -0.826617    23A     -0.767423    24A     -0.747816
      25A     -0.700297    26A     -0.642343    27A     -0.627601
      28A     -0.622506    29A     -0.595230    30A     -0.591199
      31A     -0.565807    32A     -0.550968    33A     -0.548050
      34A     -0.535400    35A     -0.527335    36A     -0.500246
      37A     -0.478551    38A     -0.432567    39A     -0.396601
      40A     -0.344405    41A     -0.326789

  @DF-RHF Final Energy:  -797.30458884220752

   => Energetics <=

    Nuclear Repulsion Energy =            587.6716783030236684
    One-Electron Energy =               -2259.7735428211590261
    Two-Electron Energy =                 874.7972756759277217
    Total Energy =                       -797.3045888422075222
  Basis Set: (AUG-CC-PVTZ AUX)
    Blend: AUG-CC-PVTZ-RI
    Molecular point group: c1

    Geometry (in Angstrom), charge = 0, multiplicity = 1:

       Center              X                  Y                   Z               Mass
    ------------   -----------------  -----------------  -----------------  -----------------
         S           -0.809873092108     1.533409172699    -0.129291053470    31.972071174400
         O            2.141929907892     1.191496172699     0.396427946530    15.994914619570
         N            2.200484907892    -1.042379827301    -0.100423053470    14.003074004430
         C           -2.145940092108    -0.677097827301     0.034540946530    12.000000000000
         C            0.083054707892     0.109604272699    -0.149346453470    12.000000000000
         C           -0.774003092108    -1.024873827301     0.131905946530    12.000000000000
         C           -2.301482092108     0.688021172699    -0.115889053470    12.000000000000
         C            1.549852907892     0.140553172699     0.125605946530    12.000000000000
         C           -3.278135092108    -1.661687827301     0.102220946530    12.000000000000
         C            3.653011907892    -1.063291827301    -0.145859053470    12.000000000000
         H           -0.423386092108    -2.040396827301     0.300590946530     1.007825032230
         H           -3.232973092108     1.233315172699    -0.217757053470     1.007825032230
         H           -3.275228092108    -2.200926827301     1.054705946530     1.007825032230
         H           -4.241335092108    -1.153849827301     0.006105946530     1.007825032230
         H           -3.206658092108    -2.403384827301    -0.699533053470     1.007825032230
         H            1.696513907892    -1.760873827301    -0.603314053470     1.007825032230
         H            4.044970907892    -0.621081827301    -1.068340053470     1.007825032230
         H            3.993032907892    -2.096959827301    -0.064414053470     1.007825032230
         H            4.033320907892    -0.487954827301     0.697558946530     1.007825032230

  Basis Set: AUG-CC-PVTZ
    Blend: AUG-CC-PVTZ
  Basis Set: (AUG-CC-PVTZ AUX)
    Blend: AUG-CC-PVTZ-JKFIT
	 Reference Energy          =    -797.3045888422075222 [Eh]
	 Singles Energy            =      -0.0000000000000000 [Eh]
	 Same-Spin Energy          =      -0.4885986584991724 [Eh]
	 Opposite-Spin Energy      =      -1.5058492058011950 [Eh]
	 Correlation Energy        =      -1.9944478643003674 [Eh]
	 Total Energy              =    -799.2990367065078772 [Eh]

	 ================> DF-SCS-MP2 Energies <==================
	-----------------------------------------------------------
	 SCS Same-Spin Scale       =       0.3333333333333333 [-]
	 SCS Opposite-Spin Scale   =       1.2000000000000000 [-]
	 SCS Same-Spin Energy      =      -0.1628662194997241 [Eh]
	 SCS Opposite-Spin Energy  =      -1.8070190469614338 [Eh]
	 SCS Correlation Energy    =      -1.9698852664611579 [Eh]
	 SCS Total Energy          =    -799.2744741086686417 [Eh]
	-----------------------------------------------------------

  Dipole Moment: [D]
     X:    -1.6135      Y:    -3.6626      Z:    -1.0257     Total:     4.1316

*** Psi4 exiting successfully. Buy a developer a beer!
