                               Psi4 1.3.2 release

  ==> Input File <==

--------------------------------------------------------------------------
#psi4
#
memory 32 gb

molecule  {
0 1
  S       -0.8053760     1.6060500    -0.1399530
  O        2.1464270     1.2641370     0.3857660
  N        2.2049820    -0.9697390    -0.1110850
  C       -2.1414430    -0.6044570     0.0238790
  C        0.0782130     0.1386370     0.0349560
  C       -0.7695060    -0.9522330     0.1212440
  C       -2.2969850     0.7606620    -0.1265510
  C        1.5471721     0.2283125     0.2640074
  C       -3.2736380    -1.5890470     0.0915590
  C        3.6575090    -0.9906510    -0.1565210
  H       -0.4188890    -1.9677560     0.2899290
  H       -3.2284760     1.3059560    -0.2284190
  H       -3.2707310    -2.1282860     1.0440440
  H       -4.2368380    -1.0812090    -0.0045560
  H       -3.2021610    -2.3307440    -0.7101950
  H        1.7010110    -1.6882330    -0.6139760
  H        4.0494680    -0.5484410    -1.0790020
  H        3.9975300    -2.0243190    -0.0750760
  H        4.0378180    -0.4153140     0.6868970
units angstrom
no_reorient  #important for SAPT in psi4, default
symmetry c1  #important for SAPT in psi4, default
}

set PROPERTIES_ORIGIN ["COM"]
properties('MP2/aug-cc-pvtz', properties = ['dipole'])
--------------------------------------------------------------------------

    Molecular point group: c1
  Charge       = 0
  Multiplicity = 1
  Basis Set: AUG-CC-PVTZ
    Blend: AUG-CC-PVTZ
  Basis Set: (AUG-CC-PVTZ AUX)
    Blend: AUG-CC-PVTZ-JKFIT

    Orbital Energies [Eh]
    ---------------------

    Doubly Occupied:

       1A    -91.990948     2A    -20.532471     3A    -15.579058
       4A    -11.364766     5A    -11.275672     6A    -11.269961
       7A    -11.257585     8A    -11.255160     9A    -11.254529
      10A    -11.238580    11A     -8.990766    12A     -6.671646
      13A     -6.671090    14A     -6.670377    15A     -1.399551
      16A     -1.216557    17A     -1.183286    18A     -1.046517
      19A     -1.005953    20A     -0.947439    21A     -0.919507
      22A     -0.827565    23A     -0.760355    24A     -0.750315
      25A     -0.708857    26A     -0.643706    27A     -0.628911
      28A     -0.618381    29A     -0.596172    30A     -0.591295
      31A     -0.571623    32A     -0.553967    33A     -0.548249
      34A     -0.535556    35A     -0.522280    36A     -0.504818
      37A     -0.479536    38A     -0.438413    39A     -0.392051
      40A     -0.348311    41A     -0.328514

  @DF-RHF Final Energy:  -797.30931255098949

   => Energetics <=

    Nuclear Repulsion Energy =            587.6281936942754101
    One-Electron Energy =               -2259.6944216757760842
    Two-Electron Energy =                 874.7569154305110715
    Total Energy =                       -797.3093125509894890
  Basis Set: (AUG-CC-PVTZ AUX)
    Blend: AUG-CC-PVTZ-RI
    Molecular point group: c1

    Geometry (in Angstrom), charge = 0, multiplicity = 1:

       Center              X                  Y                   Z               Mass
    ------------   -----------------  -----------------  -----------------  -----------------
         S           -0.808594713755     1.535614243199    -0.155918508858    31.972071174400
         O            2.143208286245     1.193701243199     0.369800491142    15.994914619570
         N            2.201763286245    -1.040174756801    -0.127050508858    14.003074004430
         C           -2.144661713755    -0.674892756801     0.007913491142    12.000000000000
         C            0.074994286245     0.068201243199     0.018990491142    12.000000000000
         C           -0.772724713755    -1.022668756801     0.105278491142    12.000000000000
         C           -2.300203713755     0.690226243199    -0.142516508858    12.000000000000
         C            1.543953386245     0.157876743199     0.248041891142    12.000000000000
         C           -3.276856713755    -1.659482756801     0.075593491142    12.000000000000
         C            3.654290286245    -1.061086756801    -0.172486508858    12.000000000000
         H           -0.422107713755    -2.038191756801     0.273963491142     1.007825032230
         H           -3.231694713755     1.235520243199    -0.244384508858     1.007825032230
         H           -3.273949713755    -2.198721756801     1.028078491142     1.007825032230
         H           -4.240056713755    -1.151644756801    -0.020521508858     1.007825032230
         H           -3.205379713755    -2.401179756801    -0.726160508858     1.007825032230
         H            1.697792286245    -1.758668756801    -0.629941508858     1.007825032230
         H            4.046249286245    -0.618876756801    -1.094967508858     1.007825032230
         H            3.994311286245    -2.094754756801    -0.091041508858     1.007825032230
         H            4.034599286245    -0.485749756801     0.670931491142     1.007825032230

  Basis Set: AUG-CC-PVTZ
    Blend: AUG-CC-PVTZ
  Basis Set: (AUG-CC-PVTZ AUX)
    Blend: AUG-CC-PVTZ-JKFIT
	 Reference Energy          =    -797.3093125509894890 [Eh]
	 Singles Energy            =      -0.0000000000000000 [Eh]
	 Same-Spin Energy          =      -0.4868103470727654 [Eh]
	 Opposite-Spin Energy      =      -1.5037828763211241 [Eh]
	 Correlation Energy        =      -1.9905932233938894 [Eh]
	 Total Energy              =    -799.2999057743834328 [Eh]

	 ================> DF-SCS-MP2 Energies <==================
	-----------------------------------------------------------
	 SCS Same-Spin Scale       =       0.3333333333333333 [-]
	 SCS Opposite-Spin Scale   =       1.2000000000000000 [-]
	 SCS Same-Spin Energy      =      -0.1622701156909218 [Eh]
	 SCS Opposite-Spin Energy  =      -1.8045394515853488 [Eh]
	 SCS Correlation Energy    =      -1.9668095672762707 [Eh]
	 SCS Total Energy          =    -799.2761221182657891 [Eh]
	-----------------------------------------------------------

  Dipole Moment: [D]
     X:    -1.6503      Y:    -3.4047      Z:    -0.9088     Total:     3.8912

*** Psi4 exiting successfully. Buy a developer a beer!
