                               Psi4 1.3.2 release

  ==> Input File <==

--------------------------------------------------------------------------
#psi4
#
memory 32 gb

molecule  {
0 1
  S       -0.8053760     1.6060500    -0.1399530
  O        2.1464270     1.2641370     0.3857660
  N        2.2049820    -0.9697390    -0.1110850
  C       -2.1414430    -0.6044570     0.0238790
  C        0.0782130     0.1386370     0.0349560
  C       -0.7695060    -0.9522330     0.1212440
  C       -2.2969850     0.7606620    -0.1265510
  C        1.5423868     0.2383915     0.3633831
  C       -3.2736380    -1.5890470     0.0915590
  C        3.6575090    -0.9906510    -0.1565210
  H       -0.4188890    -1.9677560     0.2899290
  H       -3.2284760     1.3059560    -0.2284190
  H       -3.2707310    -2.1282860     1.0440440
  H       -4.2368380    -1.0812090    -0.0045560
  H       -3.2021610    -2.3307440    -0.7101950
  H        1.7010110    -1.6882330    -0.6139760
  H        4.0494680    -0.5484410    -1.0790020
  H        3.9975300    -2.0243190    -0.0750760
  H        4.0378180    -0.4153140     0.6868970
units angstrom
no_reorient  #important for SAPT in psi4, default
symmetry c1  #important for SAPT in psi4, default
}

set PROPERTIES_ORIGIN ["COM"]
properties('MP2/aug-cc-pvtz', properties = ['dipole'])
--------------------------------------------------------------------------

    Molecular point group: c1
  Charge       = 0
  Multiplicity = 1
  Basis Set: AUG-CC-PVTZ
    Blend: AUG-CC-PVTZ
  Basis Set: (AUG-CC-PVTZ AUX)
    Blend: AUG-CC-PVTZ-JKFIT

    Orbital Energies [Eh]
    ---------------------

    Doubly Occupied:

       1A    -91.991158     2A    -20.541361     3A    -15.572420
       4A    -11.370408     5A    -11.277640     6A    -11.270424
       7A    -11.257545     8A    -11.254886     9A    -11.251340
      10A    -11.238731    11A     -8.991043    12A     -6.671933
      13A     -6.671367    14A     -6.670654    15A     -1.411768
      16A     -1.204756    17A     -1.182220    18A     -1.046009
      19A     -1.004758    20A     -0.943193    21A     -0.915890
      22A     -0.825908    23A     -0.754473    24A     -0.749646
      25A     -0.708350    26A     -0.648291    27A     -0.623838
      28A     -0.615811    29A     -0.597027    30A     -0.591288
      31A     -0.573072    32A     -0.556265    33A     -0.545592
      34A     -0.535869    35A     -0.521659    36A     -0.506491
      37A     -0.480186    38A     -0.437786    39A     -0.385695
      40A     -0.348186    41A     -0.328050

  @DF-RHF Final Energy:  -797.28894764696884

   => Energetics <=

    Nuclear Repulsion Energy =            587.0594401020864552
    One-Electron Energy =               -2258.5508034367735490
    Two-Electron Energy =                 874.2024156877182577
    Total Energy =                       -797.2889476469688361
  Basis Set: (AUG-CC-PVTZ AUX)
    Blend: AUG-CC-PVTZ-RI
    Molecular point group: c1

    Geometry (in Angstrom), charge = 0, multiplicity = 1:

       Center              X                  Y                   Z               Mass
    ------------   -----------------  -----------------  -----------------  -----------------
         S           -0.808224335657     1.534834137280    -0.163610102439    31.972071174400
         O            2.143578664343     1.192921137280     0.362108897561    15.994914619570
         N            2.202133664343    -1.040954862720    -0.134742102439    14.003074004430
         C           -2.144291335657    -0.675672862720     0.000221897561    12.000000000000
         C            0.075364664343     0.067421137280     0.011298897561    12.000000000000
         C           -0.772354335657    -1.023448862720     0.097586897561    12.000000000000
         C           -2.299833335657     0.689446137280    -0.150208102439    12.000000000000
         C            1.539538464343     0.167175637280     0.339725997561    12.000000000000
         C           -3.276486335657    -1.660262862720     0.067901897561    12.000000000000
         C            3.654660664343    -1.061866862720    -0.180178102439    12.000000000000
         H           -0.421737335657    -2.038971862720     0.266271897561     1.007825032230
         H           -3.231324335657     1.234740137280    -0.252076102439     1.007825032230
         H           -3.273579335657    -2.199501862720     1.020386897561     1.007825032230
         H           -4.239686335657    -1.152424862720    -0.028213102439     1.007825032230
         H           -3.205009335657    -2.401959862720    -0.733852102439     1.007825032230
         H            1.698162664343    -1.759448862720    -0.637633102439     1.007825032230
         H            4.046619664343    -0.619656862720    -1.102659102439     1.007825032230
         H            3.994681664343    -2.095534862720    -0.098733102439     1.007825032230
         H            4.034969664343    -0.486529862720     0.663239897561     1.007825032230

  Basis Set: AUG-CC-PVTZ
    Blend: AUG-CC-PVTZ
  Basis Set: (AUG-CC-PVTZ AUX)
    Blend: AUG-CC-PVTZ-JKFIT
	 Reference Energy          =    -797.2889476469688361 [Eh]
	 Singles Energy            =      -0.0000000000000000 [Eh]
	 Same-Spin Energy          =      -0.4874132263270747 [Eh]
	 Opposite-Spin Energy      =      -1.5056803008412025 [Eh]
	 Correlation Energy        =      -1.9930935271682773 [Eh]
	 Total Energy              =    -799.2820411741371345 [Eh]

	 ================> DF-SCS-MP2 Energies <==================
	-----------------------------------------------------------
	 SCS Same-Spin Scale       =       0.3333333333333333 [-]
	 SCS Opposite-Spin Scale   =       1.2000000000000000 [-]
	 SCS Same-Spin Energy      =      -0.1624710754423582 [Eh]
	 SCS Opposite-Spin Energy  =      -1.8068163610094430 [Eh]
	 SCS Correlation Energy    =      -1.9692874364518012 [Eh]
	 SCS Total Energy          =    -799.2582350834206864 [Eh]
	-----------------------------------------------------------

  Dipole Moment: [D]
     X:    -1.7425      Y:    -3.1606      Z:    -0.7352     Total:     3.6832

*** Psi4 exiting successfully. Buy a developer a beer!
