                               Psi4 1.3.2 release

  ==> Input File <==

--------------------------------------------------------------------------
#psi4
#
memory 32 gb

molecule  {
0 1
  S       -0.8053760     1.6060500    -0.1399530
  O        2.1464270     1.2641370     0.3857660
  N        2.2049820    -0.9697390    -0.1110850
  C       -2.1414430    -0.6044570     0.0238790
  C        0.0782130     0.1386370     0.0349560
  C       -0.7695060    -0.9522330     0.1212440
  C       -2.2969850     0.7606620    -0.1265510
  C        1.5519574     0.2182335     0.1646318
  C       -3.2736380    -1.5890470     0.0915590
  C        3.6575090    -0.9906510    -0.1565210
  H       -0.4188890    -1.9677560     0.2899290
  H       -3.2284760     1.3059560    -0.2284190
  H       -3.2707310    -2.1282860     1.0440440
  H       -4.2368380    -1.0812090    -0.0045560
  H       -3.2021610    -2.3307440    -0.7101950
  H        1.7010110    -1.6882330    -0.6139760
  H        4.0494680    -0.5484410    -1.0790020
  H        3.9975300    -2.0243190    -0.0750760
  H        4.0378180    -0.4153140     0.6868970
units angstrom
no_reorient  #important for SAPT in psi4, default
symmetry c1  #important for SAPT in psi4, default
}

set PROPERTIES_ORIGIN ["COM"]
properties('MP2/aug-cc-pvtz', properties = ['dipole'])
--------------------------------------------------------------------------

    Molecular point group: c1
  Charge       = 0
  Multiplicity = 1
  Basis Set: AUG-CC-PVTZ
    Blend: AUG-CC-PVTZ
  Basis Set: (AUG-CC-PVTZ AUX)
    Blend: AUG-CC-PVTZ-JKFIT

    Orbital Energies [Eh]
    ---------------------

    Doubly Occupied:

       1A    -91.990625     2A    -20.525029     3A    -15.585921
       4A    -11.361536     5A    -11.274902     6A    -11.269433
       7A    -11.258878     8A    -11.257432     9A    -11.254175
      10A    -11.238405    11A     -8.990391    12A     -6.671263
      13A     -6.670712    14A     -6.670000    15A     -1.384448
      16A     -1.227348    17A     -1.183573    18A     -1.046710
      19A     -1.006917    20A     -0.951885    21A     -0.921982
      22A     -0.828561    23A     -0.766211    24A     -0.750185
      25A     -0.708835    26A     -0.642437    27A     -0.630147
      28A     -0.620291    29A     -0.594841    30A     -0.591105
      31A     -0.569303    32A     -0.550954    33A     -0.550671
      34A     -0.535013    35A     -0.523149    36A     -0.502284
      37A     -0.478735    38A     -0.436468    39A     -0.397099
      40A     -0.348310    41A     -0.328279

  @DF-RHF Final Energy:  -797.31900124104482

   => Energetics <=

    Nuclear Repulsion Energy =            587.9036509567818030
    One-Electron Energy =               -2260.2564231171800202
    Two-Electron Energy =                 875.0337709193534010
    Total Energy =                       -797.3190012410448162
  Basis Set: (AUG-CC-PVTZ AUX)
    Blend: AUG-CC-PVTZ-RI
    Molecular point group: c1

    Geometry (in Angstrom), charge = 0, multiplicity = 1:

       Center              X                  Y                   Z               Mass
    ------------   -----------------  -----------------  -----------------  -----------------
         S           -0.808965091853     1.536394349117    -0.148226923016    31.972071174400
         O            2.142837908147     1.194481349117     0.377492076984    15.994914619570
         N            2.201392908147    -1.039394650883    -0.119358923016    14.003074004430
         C           -2.145032091853    -0.674112650883     0.015605076984    12.000000000000
         C            0.074623908147     0.068981349117     0.026682076984    12.000000000000
         C           -0.773095091853    -1.021888650883     0.112970076984    12.000000000000
         C           -2.300574091853     0.691006349117    -0.134824923016    12.000000000000
         C            1.548368308147     0.148577849117     0.156357876984    12.000000000000
         C           -3.277227091853    -1.658702650883     0.083285076984    12.000000000000
         C            3.653919908147    -1.060306650883    -0.164794923016    12.000000000000
         H           -0.422478091853    -2.037411650883     0.281655076984     1.007825032230
         H           -3.232065091853     1.236300349117    -0.236692923016     1.007825032230
         H           -3.274320091853    -2.197941650883     1.035770076984     1.007825032230
         H           -4.240427091853    -1.150864650883    -0.012829923016     1.007825032230
         H           -3.205750091853    -2.400399650883    -0.718468923016     1.007825032230
         H            1.697421908147    -1.757888650883    -0.622249923016     1.007825032230
         H            4.045878908147    -0.618096650883    -1.087275923016     1.007825032230
         H            3.993940908147    -2.093974650883    -0.083349923016     1.007825032230
         H            4.034228908147    -0.484969650883     0.678623076984     1.007825032230

  Basis Set: AUG-CC-PVTZ
    Blend: AUG-CC-PVTZ
  Basis Set: (AUG-CC-PVTZ AUX)
    Blend: AUG-CC-PVTZ-JKFIT
	 Reference Energy          =    -797.3190012410448162 [Eh]
	 Singles Energy            =      -0.0000000000000000 [Eh]
	 Same-Spin Energy          =      -0.4868000819419202 [Eh]
	 Opposite-Spin Energy      =      -1.5034259383042949 [Eh]
	 Correlation Energy        =      -1.9902260202462152 [Eh]
	 Total Energy              =    -799.3092272612910847 [Eh]

	 ================> DF-SCS-MP2 Energies <==================
	-----------------------------------------------------------
	 SCS Same-Spin Scale       =       0.3333333333333333 [-]
	 SCS Opposite-Spin Scale   =       1.2000000000000000 [-]
	 SCS Same-Spin Energy      =      -0.1622666939806401 [Eh]
	 SCS Opposite-Spin Energy  =      -1.8041111259651539 [Eh]
	 SCS Correlation Energy    =      -1.9663778199457940 [Eh]
	 SCS Total Energy          =    -799.2853790609906355 [Eh]
	-----------------------------------------------------------

  Dipole Moment: [D]
     X:    -1.5472      Y:    -3.6379      Z:    -1.0711     Total:     4.0957

*** Psi4 exiting successfully. Buy a developer a beer!
