                               Psi4 1.3.2 release

  ==> Input File <==

--------------------------------------------------------------------------
#psi4
#
memory 32 gb

molecule  {
0 1
  S       -0.8053760     1.6060500    -0.1399530
  O        2.1464270     1.2641370     0.3857660
  N        2.2049820    -0.9697390    -0.1110850
  C       -2.1414430    -0.6044570     0.0238790
  C        0.0782130     0.1386370     0.0349560
  C       -0.7695060    -0.9522330     0.1212440
  C       -2.2969850     0.7606620    -0.1265510
  C        1.5543500     0.2131940     0.1149440
  C       -3.2736380    -1.5890470     0.0915590
  C        3.6575090    -0.9906510    -0.1565210
  H       -0.4188890    -1.9677560     0.2899290
  H       -3.2284760     1.3059560    -0.2284190
  H       -3.2707310    -2.1282860     1.0440440
  H       -4.2368380    -1.0812090    -0.0045560
  H       -3.2021610    -2.3307440    -0.7101950
  H        1.7010110    -1.6882330    -0.6139760
  H        4.0494680    -0.5484410    -1.0790020
  H        3.9975300    -2.0243190    -0.0750760
  H        4.0378180    -0.4153140     0.6868970
units angstrom
no_reorient  #important for SAPT in psi4, default
symmetry c1  #important for SAPT in psi4, default
}

set PROPERTIES_ORIGIN ["COM"]
properties('MP2/aug-cc-pvtz', properties = ['dipole'])
--------------------------------------------------------------------------

    Molecular point group: c1
  Charge       = 0
  Multiplicity = 1
  Basis Set: AUG-CC-PVTZ
    Blend: AUG-CC-PVTZ
  Basis Set: (AUG-CC-PVTZ AUX)
    Blend: AUG-CC-PVTZ-JKFIT

    Orbital Energies [Eh]
    ---------------------

    Doubly Occupied:

       1A    -91.990411     2A    -20.521895     3A    -15.589395
       4A    -11.360894     5A    -11.274973     6A    -11.269140
       7A    -11.260662     8A    -11.257270     9A    -11.253995
      10A    -11.238305    11A     -8.990159    12A     -6.671027
      13A     -6.670477    14A     -6.669765    15A     -1.376361
      16A     -1.231776    17A     -1.183554    18A     -1.046662
      19A     -1.007300    20A     -0.954089    21A     -0.922806
      22A     -0.828801    23A     -0.768717    24A     -0.750021
      25A     -0.708704    26A     -0.644078    27A     -0.628963
      28A     -0.620551    29A     -0.594042    30A     -0.590898
      31A     -0.567781    32A     -0.551684    33A     -0.549292
      34A     -0.534621    35A     -0.523641    36A     -0.500775
      37A     -0.478304    38A     -0.434705    39A     -0.398863
      40A     -0.348255    41A     -0.327903

  @DF-RHF Final Energy:  -797.31950760558652

   => Energetics <=

    Nuclear Repulsion Energy =            587.9313504175141816
    One-Electron Energy =               -2260.3186848391774220
    Two-Electron Energy =                 875.0678268160766038
    Total Energy =                       -797.3195076055865229
  Basis Set: (AUG-CC-PVTZ AUX)
    Blend: AUG-CC-PVTZ-RI
    Molecular point group: c1

    Geometry (in Angstrom), charge = 0, multiplicity = 1:

       Center              X                  Y                   Z               Mass
    ------------   -----------------  -----------------  -----------------  -----------------
         S           -0.809150277032     1.536784402076    -0.144381130095    31.972071174400
         O            2.142652722968     1.194871402076     0.381337869905    15.994914619570
         N            2.201207722968    -1.039004597924    -0.115513130095    14.003074004430
         C           -2.145217277032    -0.673722597924     0.019450869905    12.000000000000
         C            0.074438722968     0.069371402076     0.030527869905    12.000000000000
         C           -0.773280277032    -1.021498597924     0.116815869905    12.000000000000
         C           -2.300759277032     0.691396402076    -0.130979130095    12.000000000000
         C            1.550575722968     0.143928402076     0.110515869905    12.000000000000
         C           -3.277412277032    -1.658312597924     0.087130869905    12.000000000000
         C            3.653734722968    -1.059916597924    -0.160949130095    12.000000000000
         H           -0.422663277032    -2.037021597924     0.285500869905     1.007825032230
         H           -3.232250277032     1.236690402076    -0.232847130095     1.007825032230
         H           -3.274505277032    -2.197551597924     1.039615869905     1.007825032230
         H           -4.240612277032    -1.150474597924    -0.008984130095     1.007825032230
         H           -3.205935277032    -2.400009597924    -0.714623130095     1.007825032230
         H            1.697236722968    -1.757498597924    -0.618404130095     1.007825032230
         H            4.045693722968    -0.617706597924    -1.083430130095     1.007825032230
         H            3.993755722968    -2.093584597924    -0.079504130095     1.007825032230
         H            4.034043722968    -0.484579597924     0.682468869905     1.007825032230

  Basis Set: AUG-CC-PVTZ
    Blend: AUG-CC-PVTZ
  Basis Set: (AUG-CC-PVTZ AUX)
    Blend: AUG-CC-PVTZ-JKFIT
	 Reference Energy          =    -797.3195076055865229 [Eh]
	 Singles Energy            =      -0.0000000000000000 [Eh]
	 Same-Spin Energy          =      -0.4870150313890735 [Eh]
	 Opposite-Spin Energy      =      -1.5037979405232615 [Eh]
	 Correlation Energy        =      -1.9908129719123351 [Eh]
	 Total Energy              =    -799.3103205774988282 [Eh]

	 ================> DF-SCS-MP2 Energies <==================
	-----------------------------------------------------------
	 SCS Same-Spin Scale       =       0.3333333333333333 [-]
	 SCS Opposite-Spin Scale   =       1.2000000000000000 [-]
	 SCS Same-Spin Energy      =      -0.1623383437963578 [Eh]
	 SCS Opposite-Spin Energy  =      -1.8045575286279139 [Eh]
	 SCS Correlation Energy    =      -1.9668958724242716 [Eh]
	 SCS Total Energy          =    -799.2864034780108113 [Eh]
	-----------------------------------------------------------

  Dipole Moment: [D]
     X:    -1.4916      Y:    -3.7473      Z:    -1.1451     Total:     4.1927

*** Psi4 exiting successfully. Buy a developer a beer!
