                               Psi4 1.3.2 release

  ==> Input File <==

--------------------------------------------------------------------------
#psi4
#
memory 32 gb

molecule  {
0 1
  S       -0.8053760     1.6060500    -0.1399530
  O        2.1464270     1.2641370     0.3857660
  N        2.2049820    -0.9697390    -0.1110850
  C       -2.1414430    -0.6044570     0.0238790
  C        0.0852171     0.1713431    -0.1112673
  C       -0.7695060    -0.9522330     0.1212440
  C       -2.2969850     0.7606620    -0.1265510
  C        1.5543500     0.2131940     0.1149440
  C       -3.2736380    -1.5890470     0.0915590
  C        3.6575090    -0.9906510    -0.1565210
  H       -0.4188890    -1.9677560     0.2899290
  H       -3.2284760     1.3059560    -0.2284190
  H       -3.2707310    -2.1282860     1.0440440
  H       -4.2368380    -1.0812090    -0.0045560
  H       -3.2021610    -2.3307440    -0.7101950
  H        1.7010110    -1.6882330    -0.6139760
  H        4.0494680    -0.5484410    -1.0790020
  H        3.9975300    -2.0243190    -0.0750760
  H        4.0378180    -0.4153140     0.6868970
units angstrom
no_reorient  #important for SAPT in psi4, default
symmetry c1  #important for SAPT in psi4, default
}

set PROPERTIES_ORIGIN ["COM"]
properties('MP2/aug-cc-pvtz', properties = ['dipole'])
--------------------------------------------------------------------------

    Molecular point group: c1
  Charge       = 0
  Multiplicity = 1
  Basis Set: AUG-CC-PVTZ
    Blend: AUG-CC-PVTZ
  Basis Set: (AUG-CC-PVTZ AUX)
    Blend: AUG-CC-PVTZ-JKFIT

    Orbital Energies [Eh]
    ---------------------

    Doubly Occupied:

       1A    -91.993264     2A    -20.520272     3A    -15.587787
       4A    -11.360229     5A    -11.276751     6A    -11.269941
       7A    -11.262325     8A    -11.260004     9A    -11.255104
      10A    -11.238827    11A     -8.993414    12A     -6.674293
      13A     -6.673758    14A     -6.673035    15A     -1.374949
      16A     -1.230285    17A     -1.183486    18A     -1.049212
      19A     -1.003338    20A     -0.950667    21A     -0.925650
      22A     -0.827554    23A     -0.767826    24A     -0.748307
      25A     -0.702985    26A     -0.642818    27A     -0.627690
      28A     -0.622254    29A     -0.594825    30A     -0.591053
      31A     -0.566326    32A     -0.551221    33A     -0.548589
      34A     -0.534788    35A     -0.527149    36A     -0.500770
      37A     -0.478854    38A     -0.433453    39A     -0.397240
      40A     -0.344839    41A     -0.327545

  @DF-RHF Final Energy:  -797.31063208811099

   => Energetics <=

    Nuclear Repulsion Energy =            587.8367211615507131
    One-Electron Energy =               -2260.1093482688352196
    Two-Electron Energy =                 874.9619950191735143
    Total Energy =                       -797.3106320881109923
  Basis Set: (AUG-CC-PVTZ AUX)
    Blend: AUG-CC-PVTZ-RI
    Molecular point group: c1

    Geometry (in Angstrom), charge = 0, multiplicity = 1:

       Center              X                  Y                   Z               Mass
    ------------   -----------------  -----------------  -----------------  -----------------
         S           -0.809692388339     1.534252978108    -0.133063572626    31.972071174400
         O            2.142110611661     1.192339978108     0.392655427374    15.994914619570
         N            2.200665611661    -1.041536021892    -0.104195572626    14.003074004430
         C           -2.145759388339    -0.676254021892     0.030768427374    12.000000000000
         C            0.080900711661     0.099546078108    -0.104377872626    12.000000000000
         C           -0.773822388339    -1.024030021892     0.128133427374    12.000000000000
         C           -2.301301388339     0.688864978108    -0.119661572626    12.000000000000
         C            1.550033611661     0.141396978108     0.121833427374    12.000000000000
         C           -3.277954388339    -1.660844021892     0.098448427374    12.000000000000
         C            3.653192611661    -1.062448021892    -0.149631572626    12.000000000000
         H           -0.423205388339    -2.039553021892     0.296818427374     1.007825032230
         H           -3.232792388339     1.234158978108    -0.221529572626     1.007825032230
         H           -3.275047388339    -2.200083021892     1.050933427374     1.007825032230
         H           -4.241154388339    -1.153006021892     0.002333427374     1.007825032230
         H           -3.206477388339    -2.402541021892    -0.703305572626     1.007825032230
         H            1.696694611661    -1.760030021892    -0.607086572626     1.007825032230
         H            4.045151611661    -0.620238021892    -1.072112572626     1.007825032230
         H            3.993213611661    -2.096116021892    -0.068186572626     1.007825032230
         H            4.033501611661    -0.487111021892     0.693786427374     1.007825032230

  Basis Set: AUG-CC-PVTZ
    Blend: AUG-CC-PVTZ
  Basis Set: (AUG-CC-PVTZ AUX)
    Blend: AUG-CC-PVTZ-JKFIT
	 Reference Energy          =    -797.3106320881109923 [Eh]
	 Singles Energy            =      -0.0000000000000000 [Eh]
	 Same-Spin Energy          =      -0.4881182755833632 [Eh]
	 Opposite-Spin Energy      =      -1.5050839242718521 [Eh]
	 Correlation Energy        =      -1.9932021998552152 [Eh]
	 Total Energy              =    -799.3038342879661968 [Eh]

	 ================> DF-SCS-MP2 Energies <==================
	-----------------------------------------------------------
	 SCS Same-Spin Scale       =       0.3333333333333333 [-]
	 SCS Opposite-Spin Scale   =       1.2000000000000000 [-]
	 SCS Same-Spin Energy      =      -0.1627060918611211 [Eh]
	 SCS Opposite-Spin Energy  =      -1.8061007091262224 [Eh]
	 SCS Correlation Energy    =      -1.9688068009873434 [Eh]
	 SCS Total Energy          =    -799.2794388890982873 [Eh]
	-----------------------------------------------------------

  Dipole Moment: [D]
     X:    -1.5796      Y:    -3.6791      Z:    -1.0572     Total:     4.1411

*** Psi4 exiting successfully. Buy a developer a beer!
