                               Psi4 1.3.2 release

  ==> Input File <==

--------------------------------------------------------------------------
#psi4
#
memory 32 gb

molecule  {
0 1
  S       -0.8053760     1.6060500    -0.1399530
  O        2.1464270     1.2641370     0.3857660
  N        2.2049820    -0.9697390    -0.1110850
  C       -2.1414430    -0.6044570     0.0238790
  C        0.0782130     0.1386370     0.0349560
  C       -0.7695060    -0.9522330     0.1212440
  C       -2.2969850     0.7606620    -0.1265510
  C        1.5543500     0.2131940     0.1149440
  C       -3.2736380    -1.5890470     0.0915590
  C        3.6575090    -0.9906510    -0.1565210
  H       -0.4091029    -1.9940358     0.0919047
  H       -3.2284760     1.3059560    -0.2284190
  H       -3.2707310    -2.1282860     1.0440440
  H       -4.2368380    -1.0812090    -0.0045560
  H       -3.2021610    -2.3307440    -0.7101950
  H        1.7010110    -1.6882330    -0.6139760
  H        4.0494680    -0.5484410    -1.0790020
  H        3.9975300    -2.0243190    -0.0750760
  H        4.0378180    -0.4153140     0.6868970
units angstrom
no_reorient  #important for SAPT in psi4, default
symmetry c1  #important for SAPT in psi4, default
}

set PROPERTIES_ORIGIN ["COM"]
properties('MP2/aug-cc-pvtz', properties = ['dipole'])
--------------------------------------------------------------------------

    Molecular point group: c1
  Charge       = 0
  Multiplicity = 1
  Basis Set: AUG-CC-PVTZ
    Blend: AUG-CC-PVTZ
  Basis Set: (AUG-CC-PVTZ AUX)
    Blend: AUG-CC-PVTZ-JKFIT

    Orbital Energies [Eh]
    ---------------------

    Doubly Occupied:

       1A    -91.990575     2A    -20.522285     3A    -15.589378
       4A    -11.361179     5A    -11.275273     6A    -11.269290
       7A    -11.260729     8A    -11.259103     9A    -11.254268
      10A    -11.238323    11A     -8.990325    12A     -6.671192
      13A     -6.670642    14A     -6.669933    15A     -1.376626
      16A     -1.231917    17A     -1.183692    18A     -1.046796
      19A     -1.007071    20A     -0.953880    21A     -0.922917
      22A     -0.828934    23A     -0.768882    24A     -0.748891
      25A     -0.707759    26A     -0.643842    27A     -0.628933
      28A     -0.620864    29A     -0.593967    30A     -0.590570
      31A     -0.567105    32A     -0.551946    33A     -0.550187
      34A     -0.534993    35A     -0.521991    36A     -0.500954
      37A     -0.478216    38A     -0.435065    39A     -0.399147
      40A     -0.348045    41A     -0.328032

  @DF-RHF Final Energy:  -797.31739268599267

   => Energetics <=

    Nuclear Repulsion Energy =            587.8808805309336094
    One-Electron Energy =               -2260.2091136626067964
    Two-Electron Energy =                 875.0108404456805147
    Total Energy =                       -797.3173926859926723
  Basis Set: (AUG-CC-PVTZ AUX)
    Blend: AUG-CC-PVTZ-RI
    Molecular point group: c1

    Geometry (in Angstrom), charge = 0, multiplicity = 1:

       Center              X                  Y                   Z               Mass
    ------------   -----------------  -----------------  -----------------  -----------------
         S           -0.809213890588     1.536955231265    -0.143093893110    31.972071174400
         O            2.142589109412     1.195042231265     0.382625106890    15.994914619570
         N            2.201144109412    -1.038833768735    -0.114225893110    14.003074004430
         C           -2.145280890588    -0.673551768735     0.020738106890    12.000000000000
         C            0.074375109412     0.069542231265     0.031815106890    12.000000000000
         C           -0.773343890588    -1.021327768735     0.118103106890    12.000000000000
         C           -2.300822890588     0.691567231265    -0.129691893110    12.000000000000
         C            1.550512109412     0.144099231265     0.111803106890    12.000000000000
         C           -3.277475890588    -1.658141768735     0.088418106890    12.000000000000
         C            3.653671109412    -1.059745768735    -0.159661893110    12.000000000000
         H           -0.412940790588    -2.063130568735     0.088763806890     1.007825032230
         H           -3.232313890588     1.236861231265    -0.231559893110     1.007825032230
         H           -3.274568890588    -2.197380768735     1.040903106890     1.007825032230
         H           -4.240675890588    -1.150303768735    -0.007696893110     1.007825032230
         H           -3.205998890588    -2.399838768735    -0.713335893110     1.007825032230
         H            1.697173109412    -1.757327768735    -0.617116893110     1.007825032230
         H            4.045630109412    -0.617535768735    -1.082142893110     1.007825032230
         H            3.993692109412    -2.093413768735    -0.078216893110     1.007825032230
         H            4.033980109412    -0.484408768735     0.683756106890     1.007825032230

  Basis Set: AUG-CC-PVTZ
    Blend: AUG-CC-PVTZ
  Basis Set: (AUG-CC-PVTZ AUX)
    Blend: AUG-CC-PVTZ-JKFIT
	 Reference Energy          =    -797.3173926859926723 [Eh]
	 Singles Energy            =      -0.0000000000000000 [Eh]
	 Same-Spin Energy          =      -0.4871211320954436 [Eh]
	 Opposite-Spin Energy      =      -1.5041048350370716 [Eh]
	 Correlation Energy        =      -1.9912259671325152 [Eh]
	 Total Energy              =    -799.3086186531252224 [Eh]

	 ================> DF-SCS-MP2 Energies <==================
	-----------------------------------------------------------
	 SCS Same-Spin Scale       =       0.3333333333333333 [-]
	 SCS Opposite-Spin Scale   =       1.2000000000000000 [-]
	 SCS Same-Spin Energy      =      -0.1623737106984812 [Eh]
	 SCS Opposite-Spin Energy  =      -1.8049258020444858 [Eh]
	 SCS Correlation Energy    =      -1.9672995127429671 [Eh]
	 SCS Total Energy          =    -799.2846921987356836 [Eh]
	-----------------------------------------------------------

  Dipole Moment: [D]
     X:    -1.4917      Y:    -3.7355      Z:    -1.2890     Total:     4.2238

*** Psi4 exiting successfully. Buy a developer a beer!
