                               Psi4 1.3.2 release

  ==> Input File <==

--------------------------------------------------------------------------
#psi4
#
memory 32 gb

molecule  {
0 1
  S       -0.8053760     1.6060500    -0.1399530
  O        2.1464270     1.2641370     0.3857660
  N        2.2049820    -0.9697390    -0.1110850
  C       -2.1414430    -0.6044570     0.0238790
  C        0.0828824     0.1604411    -0.0625262
  C       -0.7695060    -0.9522330     0.1212440
  C       -2.2969850     0.7606620    -0.1265510
  C        1.5543500     0.2131940     0.1149440
  C       -3.2736380    -1.5890470     0.0915590
  C        3.6575090    -0.9906510    -0.1565210
  H       -0.4188890    -1.9677560     0.2899290
  H       -3.2284760     1.3059560    -0.2284190
  H       -3.2707310    -2.1282860     1.0440440
  H       -4.2368380    -1.0812090    -0.0045560
  H       -3.2021610    -2.3307440    -0.7101950
  H        1.7010110    -1.6882330    -0.6139760
  H        4.0494680    -0.5484410    -1.0790020
  H        3.9975300    -2.0243190    -0.0750760
  H        4.0378180    -0.4153140     0.6868970
units angstrom
no_reorient  #important for SAPT in psi4, default
symmetry c1  #important for SAPT in psi4, default
}

set PROPERTIES_ORIGIN ["COM"]
properties('MP2/aug-cc-pvtz', properties = ['dipole'])
--------------------------------------------------------------------------

    Molecular point group: c1
  Charge       = 0
  Multiplicity = 1
  Basis Set: AUG-CC-PVTZ
    Blend: AUG-CC-PVTZ
  Basis Set: (AUG-CC-PVTZ AUX)
    Blend: AUG-CC-PVTZ-JKFIT

    Orbital Energies [Eh]
    ---------------------

    Doubly Occupied:

       1A    -91.992333     2A    -20.520828     3A    -15.588368
       4A    -11.360373     5A    -11.275969     6A    -11.269464
       7A    -11.260342     8A    -11.260247     9A    -11.254668
      10A    -11.238600    11A     -8.992363    12A     -6.673239
      13A     -6.672706    14A     -6.671982    15A     -1.375492
      16A     -1.230844    17A     -1.183617    18A     -1.048390
      19A     -1.004874    20A     -0.951900    21A     -0.924765
      22A     -0.828234    23A     -0.768176    24A     -0.748856
      25A     -0.705294    26A     -0.643271    27A     -0.628002
      28A     -0.621788    29A     -0.594493    30A     -0.590953
      31A     -0.566837    32A     -0.551415    33A     -0.548976
      34A     -0.534457    35A     -0.526450    36A     -0.501044
      37A     -0.478911    38A     -0.434107    39A     -0.397829
      40A     -0.345664    41A     -0.327965

  @DF-RHF Final Energy:  -797.31514659348102

   => Energetics <=

    Nuclear Repulsion Energy =            587.9354741927992336
    One-Electron Energy =               -2260.3130702355515496
    Two-Electron Energy =                 875.0624494492714120
    Total Energy =                       -797.3151465934810176
  Basis Set: (AUG-CC-PVTZ AUX)
    Blend: AUG-CC-PVTZ-RI
    Molecular point group: c1

    Geometry (in Angstrom), charge = 0, multiplicity = 1:

       Center              X                  Y                   Z               Mass
    ------------   -----------------  -----------------  -----------------  -----------------
         S           -0.809511684570     1.535096783517    -0.136836091782    31.972071174400
         O            2.142291315430     1.193183783517     0.388882908218    15.994914619570
         N            2.200846315430    -1.040692216483    -0.107968091782    14.003074004430
         C           -2.145578684570    -0.675410216483     0.026995908218    12.000000000000
         C            0.078746715430     0.089487883517    -0.059409291782    12.000000000000
         C           -0.773641684570    -1.023186216483     0.124360908218    12.000000000000
         C           -2.301120684570     0.689708783517    -0.123434091782    12.000000000000
         C            1.550214315430     0.142240783517     0.118060908218    12.000000000000
         C           -3.277773684570    -1.660000216483     0.094675908218    12.000000000000
         C            3.653373315430    -1.061604216483    -0.153404091782    12.000000000000
         H           -0.423024684570    -2.038709216483     0.293045908218     1.007825032230
         H           -3.232611684570     1.235002783517    -0.225302091782     1.007825032230
         H           -3.274866684570    -2.199239216483     1.047160908218     1.007825032230
         H           -4.240973684570    -1.152162216483    -0.001439091782     1.007825032230
         H           -3.206296684570    -2.401697216483    -0.707078091782     1.007825032230
         H            1.696875315430    -1.759186216483    -0.610859091782     1.007825032230
         H            4.045332315430    -0.619394216483    -1.075885091782     1.007825032230
         H            3.993394315430    -2.095272216483    -0.071959091782     1.007825032230
         H            4.033682315430    -0.486267216483     0.690013908218     1.007825032230

  Basis Set: AUG-CC-PVTZ
    Blend: AUG-CC-PVTZ
  Basis Set: (AUG-CC-PVTZ AUX)
    Blend: AUG-CC-PVTZ-JKFIT
	 Reference Energy          =    -797.3151465934810176 [Eh]
	 Singles Energy            =      -0.0000000000000000 [Eh]
	 Same-Spin Energy          =      -0.4876923510501016 [Eh]
	 Opposite-Spin Energy      =      -1.5044972485246078 [Eh]
	 Correlation Energy        =      -1.9921895995747094 [Eh]
	 Total Energy              =    -799.3073361930556757 [Eh]

	 ================> DF-SCS-MP2 Energies <==================
	-----------------------------------------------------------
	 SCS Same-Spin Scale       =       0.3333333333333333 [-]
	 SCS Opposite-Spin Scale   =       1.2000000000000000 [-]
	 SCS Same-Spin Energy      =      -0.1625641170167005 [Eh]
	 SCS Opposite-Spin Energy  =      -1.8053966982295293 [Eh]
	 SCS Correlation Energy    =      -1.9679608152462298 [Eh]
	 SCS Total Energy          =    -799.2831074087272327 [Eh]
	-----------------------------------------------------------

  Dipole Moment: [D]
     X:    -1.5476      Y:    -3.6988      Z:    -1.0876     Total:     4.1544

*** Psi4 exiting successfully. Buy a developer a beer!
