                               Psi4 1.3.2 release

  ==> Input File <==

--------------------------------------------------------------------------
#psi4
#
memory 32 gb

molecule  {
0 1
  S       -0.8053760     1.6060500    -0.1399530
  O        2.1464270     1.2641370     0.3857660
  N        2.2049820    -0.9697390    -0.1110850
  C       -2.1414430    -0.6044570     0.0238790
  C        0.0782130     0.1386370     0.0349560
  C       -0.7695060    -0.9522330     0.1212440
  C       -2.2969850     0.7606620    -0.1265510
  C        1.5543500     0.2131940     0.1149440
  C       -3.2736380    -1.5890470     0.0915590
  C        3.6575090    -0.9906510    -0.1565210
  H       -0.4164425    -1.9743259     0.2404229
  H       -3.2284760     1.3059560    -0.2284190
  H       -3.2707310    -2.1282860     1.0440440
  H       -4.2368380    -1.0812090    -0.0045560
  H       -3.2021610    -2.3307440    -0.7101950
  H        1.7010110    -1.6882330    -0.6139760
  H        4.0494680    -0.5484410    -1.0790020
  H        3.9975300    -2.0243190    -0.0750760
  H        4.0378180    -0.4153140     0.6868970
units angstrom
no_reorient  #important for SAPT in psi4, default
symmetry c1  #important for SAPT in psi4, default
}

set PROPERTIES_ORIGIN ["COM"]
properties('MP2/aug-cc-pvtz', properties = ['dipole'])
--------------------------------------------------------------------------

    Molecular point group: c1
  Charge       = 0
  Multiplicity = 1
  Basis Set: AUG-CC-PVTZ
    Blend: AUG-CC-PVTZ
  Basis Set: (AUG-CC-PVTZ AUX)
    Blend: AUG-CC-PVTZ-JKFIT

    Orbital Energies [Eh]
    ---------------------

    Doubly Occupied:

       1A    -91.990383     2A    -20.521968     3A    -15.589395
       4A    -11.360943     5A    -11.274942     6A    -11.269163
       7A    -11.260682     8A    -11.257450     9A    -11.254018
      10A    -11.238313    11A     -8.990133    12A     -6.671001
      13A     -6.670451    14A     -6.669740    15A     -1.376405
      16A     -1.231812    17A     -1.183562    18A     -1.046670
      19A     -1.007317    20A     -0.954088    21A     -0.922822
      22A     -0.828859    23A     -0.768756    24A     -0.750035
      25A     -0.708787    26A     -0.644024    27A     -0.628951
      28A     -0.620654    29A     -0.593907    30A     -0.591080
      31A     -0.567718    32A     -0.551744    33A     -0.549528
      34A     -0.534773    35A     -0.523267    36A     -0.500874
      37A     -0.478300    38A     -0.434768    39A     -0.398940
      40A     -0.348216    41A     -0.327905

  @DF-RHF Final Energy:  -797.31944048771152

   => Energetics <=

    Nuclear Repulsion Energy =            587.9332236731896728
    One-Electron Energy =               -2260.3206460586784488
    Two-Electron Energy =                 875.0679818977771447
    Total Energy =                       -797.3194404877115176
  Basis Set: (AUG-CC-PVTZ AUX)
    Blend: AUG-CC-PVTZ-RI
    Molecular point group: c1

    Geometry (in Angstrom), charge = 0, multiplicity = 1:

       Center              X                  Y                   Z               Mass
    ------------   -----------------  -----------------  -----------------  -----------------
         S           -0.809166180259     1.536827109048    -0.144059320686    31.972071174400
         O            2.142636819741     1.194914109048     0.381659679314    15.994914619570
         N            2.201191819741    -1.038961890952    -0.115191320686    14.003074004430
         C           -2.145233180259    -0.673679890952     0.019772679314    12.000000000000
         C            0.074422819741     0.069414109048     0.030849679314    12.000000000000
         C           -0.773296180259    -1.021455890952     0.117137679314    12.000000000000
         C           -2.300775180259     0.691439109048    -0.130657320686    12.000000000000
         C            1.550559819741     0.143971109048     0.110837679314    12.000000000000
         C           -3.277428180259    -1.658269890952     0.087452679314    12.000000000000
         C            3.653718819741    -1.059873890952    -0.160627320686    12.000000000000
         H           -0.420232680259    -2.043548790952     0.236316579314     1.007825032230
         H           -3.232266180259     1.236733109048    -0.232525320686     1.007825032230
         H           -3.274521180259    -2.197508890952     1.039937679314     1.007825032230
         H           -4.240628180259    -1.150431890952    -0.008662320686     1.007825032230
         H           -3.205951180259    -2.399966890952    -0.714301320686     1.007825032230
         H            1.697220819741    -1.757455890952    -0.618082320686     1.007825032230
         H            4.045677819741    -0.617663890952    -1.083108320686     1.007825032230
         H            3.993739819741    -2.093541890952    -0.079182320686     1.007825032230
         H            4.034027819741    -0.484536890952     0.682790679314     1.007825032230

  Basis Set: AUG-CC-PVTZ
    Blend: AUG-CC-PVTZ
  Basis Set: (AUG-CC-PVTZ AUX)
    Blend: AUG-CC-PVTZ-JKFIT
	 Reference Energy          =    -797.3194404877115176 [Eh]
	 Singles Energy            =      -0.0000000000000000 [Eh]
	 Same-Spin Energy          =      -0.4870086256234836 [Eh]
	 Opposite-Spin Energy      =      -1.5038132800018054 [Eh]
	 Correlation Energy        =      -1.9908219056252889 [Eh]
	 Total Energy              =    -799.3102623933367568 [Eh]

	 ================> DF-SCS-MP2 Energies <==================
	-----------------------------------------------------------
	 SCS Same-Spin Scale       =       0.3333333333333333 [-]
	 SCS Opposite-Spin Scale   =       1.2000000000000000 [-]
	 SCS Same-Spin Energy      =      -0.1623362085411612 [Eh]
	 SCS Opposite-Spin Energy  =      -1.8045759360021663 [Eh]
	 SCS Correlation Energy    =      -1.9669121445433275 [Eh]
	 SCS Total Energy          =    -799.2863526322548751 [Eh]
	-----------------------------------------------------------

  Dipole Moment: [D]
     X:    -1.4897      Y:    -3.7501      Z:    -1.1809     Total:     4.2044

*** Psi4 exiting successfully. Buy a developer a beer!
