                               Psi4 1.3.2 release

  ==> Input File <==

--------------------------------------------------------------------------
#psi4
#
memory 32 gb

molecule  {
0 1
  S       -0.8053760     1.6060500    -0.1399530
  O        2.1464270     1.2641370     0.3857660
  N        2.2049820    -0.9697390    -0.1110850
  C       -2.1414430    -0.6044570     0.0238790
  C        0.0805477     0.1495390    -0.0137851
  C       -0.7695060    -0.9522330     0.1212440
  C       -2.2969850     0.7606620    -0.1265510
  C        1.5543500     0.2131940     0.1149440
  C       -3.2736380    -1.5890470     0.0915590
  C        3.6575090    -0.9906510    -0.1565210
  H       -0.4188890    -1.9677560     0.2899290
  H       -3.2284760     1.3059560    -0.2284190
  H       -3.2707310    -2.1282860     1.0440440
  H       -4.2368380    -1.0812090    -0.0045560
  H       -3.2021610    -2.3307440    -0.7101950
  H        1.7010110    -1.6882330    -0.6139760
  H        4.0494680    -0.5484410    -1.0790020
  H        3.9975300    -2.0243190    -0.0750760
  H        4.0378180    -0.4153140     0.6868970
units angstrom
no_reorient  #important for SAPT in psi4, default
symmetry c1  #important for SAPT in psi4, default
}

set PROPERTIES_ORIGIN ["COM"]
properties('MP2/aug-cc-pvtz', properties = ['dipole'])
--------------------------------------------------------------------------

    Molecular point group: c1
  Charge       = 0
  Multiplicity = 1
  Basis Set: AUG-CC-PVTZ
    Blend: AUG-CC-PVTZ
  Basis Set: (AUG-CC-PVTZ AUX)
    Blend: AUG-CC-PVTZ-JKFIT

    Orbital Energies [Eh]
    ---------------------

    Doubly Occupied:

       1A    -91.991380     2A    -20.521372     3A    -15.588904
       4A    -11.360593     5A    -11.275368     6A    -11.269201
       7A    -11.260466     8A    -11.258646     9A    -11.254300
      10A    -11.238427    11A     -8.991275    12A     -6.672147
      13A     -6.671609    14A     -6.670889    15A     -1.375964
      16A     -1.231341    17A     -1.183640    18A     -1.047538
      19A     -1.006194    20A     -0.953050    21A     -0.923818
      22A     -0.828649    23A     -0.768473    24A     -0.749439
      25A     -0.707201    26A     -0.643694    27A     -0.628449
      28A     -0.621198    29A     -0.594232    30A     -0.590902
      31A     -0.567327    32A     -0.551564    33A     -0.549211
      34A     -0.534425    35A     -0.525243    36A     -0.501049
      37A     -0.478729    38A     -0.434526    39A     -0.398369
      40A     -0.346832    41A     -0.328064

  @DF-RHF Final Energy:  -797.31810715174311

   => Energetics <=

    Nuclear Repulsion Energy =            587.9671624319169041
    One-Electron Energy =               -2260.3831390567293056
    Two-Electron Energy =                 875.0978694730692951
    Total Energy =                       -797.3181071517431064
  Basis Set: (AUG-CC-PVTZ AUX)
    Blend: AUG-CC-PVTZ-RI
    Molecular point group: c1

    Geometry (in Angstrom), charge = 0, multiplicity = 1:

       Center              X                  Y                   Z               Mass
    ------------   -----------------  -----------------  -----------------  -----------------
         S           -0.809330980801     1.535940596667    -0.140608610939    31.972071174400
         O            2.142472019199     1.194027596667     0.385110389061    15.994914619570
         N            2.201027019199    -1.039848403333    -0.111740610939    14.003074004430
         C           -2.145397980801    -0.674566403333     0.023223389061    12.000000000000
         C            0.076592719199     0.079429596667    -0.014440710939    12.000000000000
         C           -0.773460980801    -1.022342403333     0.120588389061    12.000000000000
         C           -2.300939980801     0.690552596667    -0.127206610939    12.000000000000
         C            1.550395019199     0.143084596667     0.114288389061    12.000000000000
         C           -3.277592980801    -1.659156403333     0.090903389061    12.000000000000
         C            3.653554019199    -1.060760403333    -0.157176610939    12.000000000000
         H           -0.422843980801    -2.037865403333     0.289273389061     1.007825032230
         H           -3.232430980801     1.235846596667    -0.229074610939     1.007825032230
         H           -3.274685980801    -2.198395403333     1.043388389061     1.007825032230
         H           -4.240792980801    -1.151318403333    -0.005211610939     1.007825032230
         H           -3.206115980801    -2.400853403333    -0.710850610939     1.007825032230
         H            1.697056019199    -1.758342403333    -0.614631610939     1.007825032230
         H            4.045513019199    -0.618550403333    -1.079657610939     1.007825032230
         H            3.993575019199    -2.094428403333    -0.075731610939     1.007825032230
         H            4.033863019199    -0.485423403333     0.686241389061     1.007825032230

  Basis Set: AUG-CC-PVTZ
    Blend: AUG-CC-PVTZ
  Basis Set: (AUG-CC-PVTZ AUX)
    Blend: AUG-CC-PVTZ-JKFIT
	 Reference Energy          =    -797.3181071517431064 [Eh]
	 Singles Energy            =      -0.0000000000000000 [Eh]
	 Same-Spin Energy          =      -0.4873237305348966 [Eh]
	 Opposite-Spin Energy      =      -1.5040736768010809 [Eh]
	 Correlation Energy        =      -1.9913974073359775 [Eh]
	 Total Energy              =    -799.3095045590790733 [Eh]

	 ================> DF-SCS-MP2 Energies <==================
	-----------------------------------------------------------
	 SCS Same-Spin Scale       =       0.3333333333333333 [-]
	 SCS Opposite-Spin Scale   =       1.2000000000000000 [-]
	 SCS Same-Spin Energy      =      -0.1624412435116322 [Eh]
	 SCS Opposite-Spin Energy  =      -1.8048884121612971 [Eh]
	 SCS Correlation Energy    =      -1.9673296556729294 [Eh]
	 SCS Total Energy          =    -799.2854368074160902 [Eh]
	-----------------------------------------------------------

  Dipole Moment: [D]
     X:    -1.5182      Y:    -3.7215      Z:    -1.1169     Total:     4.1716

*** Psi4 exiting successfully. Buy a developer a beer!
