                               Psi4 1.3.2 release

  ==> Input File <==

--------------------------------------------------------------------------
#psi4
#
memory 32 gb

molecule  {
0 1
  S       -0.8053760     1.6060500    -0.1399530
  O        2.1464270     1.2641370     0.3857660
  N        2.2049820    -0.9697390    -0.1110850
  C       -2.1414430    -0.6044570     0.0238790
  C        0.0782130     0.1386370     0.0349560
  C       -0.7695060    -0.9522330     0.1212440
  C       -2.2969850     0.7606620    -0.1265510
  C        1.5447795     0.2333520     0.3136952
  C       -3.2736380    -1.5890470     0.0915590
  C        3.6575090    -0.9906510    -0.1565210
  H       -0.4188890    -1.9677560     0.2899290
  H       -3.2284760     1.3059560    -0.2284190
  H       -3.2707310    -2.1282860     1.0440440
  H       -4.2368380    -1.0812090    -0.0045560
  H       -3.2021610    -2.3307440    -0.7101950
  H        1.7010110    -1.6882330    -0.6139760
  H        4.0494680    -0.5484410    -1.0790020
  H        3.9975300    -2.0243190    -0.0750760
  H        4.0378180    -0.4153140     0.6868970
units angstrom
no_reorient  #important for SAPT in psi4, default
symmetry c1  #important for SAPT in psi4, default
}

set PROPERTIES_ORIGIN ["COM"]
properties('MP2/aug-cc-pvtz', properties = ['dipole'])
--------------------------------------------------------------------------

    Molecular point group: c1
  Charge       = 0
  Multiplicity = 1
  Basis Set: AUG-CC-PVTZ
    Blend: AUG-CC-PVTZ
  Basis Set: (AUG-CC-PVTZ AUX)
    Blend: AUG-CC-PVTZ-JKFIT

    Orbital Energies [Eh]
    ---------------------

    Doubly Occupied:

       1A    -91.991065     2A    -20.536745     3A    -15.575703
       4A    -11.367309     5A    -11.276509     6A    -11.270199
       7A    -11.257586     8A    -11.254707     9A    -11.253255
      10A    -11.238657    11A     -8.990915    12A     -6.671800
      13A     -6.671239    14A     -6.670526    15A     -1.406111
      16A     -1.210655    17A     -1.182898    18A     -1.046297
      19A     -1.005381    20A     -0.945276    21A     -0.917840
      22A     -0.826815    23A     -0.757263    24A     -0.750184
      25A     -0.708693    26A     -0.645942    27A     -0.626576
      28A     -0.617143    29A     -0.596664    30A     -0.591312
      31A     -0.572444    32A     -0.555243    33A     -0.546923
      34A     -0.535737    35A     -0.521939    36A     -0.505766
      37A     -0.479884    38A     -0.438443    39A     -0.388981
      40A     -0.348262    41A     -0.328369

  @DF-RHF Final Energy:  -797.30038395645840

   => Energetics <=

    Nuclear Repulsion Energy =            587.3802059810390119
    One-Electron Energy =               -2259.1946701260294503
    Two-Electron Energy =                 874.5140801885319206
    Total Energy =                       -797.3003839564584041
  Basis Set: (AUG-CC-PVTZ AUX)
    Blend: AUG-CC-PVTZ-RI
    Molecular point group: c1

    Geometry (in Angstrom), charge = 0, multiplicity = 1:

       Center              X                  Y                   Z               Mass
    ------------   -----------------  -----------------  -----------------  -----------------
         S           -0.808409528576     1.535224190240    -0.159764301779    31.972071174400
         O            2.143393471424     1.193311190240     0.365954698221    15.994914619570
         N            2.201948471424    -1.040564809760    -0.130896301779    14.003074004430
         C           -2.144476528576    -0.675282809760     0.004067698221    12.000000000000
         C            0.075179471424     0.067811190240     0.015144698221    12.000000000000
         C           -0.772539528576    -1.023058809760     0.101432698221    12.000000000000
         C           -2.300018528576     0.689836190240    -0.146362301779    12.000000000000
         C            1.541745971424     0.162526190240     0.293883898221    12.000000000000
         C           -3.276671528576    -1.659872809760     0.071747698221    12.000000000000
         C            3.654475471424    -1.061476809760    -0.176332301779    12.000000000000
         H           -0.421922528576    -2.038581809760     0.270117698221     1.007825032230
         H           -3.231509528576     1.235130190240    -0.248230301779     1.007825032230
         H           -3.273764528576    -2.199111809760     1.024232698221     1.007825032230
         H           -4.239871528576    -1.152034809760    -0.024367301779     1.007825032230
         H           -3.205194528576    -2.401569809760    -0.730006301779     1.007825032230
         H            1.697977471424    -1.759058809760    -0.633787301779     1.007825032230
         H            4.046434471424    -0.619266809760    -1.098813301779     1.007825032230
         H            3.994496471424    -2.095144809760    -0.094887301779     1.007825032230
         H            4.034784471424    -0.486139809760     0.667085698221     1.007825032230

  Basis Set: AUG-CC-PVTZ
    Blend: AUG-CC-PVTZ
  Basis Set: (AUG-CC-PVTZ AUX)
    Blend: AUG-CC-PVTZ-JKFIT
	 Reference Energy          =    -797.3003839564584041 [Eh]
	 Singles Energy            =      -0.0000000000000000 [Eh]
	 Same-Spin Energy          =      -0.4870371742209422 [Eh]
	 Opposite-Spin Energy      =      -1.5045289596228348 [Eh]
	 Correlation Energy        =      -1.9915661338437771 [Eh]
	 Total Energy              =    -799.2919500903021799 [Eh]

	 ================> DF-SCS-MP2 Energies <==================
	-----------------------------------------------------------
	 SCS Same-Spin Scale       =       0.3333333333333333 [-]
	 SCS Opposite-Spin Scale   =       1.2000000000000000 [-]
	 SCS Same-Spin Energy      =      -0.1623457247403141 [Eh]
	 SCS Opposite-Spin Energy  =      -1.8054347515474016 [Eh]
	 SCS Correlation Energy    =      -1.9677804762877158 [Eh]
	 SCS Total Energy          =    -799.2681644327461754 [Eh]
	-----------------------------------------------------------

  Dipole Moment: [D]
     X:    -1.6978      Y:    -3.2834      Z:    -0.8229     Total:     3.7869

*** Psi4 exiting successfully. Buy a developer a beer!
