                               Psi4 1.3.2 release

  ==> Input File <==

--------------------------------------------------------------------------
#psi4
#
memory 32 gb

molecule  {
0 1
  S       -0.8053760     1.6060500    -0.1399530
  O        2.1464270     1.2641370     0.3857660
  N        2.2049820    -0.9697390    -0.1110850
  C       -2.1414430    -0.6044570     0.0238790
  C        0.0782130     0.1386370     0.0349560
  C       -0.7695060    -0.9522330     0.1212440
  C       -2.2969850     0.7606620    -0.1265510
  C        1.5495647     0.2232730     0.2143196
  C       -3.2736380    -1.5890470     0.0915590
  C        3.6575090    -0.9906510    -0.1565210
  H       -0.4188890    -1.9677560     0.2899290
  H       -3.2284760     1.3059560    -0.2284190
  H       -3.2707310    -2.1282860     1.0440440
  H       -4.2368380    -1.0812090    -0.0045560
  H       -3.2021610    -2.3307440    -0.7101950
  H        1.7010110    -1.6882330    -0.6139760
  H        4.0494680    -0.5484410    -1.0790020
  H        3.9975300    -2.0243190    -0.0750760
  H        4.0378180    -0.4153140     0.6868970
units angstrom
no_reorient  #important for SAPT in psi4, default
symmetry c1  #important for SAPT in psi4, default
}

set PROPERTIES_ORIGIN ["COM"]
properties('MP2/aug-cc-pvtz', properties = ['dipole'])
--------------------------------------------------------------------------

    Molecular point group: c1
  Charge       = 0
  Multiplicity = 1
  Basis Set: AUG-CC-PVTZ
    Blend: AUG-CC-PVTZ
  Basis Set: (AUG-CC-PVTZ AUX)
    Blend: AUG-CC-PVTZ-JKFIT

    Orbital Energies [Eh]
    ---------------------

    Doubly Occupied:

       1A    -91.990803     2A    -20.528560     3A    -15.582470
       4A    -11.362831     5A    -11.275135     6A    -11.269706
       7A    -11.257536     8A    -11.257039     9A    -11.254353
      10A    -11.238496    11A     -8.990593    12A     -6.671469
      13A     -6.670915    14A     -6.670203    15A     -1.392260
      16A     -1.222199    17A     -1.183493    18A     -1.046658
      19A     -1.006466    20A     -0.949654    21A     -0.920886
      22A     -0.828149    23A     -0.763391    24A     -0.750291
      25A     -0.708894    26A     -0.642265    27A     -0.630302
      28A     -0.619472    29A     -0.595560    30A     -0.591230
      31A     -0.570583    32A     -0.552504    33A     -0.549527
      34A     -0.535319    35A     -0.522687    36A     -0.503649
      37A     -0.479149    38A     -0.437734    39A     -0.394794
      40A     -0.348328    41A     -0.328483

  @DF-RHF Final Energy:  -797.31556620576998

   => Energetics <=

    Nuclear Repulsion Energy =            587.8027211662362106
    One-Electron Energy =               -2260.0485056613142660
    Two-Electron Energy =                 874.9302182893081863
    Total Energy =                       -797.3155662057699828
  Basis Set: (AUG-CC-PVTZ AUX)
    Blend: AUG-CC-PVTZ-RI
    Molecular point group: c1

    Geometry (in Angstrom), charge = 0, multiplicity = 1:

       Center              X                  Y                   Z               Mass
    ------------   -----------------  -----------------  -----------------  -----------------
         S           -0.808779898934     1.536004296158    -0.152072715937    31.972071174400
         O            2.143023101066     1.194091296158     0.373646284063    15.994914619570
         N            2.201578101066    -1.039784703842    -0.123204715937    14.003074004430
         C           -2.144846898934    -0.674502703842     0.011759284063    12.000000000000
         C            0.074809101066     0.068591296158     0.022836284063    12.000000000000
         C           -0.772909898934    -1.022278703842     0.109124284063    12.000000000000
         C           -2.300388898934     0.690616296158    -0.138670715937    12.000000000000
         C            1.546160801066     0.153227296158     0.202199884063    12.000000000000
         C           -3.277041898934    -1.659092703842     0.079439284063    12.000000000000
         C            3.654105101066    -1.060696703842    -0.168640715937    12.000000000000
         H           -0.422292898934    -2.037801703842     0.277809284063     1.007825032230
         H           -3.231879898934     1.235910296158    -0.240538715937     1.007825032230
         H           -3.274134898934    -2.198331703842     1.031924284063     1.007825032230
         H           -4.240241898934    -1.151254703842    -0.016675715937     1.007825032230
         H           -3.205564898934    -2.400789703842    -0.722314715937     1.007825032230
         H            1.697607101066    -1.758278703842    -0.626095715937     1.007825032230
         H            4.046064101066    -0.618486703842    -1.091121715937     1.007825032230
         H            3.994126101066    -2.094364703842    -0.087195715937     1.007825032230
         H            4.034414101066    -0.485359703842     0.674777284063     1.007825032230

  Basis Set: AUG-CC-PVTZ
    Blend: AUG-CC-PVTZ
  Basis Set: (AUG-CC-PVTZ AUX)
    Blend: AUG-CC-PVTZ-JKFIT
	 Reference Energy          =    -797.3155662057699828 [Eh]
	 Singles Energy            =      -0.0000000000000000 [Eh]
	 Same-Spin Energy          =      -0.4867316257903298 [Eh]
	 Opposite-Spin Energy      =      -1.5034203882053996 [Eh]
	 Correlation Energy        =      -1.9901520139957294 [Eh]
	 Total Energy              =    -799.3057182197657085 [Eh]

	 ================> DF-SCS-MP2 Energies <==================
	-----------------------------------------------------------
	 SCS Same-Spin Scale       =       0.3333333333333333 [-]
	 SCS Opposite-Spin Scale   =       1.2000000000000000 [-]
	 SCS Same-Spin Energy      =      -0.1622438752634432 [Eh]
	 SCS Opposite-Spin Energy  =      -1.8041044658464793 [Eh]
	 SCS Correlation Energy    =      -1.9663483411099225 [Eh]
	 SCS Total Energy          =    -799.2819145468798752 [Eh]
	-----------------------------------------------------------

  Dipole Moment: [D]
     X:    -1.6001      Y:    -3.5233      Z:    -0.9919     Total:     3.9947

*** Psi4 exiting successfully. Buy a developer a beer!
