                               Psi4 1.3.2 release

  ==> Input File <==

--------------------------------------------------------------------------
#psi4
#
memory 32 gb

molecule  {
0 1
  O       -0.7510110     0.1228100     0.0000050
  H       -1.1318640    -0.7696100     0.0000540
  C        0.7662492    -0.0294511     0.0000125
  H        1.0759270     0.9908560    -0.0039220
  H        1.0319810    -0.5401220     0.8939140
  H        1.0315480    -0.5468090    -0.8901590
units angstrom
no_reorient  #important for SAPT in psi4, default
symmetry c1  #important for SAPT in psi4, default
}

set PROPERTIES_ORIGIN ["COM"]
properties('MP2/aug-cc-pvtz', properties = ['dipole'])
--------------------------------------------------------------------------

    Molecular point group: c1
  Charge       = 0
  Multiplicity = 1
  Basis Set: AUG-CC-PVTZ
    Blend: AUG-CC-PVTZ
  Basis Set: (AUG-CC-PVTZ AUX)
    Blend: AUG-CC-PVTZ-JKFIT

    Orbital Energies [Eh]
    ---------------------

    Doubly Occupied:

       1A    -20.552017     2A    -11.272757     3A     -1.319771
       4A     -0.935554     5A     -0.670072     6A     -0.623761
       7A     -0.570514     8A     -0.509266     9A     -0.457447

  @DF-RHF Final Energy:  -115.08221216898775

   => Energetics <=

    Nuclear Repulsion Energy =             39.1805356163509941
    One-Electron Energy =                -234.7031764903113356
    Two-Electron Energy =                  80.4404287049725895
    Total Energy =                       -115.0822121689877520
  Basis Set: (AUG-CC-PVTZ AUX)
    Blend: AUG-CC-PVTZ-RI
    Molecular point group: c1

    Geometry (in Angstrom), charge = 0, multiplicity = 1:

       Center              X                  Y                   Z               Mass
    ------------   -----------------  -----------------  -----------------  -----------------
         O           -0.726216781967     0.099751912830     0.000001375146    15.994914619570
         H           -1.107069781967    -0.792668087170     0.000050375146     1.007825032230
         C            0.791043418033    -0.052509187170     0.000008875146    12.000000000000
         H            1.100721218033     0.967797912830    -0.003925624854     1.007825032230
         H            1.056775218033    -0.563180087170     0.893910375146     1.007825032230
         H            1.056342218033    -0.569867087170    -0.890162624854     1.007825032230

  Basis Set: AUG-CC-PVTZ
    Blend: AUG-CC-PVTZ
  Basis Set: (AUG-CC-PVTZ AUX)
    Blend: AUG-CC-PVTZ-JKFIT
	 Reference Energy          =    -115.0822121689877520 [Eh]
	 Singles Energy            =      -0.0000000000000000 [Eh]
	 Same-Spin Energy          =      -0.1061659593684211 [Eh]
	 Opposite-Spin Energy      =      -0.3670939211499065 [Eh]
	 Correlation Energy        =      -0.4732598805183276 [Eh]
	 Total Energy              =    -115.5554720495060792 [Eh]

	 ================> DF-SCS-MP2 Energies <==================
	-----------------------------------------------------------
	 SCS Same-Spin Scale       =       0.3333333333333333 [-]
	 SCS Opposite-Spin Scale   =       1.2000000000000000 [-]
	 SCS Same-Spin Energy      =      -0.0353886531228070 [Eh]
	 SCS Opposite-Spin Energy  =      -0.4405127053798878 [Eh]
	 SCS Correlation Energy    =      -0.4759013585026948 [Eh]
	 SCS Total Energy          =    -115.5581135274904483 [Eh]
	-----------------------------------------------------------

  Dipole Moment: [D]
     X:     1.2387      Y:    -1.4801      Z:    -0.0001     Total:     1.9300

*** Psi4 exiting successfully. Buy a developer a beer!
