                               Psi4 1.4a3.dev225

  ==> Input File <==

--------------------------------------------------------------------------
#psi4
#
memory 32 gb

molecule  {
0 1
  O        0.7508650     0.1227030     0.0000000
  H        1.1315190    -0.7696320     0.0000000
  C       -0.7162423    -0.0244625     0.0000000
  H       -1.0749640     0.9910260    -0.0000020
  H       -1.0322630    -0.5430960    -0.8919870
  H       -1.0322640    -0.5430920     0.8919880
units angstrom
no_reorient  #important for SAPT in psi4, default
symmetry c1  #important for SAPT in psi4, default
}

set PROPERTIES_ORIGIN ["COM"]
properties('MP2/aug-cc-pvtz', properties = ['dipole'])
--------------------------------------------------------------------------

    Molecular point group: c1
  Charge       = 0
  Multiplicity = 1
  Basis Set: AUG-CC-PVTZ
    Blend: AUG-CC-PVTZ
  Basis Set: (AUG-CC-PVTZ AUX)
    Blend: AUG-CC-PVTZ-JKFIT

    Orbital Energies [Eh]
    ---------------------

    Doubly Occupied:

       1A    -20.556486     2A    -11.272231     3A     -1.336273
       4A     -0.929632     5A     -0.678488     6A     -0.620065
       7A     -0.578891     8A     -0.509733     9A     -0.455777

  @DF-RHF Final Energy:  -115.08854969110533

   => Energetics <=

    Nuclear Repulsion Energy =             39.6691757847502373
    One-Electron Energy =                -235.6402988317283302
    Two-Electron Energy =                  80.8825733558727791
    Total Energy =                       -115.0885496911053281
  Basis Set: (AUG-CC-PVTZ AUX)
    Blend: AUG-CC-PVTZ-RI
    Molecular point group: c1

    Geometry (in Angstrom), charge = 0, multiplicity = 1:

       Center              X                  Y                   Z               Mass
    ------------   -----------------  -----------------  -----------------  -----------------
         O            0.707418419406     0.097801119653     0.000000031469    15.994914619570
         H            1.088072419406    -0.794533880347     0.000000031469     1.007825032230
         C           -0.759688880594    -0.049364380347     0.000000031469    12.000000000000
         H           -1.118410580594     0.966124119653    -0.000001968531     1.007825032230
         H           -1.075709580594    -0.567997880347    -0.891986968531     1.007825032230
         H           -1.075710580594    -0.567993880347     0.891988031469     1.007825032230

  Basis Set: AUG-CC-PVTZ
    Blend: AUG-CC-PVTZ
  Basis Set: (AUG-CC-PVTZ AUX)
    Blend: AUG-CC-PVTZ-JKFIT
	 Reference Energy          =    -115.0885496911053281 [Eh]
	 Singles Energy            =      -0.0000000000000000 [Eh]
	 Same-Spin Energy          =      -0.1059729448940436 [Eh]
	 Opposite-Spin Energy      =      -0.3660241702923689 [Eh]
	 Correlation Energy        =      -0.4719971151864125 [Eh]
	 Total Energy              =    -115.5605468062917396 [Eh]

	 ================> DF-SCS-MP2 Energies <==================
	-----------------------------------------------------------
	 SCS Same-Spin Scale       =       0.3333333333333333 [-]
	 SCS Opposite-Spin Scale   =       1.2000000000000000 [-]
	 SCS Same-Spin Energy      =      -0.0353243149646812 [Eh]
	 SCS Opposite-Spin Energy  =      -0.4392290043508427 [Eh]
	 SCS Correlation Energy    =      -0.4745533193155239 [Eh]
	 SCS Total Energy          =    -115.5631030104208463 [Eh]
	-----------------------------------------------------------

  Dipole Moment: [D]
     X:    -1.0732      Y:    -1.4736      Z:     0.0000     Total:     1.8229

*** Psi4 exiting successfully. Buy a developer a beer!
