                               Psi4 1.3.2 release

  ==> Input File <==

--------------------------------------------------------------------------
#psi4
#
memory 32 gb

molecule  {
0 1
  O       -0.7510110     0.1228100     0.0000050
  H       -1.0533611    -0.5856609     0.0000439
  C        0.6667490    -0.0194660     0.0000120
  H        1.0759270     0.9908560    -0.0039220
  H        1.0319810    -0.5401220     0.8939140
  H        1.0315480    -0.5468090    -0.8901590
units angstrom
no_reorient  #important for SAPT in psi4, default
symmetry c1  #important for SAPT in psi4, default
}

set PROPERTIES_ORIGIN ["COM"]
properties('MP2/aug-cc-pvtz', properties = ['dipole'])
--------------------------------------------------------------------------

    Molecular point group: c1
  Charge       = 0
  Multiplicity = 1
  Basis Set: AUG-CC-PVTZ
    Blend: AUG-CC-PVTZ
  Basis Set: (AUG-CC-PVTZ AUX)
    Blend: AUG-CC-PVTZ-JKFIT

    Orbital Energies [Eh]
    ---------------------

    Doubly Occupied:

       1A    -20.538951     2A    -11.275699     3A     -1.417724
       4A     -0.947918     5A     -0.727736     6A     -0.623506
       7A     -0.598935     8A     -0.517432     9A     -0.459132

  @DF-RHF Final Energy:  -115.04343584265082

   => Energetics <=

    Nuclear Repulsion Energy =             41.4568907388325201
    One-Electron Energy =                -238.7865875331833365
    Two-Electron Energy =                  82.2862609516999868
    Total Energy =                       -115.0434358426508226
  Basis Set: (AUG-CC-PVTZ AUX)
    Blend: AUG-CC-PVTZ-RI
    Molecular point group: c1

    Geometry (in Angstrom), charge = 0, multiplicity = 1:

       Center              X                  Y                   Z               Mass
    ------------   -----------------  -----------------  -----------------  -----------------
         O           -0.691405137162     0.090221916543     0.000001880327    15.994914619570
         H           -0.993755237162    -0.618248983457     0.000040780327     1.007825032230
         C            0.726354862838    -0.052054083457     0.000008880327    12.000000000000
         H            1.135532862838     0.958267916543    -0.003925119673     1.007825032230
         H            1.091586862838    -0.572710083457     0.893910880327     1.007825032230
         H            1.091153862838    -0.579397083457    -0.890162119673     1.007825032230

  Basis Set: AUG-CC-PVTZ
    Blend: AUG-CC-PVTZ
  Basis Set: (AUG-CC-PVTZ AUX)
    Blend: AUG-CC-PVTZ-JKFIT
	 Reference Energy          =    -115.0434358426508226 [Eh]
	 Singles Energy            =      -0.0000000000000000 [Eh]
	 Same-Spin Energy          =      -0.1038419775989140 [Eh]
	 Opposite-Spin Energy      =      -0.3599171014338924 [Eh]
	 Correlation Energy        =      -0.4637590790328064 [Eh]
	 Total Energy              =    -115.5071949216836344 [Eh]

	 ================> DF-SCS-MP2 Energies <==================
	-----------------------------------------------------------
	 SCS Same-Spin Scale       =       0.3333333333333333 [-]
	 SCS Opposite-Spin Scale   =       1.2000000000000000 [-]
	 SCS Same-Spin Energy      =      -0.0346139925329713 [Eh]
	 SCS Opposite-Spin Energy  =      -0.4319005217206709 [Eh]
	 SCS Correlation Energy    =      -0.4665145142536422 [Eh]
	 SCS Total Energy          =    -115.5099503569044685 [Eh]
	-----------------------------------------------------------

  Dipole Moment: [D]
     X:     1.0226      Y:    -1.3264      Z:    -0.0003     Total:     1.6749

*** Psi4 exiting successfully. Buy a developer a beer!
