                               Psi4 1.3.2 release

  ==> Input File <==

--------------------------------------------------------------------------
#psi4
#
memory 32 gb

molecule  {
0 1
  O       -0.7510110     0.1228100     0.0000050
  H       -1.1627770    -0.7557748     0.0000533
  C        0.6667490    -0.0194660     0.0000120
  H        1.0759270     0.9908560    -0.0039220
  H        1.0319810    -0.5401220     0.8939140
  H        1.0315480    -0.5468090    -0.8901590
units angstrom
no_reorient  #important for SAPT in psi4, default
symmetry c1  #important for SAPT in psi4, default
}

set PROPERTIES_ORIGIN ["COM"]
properties('MP2/aug-cc-pvtz', properties = ['dipole'])
--------------------------------------------------------------------------

    Molecular point group: c1
  Charge       = 0
  Multiplicity = 1
  Basis Set: AUG-CC-PVTZ
    Blend: AUG-CC-PVTZ
  Basis Set: (AUG-CC-PVTZ AUX)
    Blend: AUG-CC-PVTZ-JKFIT

    Orbital Energies [Eh]
    ---------------------

    Doubly Occupied:

       1A    -20.560014     2A    -11.273096     3A     -1.353208
       4A     -0.924457     5A     -0.688259     6A     -0.618171
       7A     -0.591912     8A     -0.502711     9A     -0.451454

  @DF-RHF Final Energy:  -115.09132510197998

   => Energetics <=

    Nuclear Repulsion Energy =             40.1457477492858104
    One-Electron Energy =                -236.5475848608981835
    Two-Electron Energy =                  81.3105120096323901
    Total Energy =                       -115.0913251019799759
  Basis Set: (AUG-CC-PVTZ AUX)
    Blend: AUG-CC-PVTZ-RI
    Molecular point group: c1

    Geometry (in Angstrom), charge = 0, multiplicity = 1:

       Center              X                  Y                   Z               Mass
    ------------   -----------------  -----------------  -----------------  -----------------
         O           -0.687961955262     0.095575188795     0.000001584521    15.994914619570
         H           -1.099727955262    -0.783009611205     0.000049884521     1.007825032230
         C            0.729798044738    -0.046700811205     0.000008584521    12.000000000000
         H            1.138976044738     0.963621188795    -0.003925415479     1.007825032230
         H            1.095030044738    -0.567356811205     0.893910584521     1.007825032230
         H            1.094597044738    -0.574043811205    -0.890162415479     1.007825032230

  Basis Set: AUG-CC-PVTZ
    Blend: AUG-CC-PVTZ
  Basis Set: (AUG-CC-PVTZ AUX)
    Blend: AUG-CC-PVTZ-JKFIT
	 Reference Energy          =    -115.0913251019799759 [Eh]
	 Singles Energy            =      -0.0000000000000000 [Eh]
	 Same-Spin Energy          =      -0.1058272893768594 [Eh]
	 Opposite-Spin Energy      =      -0.3650361136120759 [Eh]
	 Correlation Energy        =      -0.4708634029889353 [Eh]
	 Total Energy              =    -115.5621885049689155 [Eh]

	 ================> DF-SCS-MP2 Energies <==================
	-----------------------------------------------------------
	 SCS Same-Spin Scale       =       0.3333333333333333 [-]
	 SCS Opposite-Spin Scale   =       1.2000000000000000 [-]
	 SCS Same-Spin Energy      =      -0.0352757631256198 [Eh]
	 SCS Opposite-Spin Energy  =      -0.4380433363344911 [Eh]
	 SCS Correlation Energy    =      -0.4733190994601109 [Eh]
	 SCS Total Energy          =    -115.5646442014400890 [Eh]
	-----------------------------------------------------------

  Dipole Moment: [D]
     X:     0.8537      Y:    -1.4550      Z:    -0.0003     Total:     1.6870

*** Psi4 exiting successfully. Buy a developer a beer!
