                               Psi4 1.3.2 release

  ==> Input File <==

--------------------------------------------------------------------------
#psi4
#
memory 32 gb

molecule  {
0 1
  O       -0.7551127     0.0732446     0.0001921
  H       -1.1318640    -0.7696100     0.0000540
  C        0.6667490    -0.0194660     0.0000120
  H        1.0759270     0.9908560    -0.0039220
  H        1.0319810    -0.5401220     0.8939140
  H        1.0315480    -0.5468090    -0.8901590
units angstrom
no_reorient  #important for SAPT in psi4, default
symmetry c1  #important for SAPT in psi4, default
}

set PROPERTIES_ORIGIN ["COM"]
properties('MP2/aug-cc-pvtz', properties = ['dipole'])
--------------------------------------------------------------------------

    Molecular point group: c1
  Charge       = 0
  Multiplicity = 1
  Basis Set: AUG-CC-PVTZ
    Blend: AUG-CC-PVTZ
  Basis Set: (AUG-CC-PVTZ AUX)
    Blend: AUG-CC-PVTZ-JKFIT

    Orbital Energies [Eh]
    ---------------------

    Doubly Occupied:

       1A    -20.554495     2A    -11.274035     3A     -1.363611
       4A     -0.929708     5A     -0.696553     6A     -0.619256
       7A     -0.596580     8A     -0.503966     9A     -0.451866

  @DF-RHF Final Energy:  -115.09197243044294

   => Energetics <=

    Nuclear Repulsion Energy =             40.3901684546936437
    One-Electron Energy =                -236.9841395247322282
    Two-Electron Energy =                  81.5019986395956408
    Total Energy =                       -115.0919724304429366
  Basis Set: (AUG-CC-PVTZ AUX)
    Blend: AUG-CC-PVTZ-RI
    Molecular point group: c1

    Geometry (in Angstrom), charge = 0, multiplicity = 1:

       Center              X                  Y                   Z               Mass
    ------------   -----------------  -----------------  -----------------  -----------------
         O           -0.690987928819     0.071199709249     0.000095218776    15.994914619570
         H           -1.067739228819    -0.771654890751    -0.000042881224     1.007825032230
         C            0.730873771181    -0.021510890751    -0.000084881224    12.000000000000
         H            1.140051771181     0.988811109249    -0.004018881224     1.007825032230
         H            1.096105771181    -0.542166890751     0.893817118776     1.007825032230
         H            1.095672771181    -0.548853890751    -0.890255881224     1.007825032230

  Basis Set: AUG-CC-PVTZ
    Blend: AUG-CC-PVTZ
  Basis Set: (AUG-CC-PVTZ AUX)
    Blend: AUG-CC-PVTZ-JKFIT
	 Reference Energy          =    -115.0919724304429366 [Eh]
	 Singles Energy            =      -0.0000000000000000 [Eh]
	 Same-Spin Energy          =      -0.1052786332011569 [Eh]
	 Opposite-Spin Energy      =      -0.3635613931716758 [Eh]
	 Correlation Energy        =      -0.4688400263728327 [Eh]
	 Total Energy              =    -115.5608124568157677 [Eh]

	 ================> DF-SCS-MP2 Energies <==================
	-----------------------------------------------------------
	 SCS Same-Spin Scale       =       0.3333333333333333 [-]
	 SCS Opposite-Spin Scale   =       1.2000000000000000 [-]
	 SCS Same-Spin Energy      =      -0.0350928777337190 [Eh]
	 SCS Opposite-Spin Energy  =      -0.4362736718060110 [Eh]
	 SCS Correlation Energy    =      -0.4713665495397299 [Eh]
	 SCS Total Energy          =    -115.5633389799826602 [Eh]
	-----------------------------------------------------------

  Dipole Moment: [D]
     X:     0.9230      Y:    -1.3905      Z:    -0.0008     Total:     1.6689

*** Psi4 exiting successfully. Buy a developer a beer!
