                               Psi4 1.3.2 release

  ==> Input File <==

--------------------------------------------------------------------------
#psi4
#
memory 32 gb

molecule  {
0 1
  O       -0.7510110     0.1228100     0.0000050
  H       -1.0926125    -0.6776354     0.0000489
  C        0.6667490    -0.0194660     0.0000120
  H        1.0759270     0.9908560    -0.0039220
  H        1.0319810    -0.5401220     0.8939140
  H        1.0315480    -0.5468090    -0.8901590
units angstrom
no_reorient  #important for SAPT in psi4, default
symmetry c1  #important for SAPT in psi4, default
}

set PROPERTIES_ORIGIN ["COM"]
properties('MP2/aug-cc-pvtz', properties = ['dipole'])
--------------------------------------------------------------------------

    Molecular point group: c1
  Charge       = 0
  Multiplicity = 1
  Basis Set: AUG-CC-PVTZ
    Blend: AUG-CC-PVTZ
  Basis Set: (AUG-CC-PVTZ AUX)
    Blend: AUG-CC-PVTZ-JKFIT

    Orbital Energies [Eh]
    ---------------------

    Doubly Occupied:

       1A    -20.550809     2A    -11.274210     3A     -1.381349
       4A     -0.934543     5A     -0.708643     6A     -0.620918
       7A     -0.594874     8A     -0.511413     9A     -0.455133

  @DF-RHF Final Energy:  -115.08574560065982

   => Energetics <=

    Nuclear Repulsion Energy =             40.7480017163338957
    One-Electron Energy =                -237.6037106539848196
    Two-Electron Energy =                  81.7699633369910970
    Total Energy =                       -115.0857456006598198
  Basis Set: (AUG-CC-PVTZ AUX)
    Blend: AUG-CC-PVTZ-RI
    Molecular point group: c1

    Geometry (in Angstrom), charge = 0, multiplicity = 1:

       Center              X                  Y                   Z               Mass
    ------------   -----------------  -----------------  -----------------  -----------------
         O           -0.690169944561     0.093116239339     0.000001722983    15.994914619570
         H           -1.031771444561    -0.707329160661     0.000045622983     1.007825032230
         C            0.727590055439    -0.049159760661     0.000008722983    12.000000000000
         H            1.136768055439     0.961162239339    -0.003925277017     1.007825032230
         H            1.092822055439    -0.569815760661     0.893910722983     1.007825032230
         H            1.092389055439    -0.576502760661    -0.890162277017     1.007825032230

  Basis Set: AUG-CC-PVTZ
    Blend: AUG-CC-PVTZ
  Basis Set: (AUG-CC-PVTZ AUX)
    Blend: AUG-CC-PVTZ-JKFIT
	 Reference Energy          =    -115.0857456006598198 [Eh]
	 Singles Energy            =      -0.0000000000000000 [Eh]
	 Same-Spin Energy          =      -0.1048382181461104 [Eh]
	 Opposite-Spin Energy      =      -0.3623678405771903 [Eh]
	 Correlation Energy        =      -0.4672060587233007 [Eh]
	 Total Energy              =    -115.5529516593831261 [Eh]

	 ================> DF-SCS-MP2 Energies <==================
	-----------------------------------------------------------
	 SCS Same-Spin Scale       =       0.3333333333333333 [-]
	 SCS Opposite-Spin Scale   =       1.2000000000000000 [-]
	 SCS Same-Spin Energy      =      -0.0349460727153701 [Eh]
	 SCS Opposite-Spin Energy  =      -0.4348414086926283 [Eh]
	 SCS Correlation Energy    =      -0.4697874814079984 [Eh]
	 SCS Total Energy          =    -115.5555330820678250 [Eh]
	-----------------------------------------------------------

  Dipole Moment: [D]
     X:     0.9513      Y:    -1.3971      Z:    -0.0003     Total:     1.6902

*** Psi4 exiting successfully. Buy a developer a beer!
