                               Psi4 1.3.2 release

  ==> Input File <==

--------------------------------------------------------------------------
#psi4
#
memory 32 gb

molecule  {
0 1
  O       -0.7510110     0.1228100     0.0000050
  H       -1.1162311    -0.7761209     0.0000543
  C        0.6667490    -0.0194660     0.0000120
  H        1.0759270     0.9908560    -0.0039220
  H        1.0319810    -0.5401220     0.8939140
  H        1.0315480    -0.5468090    -0.8901590
units angstrom
no_reorient  #important for SAPT in psi4, default
symmetry c1  #important for SAPT in psi4, default
}

set PROPERTIES_ORIGIN ["COM"]
properties('MP2/aug-cc-pvtz', properties = ['dipole'])
--------------------------------------------------------------------------

    Molecular point group: c1
  Charge       = 0
  Multiplicity = 1
  Basis Set: AUG-CC-PVTZ
    Blend: AUG-CC-PVTZ
  Basis Set: (AUG-CC-PVTZ AUX)
    Blend: AUG-CC-PVTZ-JKFIT

    Orbital Energies [Eh]
    ---------------------

    Doubly Occupied:

       1A    -20.561413     2A    -11.272922     3A     -1.355441
       4A     -0.923359     5A     -0.688793     6A     -0.619042
       7A     -0.590678     8A     -0.505715     9A     -0.452129

  @DF-RHF Final Energy:  -115.09103703239185

   => Energetics <=

    Nuclear Repulsion Energy =             40.1844144683237445
    One-Electron Energy =                -236.6119187340289329
    Two-Electron Energy =                  81.3364672333133285
    Total Energy =                       -115.0910370323918528
  Basis Set: (AUG-CC-PVTZ AUX)
    Blend: AUG-CC-PVTZ-RI
    Molecular point group: c1

    Geometry (in Angstrom), charge = 0, multiplicity = 1:

       Center              X                  Y                   Z               Mass
    ------------   -----------------  -----------------  -----------------  -----------------
         O           -0.689426696679     0.096215455184     0.000001553052    15.994914619570
         H           -1.054646796679    -0.802715444816     0.000050853052     1.007825032230
         C            0.728333303321    -0.046060544816     0.000008553052    12.000000000000
         H            1.137511303321     0.964261455184    -0.003925446948     1.007825032230
         H            1.093565303321    -0.566716544816     0.893910553052     1.007825032230
         H            1.093132303321    -0.573403544816    -0.890162446948     1.007825032230

  Basis Set: AUG-CC-PVTZ
    Blend: AUG-CC-PVTZ
  Basis Set: (AUG-CC-PVTZ AUX)
    Blend: AUG-CC-PVTZ-JKFIT
	 Reference Energy          =    -115.0910370323918528 [Eh]
	 Singles Energy            =      -0.0000000000000000 [Eh]
	 Same-Spin Energy          =      -0.1059078968377701 [Eh]
	 Opposite-Spin Energy      =      -0.3652421773368559 [Eh]
	 Correlation Energy        =      -0.4711500741746260 [Eh]
	 Total Energy              =    -115.5621871065664834 [Eh]

	 ================> DF-SCS-MP2 Energies <==================
	-----------------------------------------------------------
	 SCS Same-Spin Scale       =       0.3333333333333333 [-]
	 SCS Opposite-Spin Scale   =       1.2000000000000000 [-]
	 SCS Same-Spin Energy      =      -0.0353026322792567 [Eh]
	 SCS Opposite-Spin Energy  =      -0.4382906128042271 [Eh]
	 SCS Correlation Energy    =      -0.4735932450834838 [Eh]
	 SCS Total Energy          =    -115.5646302774753309 [Eh]
	-----------------------------------------------------------

  Dipole Moment: [D]
     X:     0.9105      Y:    -1.4680      Z:    -0.0003     Total:     1.7275

*** Psi4 exiting successfully. Buy a developer a beer!
