                               Psi4 1.3.2 release

  ==> Input File <==

--------------------------------------------------------------------------
#psi4
#
memory 32 gb

molecule  {
0 1
  O       -0.7283726     0.2702258    -0.0005553
  H       -1.1318640    -0.7696100     0.0000540
  C        0.6667490    -0.0194660     0.0000120
  H        1.0759270     0.9908560    -0.0039220
  H        1.0319810    -0.5401220     0.8939140
  H        1.0315480    -0.5468090    -0.8901590
units angstrom
no_reorient  #important for SAPT in psi4, default
symmetry c1  #important for SAPT in psi4, default
}

set PROPERTIES_ORIGIN ["COM"]
properties('MP2/aug-cc-pvtz', properties = ['dipole'])
--------------------------------------------------------------------------

    Molecular point group: c1
  Charge       = 0
  Multiplicity = 1
  Basis Set: AUG-CC-PVTZ
    Blend: AUG-CC-PVTZ
  Basis Set: (AUG-CC-PVTZ AUX)
    Blend: AUG-CC-PVTZ-JKFIT

    Orbital Energies [Eh]
    ---------------------

    Doubly Occupied:

       1A    -20.578109     2A    -11.271545     3A     -1.335454
       4A     -0.911502     5A     -0.668080     6A     -0.618261
       7A     -0.578834     8A     -0.496626     9A     -0.453199

  @DF-RHF Final Energy:  -115.06347582751158

   => Energetics <=

    Nuclear Repulsion Energy =             39.6281829721776688
    One-Electron Energy =                -235.5600985787152410
    Two-Electron Energy =                  80.8684397790260050
    Total Energy =                       -115.0634758275115814
  Basis Set: (AUG-CC-PVTZ AUX)
    Blend: AUG-CC-PVTZ-RI
    Molecular point group: c1

    Geometry (in Angstrom), charge = 0, multiplicity = 1:

       Center              X                  Y                   Z               Mass
    ------------   -----------------  -----------------  -----------------  -----------------
         O           -0.677602688885     0.169802206040    -0.000278905790    15.994914619570
         H           -1.081094088885    -0.870033593960     0.000330394210     1.007825032230
         C            0.717518911115    -0.119889593960     0.000288394210    12.000000000000
         H            1.126696911115     0.890432406040    -0.003645605790     1.007825032230
         H            1.082750911115    -0.640545593960     0.894190394210     1.007825032230
         H            1.082317911115    -0.647232593960    -0.889882605790     1.007825032230

  Basis Set: AUG-CC-PVTZ
    Blend: AUG-CC-PVTZ
  Basis Set: (AUG-CC-PVTZ AUX)
    Blend: AUG-CC-PVTZ-JKFIT
	 Reference Energy          =    -115.0634758275115814 [Eh]
	 Singles Energy            =      -0.0000000000000000 [Eh]
	 Same-Spin Energy          =      -0.1078601305739618 [Eh]
	 Opposite-Spin Energy      =      -0.3709705586832114 [Eh]
	 Correlation Energy        =      -0.4788306892571733 [Eh]
	 Total Energy              =    -115.5423065167687611 [Eh]

	 ================> DF-SCS-MP2 Energies <==================
	-----------------------------------------------------------
	 SCS Same-Spin Scale       =       0.3333333333333333 [-]
	 SCS Opposite-Spin Scale   =       1.2000000000000000 [-]
	 SCS Same-Spin Energy      =      -0.0359533768579873 [Eh]
	 SCS Opposite-Spin Energy  =      -0.4451646704198537 [Eh]
	 SCS Correlation Energy    =      -0.4811180472778410 [Eh]
	 SCS Total Energy          =    -115.5445938747894274 [Eh]
	-----------------------------------------------------------

  Dipole Moment: [D]
     X:     0.8140      Y:    -1.6521      Z:     0.0010     Total:     1.8417

*** Psi4 exiting successfully. Buy a developer a beer!
