                               Psi4 1.3.2 release

  ==> Input File <==

--------------------------------------------------------------------------
#psi4
#
memory 32 gb

molecule  {
0 1
  O       -0.7581162    -0.0261646     0.0005653
  H       -1.1318640    -0.7696100     0.0000540
  C        0.6667490    -0.0194660     0.0000120
  H        1.0759270     0.9908560    -0.0039220
  H        1.0319810    -0.5401220     0.8939140
  H        1.0315480    -0.5468090    -0.8901590
units angstrom
no_reorient  #important for SAPT in psi4, default
symmetry c1  #important for SAPT in psi4, default
}

set PROPERTIES_ORIGIN ["COM"]
properties('MP2/aug-cc-pvtz', properties = ['dipole'])
--------------------------------------------------------------------------

    Molecular point group: c1
  Charge       = 0
  Multiplicity = 1
  Basis Set: AUG-CC-PVTZ
    Blend: AUG-CC-PVTZ
  Basis Set: (AUG-CC-PVTZ AUX)
    Blend: AUG-CC-PVTZ-JKFIT

    Orbital Energies [Eh]
    ---------------------

    Doubly Occupied:

       1A    -20.540452     2A    -11.277240     3A     -1.385373
       4A     -0.944877     5A     -0.712966     6A     -0.620766
       7A     -0.607422     8A     -0.498890     9A     -0.452211

  @DF-RHF Final Energy:  -115.07308203293239

   => Energetics <=

    Nuclear Repulsion Energy =             40.8920821401814791
    One-Electron Energy =                -237.8499306124347470
    Two-Electron Energy =                  81.8847664393208703
    Total Energy =                       -115.0730820329323905
  Basis Set: (AUG-CC-PVTZ AUX)
    Blend: AUG-CC-PVTZ-RI
    Molecular point group: c1

    Geometry (in Angstrom), charge = 0, multiplicity = 1:

       Center              X                  Y                   Z               Mass
    ------------   -----------------  -----------------  -----------------  -----------------
         O           -0.692491384982     0.021438639036     0.000282030776    15.994914619570
         H           -1.066239184982    -0.722006760964    -0.000229269224     1.007825032230
         C            0.732373815018     0.028137239036    -0.000271269224    12.000000000000
         H            1.141551815018     1.038459239036    -0.004205269224     1.007825032230
         H            1.097605815018    -0.492518760964     0.893630730776     1.007825032230
         H            1.097172815018    -0.499205760964    -0.890442269224     1.007825032230

  Basis Set: AUG-CC-PVTZ
    Blend: AUG-CC-PVTZ
  Basis Set: (AUG-CC-PVTZ AUX)
    Blend: AUG-CC-PVTZ-JKFIT
	 Reference Energy          =    -115.0730820329323905 [Eh]
	 Singles Energy            =      -0.0000000000000000 [Eh]
	 Same-Spin Energy          =      -0.1042505936482764 [Eh]
	 Opposite-Spin Energy      =      -0.3609063535207581 [Eh]
	 Correlation Energy        =      -0.4651569471690344 [Eh]
	 Total Energy              =    -115.5382389801014256 [Eh]

	 ================> DF-SCS-MP2 Energies <==================
	-----------------------------------------------------------
	 SCS Same-Spin Scale       =       0.3333333333333333 [-]
	 SCS Opposite-Spin Scale   =       1.2000000000000000 [-]
	 SCS Same-Spin Energy      =      -0.0347501978827588 [Eh]
	 SCS Opposite-Spin Energy  =      -0.4330876242249097 [Eh]
	 SCS Correlation Energy    =      -0.4678378221076684 [Eh]
	 SCS Total Energy          =    -115.5409198550400589 [Eh]
	-----------------------------------------------------------

  Dipole Moment: [D]
     X:     0.9943      Y:    -1.2245      Z:    -0.0018     Total:     1.5774

*** Psi4 exiting successfully. Buy a developer a beer!
