                               Psi4 1.4a3.dev225

  ==> Input File <==

--------------------------------------------------------------------------
#psi4
#
memory 32 gb

molecule  {
0 1
  O        0.7508650     0.1227030     0.0000000
  H        1.1511376    -0.8156223     0.0000000
  C       -0.6664920    -0.0194720     0.0000000
  H       -1.0749640     0.9910260    -0.0000020
  H       -1.0322630    -0.5430960    -0.8919870
  H       -1.0322640    -0.5430920     0.8919880
units angstrom
no_reorient  #important for SAPT in psi4, default
symmetry c1  #important for SAPT in psi4, default
}

set PROPERTIES_ORIGIN ["COM"]
properties('MP2/aug-cc-pvtz', properties = ['dipole'])
--------------------------------------------------------------------------

    Molecular point group: c1
  Charge       = 0
  Multiplicity = 1
  Basis Set: AUG-CC-PVTZ
    Blend: AUG-CC-PVTZ
  Basis Set: (AUG-CC-PVTZ AUX)
    Blend: AUG-CC-PVTZ-JKFIT

    Orbital Energies [Eh]
    ---------------------

    Doubly Occupied:

       1A    -20.565426     2A    -11.272388     3A     -1.344550
       4A     -0.919309     5A     -0.678868     6A     -0.617868
       7A     -0.589411     8A     -0.501070     9A     -0.450603

  @DF-RHF Final Energy:  -115.08619165448620

   => Energetics <=

    Nuclear Repulsion Energy =             39.9277346239793118
    One-Electron Energy =                -236.1488665632656705
    Two-Electron Energy =                  81.1349402848001517
    Total Energy =                       -115.0861916544861998
  Basis Set: (AUG-CC-PVTZ AUX)
    Blend: AUG-CC-PVTZ-RI
    Molecular point group: c1

    Geometry (in Angstrom), charge = 0, multiplicity = 1:

       Center              X                  Y                   Z               Mass
    ------------   -----------------  -----------------  -----------------  -----------------
         O            0.688159955019     0.097378471378     0.000000031469    15.994914619570
         H            1.088432555019    -0.840946828622     0.000000031469     1.007825032230
         C           -0.729197044981    -0.044796528622     0.000000031469    12.000000000000
         H           -1.137669044981     0.965701471378    -0.000001968531     1.007825032230
         H           -1.094968044981    -0.568420528622    -0.891986968531     1.007825032230
         H           -1.094969044981    -0.568416528622     0.891988031469     1.007825032230

  Basis Set: AUG-CC-PVTZ
    Blend: AUG-CC-PVTZ
  Basis Set: (AUG-CC-PVTZ AUX)
    Blend: AUG-CC-PVTZ-JKFIT
	 Reference Energy          =    -115.0861916544861998 [Eh]
	 Singles Energy            =      -0.0000000000000000 [Eh]
	 Same-Spin Energy          =      -0.1063808057328439 [Eh]
	 Opposite-Spin Energy      =      -0.3666661546191597 [Eh]
	 Correlation Energy        =      -0.4730469603520037 [Eh]
	 Total Energy              =    -115.5592386148382076 [Eh]

	 ================> DF-SCS-MP2 Energies <==================
	-----------------------------------------------------------
	 SCS Same-Spin Scale       =       0.3333333333333333 [-]
	 SCS Opposite-Spin Scale   =       1.2000000000000000 [-]
	 SCS Same-Spin Energy      =      -0.0354602685776146 [Eh]
	 SCS Opposite-Spin Energy  =      -0.4399993855429917 [Eh]
	 SCS Correlation Energy    =      -0.4754596541206063 [Eh]
	 SCS Total Energy          =    -115.5616513086068124 [Eh]
	-----------------------------------------------------------

  Dipole Moment: [D]
     X:    -0.8649      Y:    -1.4948      Z:     0.0000     Total:     1.7270

*** Psi4 exiting successfully. Buy a developer a beer!
