                               Psi4 1.3.2 release

  ==> Input File <==

--------------------------------------------------------------------------
#psi4
#
memory 32 gb

molecule  {
0 1
  O       -0.7376328     0.2213607    -0.0003689
  H       -1.1318640    -0.7696100     0.0000540
  C        0.6667490    -0.0194660     0.0000120
  H        1.0759270     0.9908560    -0.0039220
  H        1.0319810    -0.5401220     0.8939140
  H        1.0315480    -0.5468090    -0.8901590
units angstrom
no_reorient  #important for SAPT in psi4, default
symmetry c1  #important for SAPT in psi4, default
}

set PROPERTIES_ORIGIN ["COM"]
properties('MP2/aug-cc-pvtz', properties = ['dipole'])
--------------------------------------------------------------------------

    Molecular point group: c1
  Charge       = 0
  Multiplicity = 1
  Basis Set: AUG-CC-PVTZ
    Blend: AUG-CC-PVTZ
  Basis Set: (AUG-CC-PVTZ AUX)
    Blend: AUG-CC-PVTZ-JKFIT

    Orbital Energies [Eh]
    ---------------------

    Doubly Occupied:

       1A    -20.572747     2A    -11.271744     3A     -1.340684
       4A     -0.914714     5A     -0.674239     6A     -0.618245
       7A     -0.581859     8A     -0.501292     9A     -0.452557

  @DF-RHF Final Energy:  -115.07592889609754

   => Energetics <=

    Nuclear Repulsion Energy =             39.7915351408326785
    One-Electron Energy =                -235.8787683344172876
    Two-Electron Energy =                  81.0113042974870723
    Total Energy =                       -115.0759288960975368
  Basis Set: (AUG-CC-PVTZ AUX)
    Blend: AUG-CC-PVTZ-RI
    Molecular point group: c1

    Geometry (in Angstrom), charge = 0, multiplicity = 1:

       Center              X                  Y                   Z               Mass
    ------------   -----------------  -----------------  -----------------  -----------------
         O           -0.682238049218     0.145341897818    -0.000185599904    15.994914619570
         H           -1.076469249218    -0.845628802182     0.000237300096     1.007825032230
         C            0.722143750782    -0.095484802182     0.000195300096    12.000000000000
         H            1.131321750782     0.914837197818    -0.003738699904     1.007825032230
         H            1.087375750782    -0.616140802182     0.894097300096     1.007825032230
         H            1.086942750782    -0.622827802182    -0.889975699904     1.007825032230

  Basis Set: AUG-CC-PVTZ
    Blend: AUG-CC-PVTZ
  Basis Set: (AUG-CC-PVTZ AUX)
    Blend: AUG-CC-PVTZ-JKFIT
	 Reference Energy          =    -115.0759288960975368 [Eh]
	 Singles Energy            =      -0.0000000000000000 [Eh]
	 Same-Spin Energy          =      -0.1071791495782512 [Eh]
	 Opposite-Spin Energy      =      -0.3688847385081047 [Eh]
	 Correlation Energy        =      -0.4760638880863559 [Eh]
	 Total Energy              =    -115.5519927841838950 [Eh]

	 ================> DF-SCS-MP2 Energies <==================
	-----------------------------------------------------------
	 SCS Same-Spin Scale       =       0.3333333333333333 [-]
	 SCS Opposite-Spin Scale   =       1.2000000000000000 [-]
	 SCS Same-Spin Energy      =      -0.0357263831927504 [Eh]
	 SCS Opposite-Spin Energy  =      -0.4426616862097256 [Eh]
	 SCS Correlation Energy    =      -0.4783880694024760 [Eh]
	 SCS Total Energy          =    -115.5543169655000071 [Eh]
	-----------------------------------------------------------

  Dipole Moment: [D]
     X:     0.8370      Y:    -1.5945      Z:     0.0006     Total:     1.8009

*** Psi4 exiting successfully. Buy a developer a beer!
