                               Psi4 1.4a3.dev225

  ==> Input File <==

--------------------------------------------------------------------------
#psi4
#
memory 32 gb

molecule  {
0 1
  O        0.7508650     0.1227030     0.0000000
  H        1.1393665    -0.7880281     0.0000000
  C       -0.6664920    -0.0194720     0.0000000
  H       -1.0749640     0.9910260    -0.0000020
  H       -1.0322630    -0.5430960    -0.8919870
  H       -1.0322640    -0.5430920     0.8919880
units angstrom
no_reorient  #important for SAPT in psi4, default
symmetry c1  #important for SAPT in psi4, default
}

set PROPERTIES_ORIGIN ["COM"]
properties('MP2/aug-cc-pvtz', properties = ['dipole'])
--------------------------------------------------------------------------

    Molecular point group: c1
  Charge       = 0
  Multiplicity = 1
  Basis Set: AUG-CC-PVTZ
    Blend: AUG-CC-PVTZ
  Basis Set: (AUG-CC-PVTZ AUX)
    Blend: AUG-CC-PVTZ-JKFIT

    Orbital Energies [Eh]
    ---------------------

    Doubly Occupied:

       1A    -20.562809     2A    -11.272690     3A     -1.350541
       4A     -0.921889     5A     -0.684773     6A     -0.618399
       7A     -0.590446     8A     -0.503302     9A     -0.451355

  @DF-RHF Final Energy:  -115.08966217450890

   => Energetics <=

    Nuclear Repulsion Energy =             40.0755356017853401
    One-Electron Energy =                -236.4179903209272027
    Two-Electron Energy =                  81.2527925446329675
    Total Energy =                       -115.0896621745089021
  Basis Set: (AUG-CC-PVTZ AUX)
    Blend: AUG-CC-PVTZ-RI
    Molecular point group: c1

    Geometry (in Angstrom), charge = 0, multiplicity = 1:

       Center              X                  Y                   Z               Mass
    ------------   -----------------  -----------------  -----------------  -----------------
         O            0.688530376854     0.096510116322     0.000000031469    15.994914619570
         H            1.077031876854    -0.814220983678     0.000000031469     1.007825032230
         C           -0.728826623146    -0.045664883678     0.000000031469    12.000000000000
         H           -1.137298623146     0.964833116322    -0.000001968531     1.007825032230
         H           -1.094597623146    -0.569288883678    -0.891986968531     1.007825032230
         H           -1.094598623146    -0.569284883678     0.891988031469     1.007825032230

  Basis Set: AUG-CC-PVTZ
    Blend: AUG-CC-PVTZ
  Basis Set: (AUG-CC-PVTZ AUX)
    Blend: AUG-CC-PVTZ-JKFIT
	 Reference Energy          =    -115.0896621745089021 [Eh]
	 Singles Energy            =      -0.0000000000000000 [Eh]
	 Same-Spin Energy          =      -0.1060815065002679 [Eh]
	 Opposite-Spin Energy      =      -0.3657538097821910 [Eh]
	 Correlation Energy        =      -0.4718353162824588 [Eh]
	 Total Energy              =    -115.5614974907913677 [Eh]

	 ================> DF-SCS-MP2 Energies <==================
	-----------------------------------------------------------
	 SCS Same-Spin Scale       =       0.3333333333333333 [-]
	 SCS Opposite-Spin Scale   =       1.2000000000000000 [-]
	 SCS Same-Spin Energy      =      -0.0353605021667560 [Eh]
	 SCS Opposite-Spin Energy  =      -0.4389045717386291 [Eh]
	 SCS Correlation Energy    =      -0.4742650739053851 [Eh]
	 SCS Total Energy          =    -115.5639272484142879 [Eh]
	-----------------------------------------------------------

  Dipole Moment: [D]
     X:    -0.8797      Y:    -1.4765      Z:     0.0000     Total:     1.7187

*** Psi4 exiting successfully. Buy a developer a beer!
