                               Psi4 1.4a3.dev225

  ==> Input File <==

--------------------------------------------------------------------------
#psi4
#
memory 32 gb

molecule  {
0 1
  O        0.7508650     0.1227030     0.0000000
  H        1.1119004    -0.7236417     0.0000000
  C       -0.6664920    -0.0194720     0.0000000
  H       -1.0749640     0.9910260    -0.0000020
  H       -1.0322630    -0.5430960    -0.8919870
  H       -1.0322640    -0.5430920     0.8919880
units angstrom
no_reorient  #important for SAPT in psi4, default
symmetry c1  #important for SAPT in psi4, default
}

set PROPERTIES_ORIGIN ["COM"]
properties('MP2/aug-cc-pvtz', properties = ['dipole'])
--------------------------------------------------------------------------

    Molecular point group: c1
  Charge       = 0
  Multiplicity = 1
  Basis Set: AUG-CC-PVTZ
    Blend: AUG-CC-PVTZ
  Basis Set: (AUG-CC-PVTZ AUX)
    Blend: AUG-CC-PVTZ-JKFIT

    Orbital Energies [Eh]
    ---------------------

    Doubly Occupied:

       1A    -20.556126     2A    -11.273497     3A     -1.367141
       4A     -0.928822     5A     -0.698801     6A     -0.619809
       7A     -0.593005     8A     -0.508175     9A     -0.453411

  @DF-RHF Final Energy:  -115.09167322121702

   => Energetics <=

    Nuclear Repulsion Energy =             40.4531027640315202
    One-Electron Energy =                -237.0919809276387298
    Two-Electron Energy =                  81.5472049423901950
    Total Energy =                       -115.0916732212170217
  Basis Set: (AUG-CC-PVTZ AUX)
    Blend: AUG-CC-PVTZ-RI
    Molecular point group: c1

    Geometry (in Angstrom), charge = 0, multiplicity = 1:

       Center              X                  Y                   Z               Mass
    ------------   -----------------  -----------------  -----------------  -----------------
         O            0.689394700763     0.094483956622     0.000000031469    15.994914619570
         H            1.050430100763    -0.751860743378     0.000000031469     1.007825032230
         C           -0.727962299237    -0.047691043378     0.000000031469    12.000000000000
         H           -1.136434299237     0.962806956622    -0.000001968531     1.007825032230
         H           -1.093733299237    -0.571315043378    -0.891986968531     1.007825032230
         H           -1.093734299237    -0.571311043378     0.891988031469     1.007825032230

  Basis Set: AUG-CC-PVTZ
    Blend: AUG-CC-PVTZ
  Basis Set: (AUG-CC-PVTZ AUX)
    Blend: AUG-CC-PVTZ-JKFIT
	 Reference Energy          =    -115.0916732212170217 [Eh]
	 Singles Energy            =      -0.0000000000000000 [Eh]
	 Same-Spin Energy          =      -0.1053596198986858 [Eh]
	 Opposite-Spin Energy      =      -0.3637204486238294 [Eh]
	 Correlation Energy        =      -0.4690800685225151 [Eh]
	 Total Energy              =    -115.5607532897395373 [Eh]

	 ================> DF-SCS-MP2 Energies <==================
	-----------------------------------------------------------
	 SCS Same-Spin Scale       =       0.3333333333333333 [-]
	 SCS Opposite-Spin Scale   =       1.2000000000000000 [-]
	 SCS Same-Spin Energy      =      -0.0351198732995619 [Eh]
	 SCS Opposite-Spin Energy  =      -0.4364645383485952 [Eh]
	 SCS Correlation Energy    =      -0.4715844116481571 [Eh]
	 SCS Total Energy          =    -115.5632576328651737 [Eh]
	-----------------------------------------------------------

  Dipole Moment: [D]
     X:    -0.9185      Y:    -1.4310      Z:     0.0000     Total:     1.7004

*** Psi4 exiting successfully. Buy a developer a beer!
