                               Psi4 1.3.2 release

  ==> Input File <==

--------------------------------------------------------------------------
#psi4
#
memory 32 gb

molecule  {
0 1
  O       -0.7510110     0.1228100     0.0000050
  H       -1.1318640    -0.7696100     0.0000540
  C        0.6667490    -0.0194660     0.0000120
  H        1.0759270     0.9908560    -0.0039220
  H        1.0319810    -0.5401220     0.8939140
  H        1.0315480    -0.5468090    -0.8901590
units angstrom
no_reorient  #important for SAPT in psi4, default
symmetry c1  #important for SAPT in psi4, default
}

set PROPERTIES_ORIGIN ["COM"]
properties('MP2/aug-cc-pvtz', properties = ['dipole'])
--------------------------------------------------------------------------

    Molecular point group: c1
  Charge       = 0
  Multiplicity = 1
  Basis Set: AUG-CC-PVTZ
    Blend: AUG-CC-PVTZ
  Basis Set: (AUG-CC-PVTZ AUX)
    Blend: AUG-CC-PVTZ-JKFIT

    Orbital Energies [Eh]
    ---------------------

    Doubly Occupied:

       1A    -20.560962     2A    -11.272962     3A     -1.354692
       4A     -0.923722     5A     -0.688601     6A     -0.618745
       7A     -0.591090     8A     -0.504744     9A     -0.451907

  @DF-RHF Final Energy:  -115.09119347614136

   => Energetics <=

    Nuclear Repulsion Energy =             40.1712309596579260
    One-Electron Energy =                -236.5899994572654919
    Two-Electron Energy =                  81.3275750214662168
    Total Energy =                       -115.0911934761413562
  Basis Set: (AUG-CC-PVTZ AUX)
    Blend: AUG-CC-PVTZ-RI
    Molecular point group: c1

    Geometry (in Angstrom), charge = 0, multiplicity = 1:

       Center              X                  Y                   Z               Mass
    ------------   -----------------  -----------------  -----------------  -----------------
         O           -0.688934748814     0.096010565282     0.000001562493    15.994914619570
         H           -1.069787748814    -0.796409434718     0.000050562493     1.007825032230
         C            0.728825251186    -0.046265434718     0.000008562493    12.000000000000
         H            1.138003251186     0.964056565282    -0.003925437507     1.007825032230
         H            1.094057251186    -0.566921434718     0.893910562493     1.007825032230
         H            1.093624251186    -0.573608434718    -0.890162437507     1.007825032230

  Basis Set: AUG-CC-PVTZ
    Blend: AUG-CC-PVTZ
  Basis Set: (AUG-CC-PVTZ AUX)
    Blend: AUG-CC-PVTZ-JKFIT
	 Reference Energy          =    -115.0911934761413562 [Eh]
	 Singles Energy            =      -0.0000000000000000 [Eh]
	 Same-Spin Energy          =      -0.1058784328071668 [Eh]
	 Opposite-Spin Energy      =      -0.3651698297579626 [Eh]
	 Correlation Energy        =      -0.4710482625651294 [Eh]
	 Total Energy              =    -115.5622417387064900 [Eh]

	 ================> DF-SCS-MP2 Energies <==================
	-----------------------------------------------------------
	 SCS Same-Spin Scale       =       0.3333333333333333 [-]
	 SCS Opposite-Spin Scale   =       1.2000000000000000 [-]
	 SCS Same-Spin Energy      =      -0.0352928109357223 [Eh]
	 SCS Opposite-Spin Energy  =      -0.4382037957095551 [Eh]
	 SCS Correlation Energy    =      -0.4734966066452774 [Eh]
	 SCS Total Energy          =    -115.5646900827866403 [Eh]
	-----------------------------------------------------------

  Dipole Moment: [D]
     X:     0.8914      Y:    -1.4641      Z:    -0.0003     Total:     1.7141

*** Psi4 exiting successfully. Buy a developer a beer!
