                               Psi4 1.3.2 release

  ==> Input File <==

--------------------------------------------------------------------------
#psi4
#
memory 32 gb

molecule  {
0 1
  O       -0.7510110     0.1228100     0.0000050
  H       -1.1318640    -0.7696100     0.0000540
  C        0.5672488    -0.0094809     0.0000115
  H        1.0759270     0.9908560    -0.0039220
  H        1.0319810    -0.5401220     0.8939140
  H        1.0315480    -0.5468090    -0.8901590
units angstrom
no_reorient  #important for SAPT in psi4, default
symmetry c1  #important for SAPT in psi4, default
}

set PROPERTIES_ORIGIN ["COM"]
properties('MP2/aug-cc-pvtz', properties = ['dipole'])
--------------------------------------------------------------------------

    Molecular point group: c1
  Charge       = 0
  Multiplicity = 1
  Basis Set: AUG-CC-PVTZ
    Blend: AUG-CC-PVTZ
  Basis Set: (AUG-CC-PVTZ AUX)
    Blend: AUG-CC-PVTZ-JKFIT

    Orbital Energies [Eh]
    ---------------------

    Doubly Occupied:

       1A    -20.570698     2A    -11.277722     3A     -1.400409
       4A     -0.913067     5A     -0.714249     6A     -0.625670
       7A     -0.621701     8A     -0.484946     9A     -0.437045

  @DF-RHF Final Energy:  -115.08200170313036

   => Energetics <=

    Nuclear Repulsion Energy =             41.2979589212133433
    One-Electron Energy =                -238.6689035037979352
    Two-Electron Energy =                  82.2889428794542397
    Total Energy =                       -115.0820017031303593
  Basis Set: (AUG-CC-PVTZ AUX)
    Blend: AUG-CC-PVTZ-RI
    Molecular point group: c1

    Geometry (in Angstrom), charge = 0, multiplicity = 1:

       Center              X                  Y                   Z               Mass
    ------------   -----------------  -----------------  -----------------  -----------------
         O           -0.651652715662     0.092269217735     0.000001749839    15.994914619570
         H           -1.032505715662    -0.800150782265     0.000050749839     1.007825032230
         C            0.666607084338    -0.040021682265     0.000008249839    12.000000000000
         H            1.175285284338     0.960315217735    -0.003925250161     1.007825032230
         H            1.131339284338    -0.570662782265     0.893910749839     1.007825032230
         H            1.130906284338    -0.577349782265    -0.890162250161     1.007825032230

  Basis Set: AUG-CC-PVTZ
    Blend: AUG-CC-PVTZ
  Basis Set: (AUG-CC-PVTZ AUX)
    Blend: AUG-CC-PVTZ-JKFIT
	 Reference Energy          =    -115.0820017031303593 [Eh]
	 Singles Energy            =      -0.0000000000000000 [Eh]
	 Same-Spin Energy          =      -0.1060086308421611 [Eh]
	 Opposite-Spin Energy      =      -0.3640665987537211 [Eh]
	 Correlation Energy        =      -0.4700752295958822 [Eh]
	 Total Energy              =    -115.5520769327262371 [Eh]

	 ================> DF-SCS-MP2 Energies <==================
	-----------------------------------------------------------
	 SCS Same-Spin Scale       =       0.3333333333333333 [-]
	 SCS Opposite-Spin Scale   =       1.2000000000000000 [-]
	 SCS Same-Spin Energy      =      -0.0353362102807204 [Eh]
	 SCS Opposite-Spin Energy  =      -0.4368799185044653 [Eh]
	 SCS Correlation Energy    =      -0.4722161287851857 [Eh]
	 SCS Total Energy          =    -115.5542178319155511 [Eh]
	-----------------------------------------------------------

  Dipole Moment: [D]
     X:     0.4575      Y:    -1.4324      Z:    -0.0005     Total:     1.5037

*** Psi4 exiting successfully. Buy a developer a beer!
