                               Psi4 1.3.2 release

  ==> Input File <==

--------------------------------------------------------------------------
#psi4
#
memory 32 gb

molecule  {
0 1
  O       -0.7574820     0.0235662     0.0003789
  H       -1.1318640    -0.7696100     0.0000540
  C        0.6667490    -0.0194660     0.0000120
  H        1.0759270     0.9908560    -0.0039220
  H        1.0319810    -0.5401220     0.8939140
  H        1.0315480    -0.5468090    -0.8901590
units angstrom
no_reorient  #important for SAPT in psi4, default
symmetry c1  #important for SAPT in psi4, default
}

set PROPERTIES_ORIGIN ["COM"]
properties('MP2/aug-cc-pvtz', properties = ['dipole'])
--------------------------------------------------------------------------

    Molecular point group: c1
  Charge       = 0
  Multiplicity = 1
  Basis Set: AUG-CC-PVTZ
    Blend: AUG-CC-PVTZ
  Basis Set: (AUG-CC-PVTZ AUX)
    Blend: AUG-CC-PVTZ-JKFIT

    Orbital Energies [Eh]
    ---------------------

    Doubly Occupied:

       1A    -20.547648     2A    -11.275452     3A     -1.373850
       4A     -0.936762     5A     -0.704756     6A     -0.619934
       7A     -0.602123     8A     -0.501928     9A     -0.451980

  @DF-RHF Final Energy:  -115.08645800519389

   => Energetics <=

    Nuclear Repulsion Energy =             40.6301353331642758
    One-Electron Energy =                -237.4043201701455814
    Two-Electron Energy =                  81.6877268317874154
    Total Energy =                       -115.0864580051938901
  Basis Set: (AUG-CC-PVTZ AUX)
    Blend: AUG-CC-PVTZ-RI
    Molecular point group: c1

    Geometry (in Angstrom), charge = 0, multiplicity = 1:

       Center              X                  Y                   Z               Mass
    ------------   -----------------  -----------------  -----------------  -----------------
         O           -0.692173924719     0.046332289026     0.000188724890    15.994914619570
         H           -1.066555924719    -0.746843910974    -0.000136175110     1.007825032230
         C            0.732057075281     0.003300089026    -0.000178175110    12.000000000000
         H            1.141235075281     1.013622089026    -0.004112175110     1.007825032230
         H            1.097289075281    -0.517355910974     0.893723824890     1.007825032230
         H            1.096856075281    -0.524042910974    -0.890349175110     1.007825032230

  Basis Set: AUG-CC-PVTZ
    Blend: AUG-CC-PVTZ
  Basis Set: (AUG-CC-PVTZ AUX)
    Blend: AUG-CC-PVTZ-JKFIT
	 Reference Energy          =    -115.0864580051938901 [Eh]
	 Singles Energy            =      -0.0000000000000000 [Eh]
	 Same-Spin Energy          =      -0.1047309657155069 [Eh]
	 Opposite-Spin Energy      =      -0.3621353969118257 [Eh]
	 Correlation Energy        =      -0.4668663626273327 [Eh]
	 Total Energy              =    -115.5533243678212187 [Eh]

	 ================> DF-SCS-MP2 Energies <==================
	-----------------------------------------------------------
	 SCS Same-Spin Scale       =       0.3333333333333333 [-]
	 SCS Opposite-Spin Scale   =       1.2000000000000000 [-]
	 SCS Same-Spin Energy      =      -0.0349103219051690 [Eh]
	 SCS Opposite-Spin Energy  =      -0.4345624762941909 [Eh]
	 SCS Correlation Energy    =      -0.4694727981993598 [Eh]
	 SCS Total Energy          =    -115.5559308033932524 [Eh]
	-----------------------------------------------------------

  Dipole Moment: [D]
     X:     0.9575      Y:    -1.3107      Z:    -0.0013     Total:     1.6231

*** Psi4 exiting successfully. Buy a developer a beer!
