                               Psi4 1.3.2 release

  ==> Input File <==

--------------------------------------------------------------------------
#psi4
#
memory 32 gb

molecule  {
0 1
  O       -0.7510110     0.1228100     0.0000050
  H       -1.1711155    -0.8615846     0.0000591
  C        0.6667490    -0.0194660     0.0000120
  H        1.0759270     0.9908560    -0.0039220
  H        1.0319810    -0.5401220     0.8939140
  H        1.0315480    -0.5468090    -0.8901590
units angstrom
no_reorient  #important for SAPT in psi4, default
symmetry c1  #important for SAPT in psi4, default
}

set PROPERTIES_ORIGIN ["COM"]
properties('MP2/aug-cc-pvtz', properties = ['dipole'])
--------------------------------------------------------------------------

    Molecular point group: c1
  Charge       = 0
  Multiplicity = 1
  Basis Set: AUG-CC-PVTZ
    Blend: AUG-CC-PVTZ
  Basis Set: (AUG-CC-PVTZ AUX)
    Blend: AUG-CC-PVTZ-JKFIT

    Orbital Energies [Eh]
    ---------------------

    Doubly Occupied:

       1A    -20.569471     2A    -11.272004     3A     -1.335670
       4A     -0.915498     5A     -0.669166     6A     -0.617056
       7A     -0.587709     8A     -0.497139     9A     -0.449536

  @DF-RHF Final Energy:  -115.07794965649317

   => Energetics <=

    Nuclear Repulsion Energy =             39.6904369867304894
    One-Electron Energy =                -235.7102767108426065
    Two-Electron Energy =                  80.9418900676189281
    Total Energy =                       -115.0779496564931748
  Basis Set: (AUG-CC-PVTZ AUX)
    Blend: AUG-CC-PVTZ-RI
    Molecular point group: c1

    Geometry (in Angstrom), charge = 0, multiplicity = 1:

       Center              X                  Y                   Z               Mass
    ------------   -----------------  -----------------  -----------------  -----------------
         O           -0.687699553067     0.098904891226     0.000001402002    15.994914619570
         H           -1.107804053067    -0.885489708774     0.000055502002     1.007825032230
         C            0.730060446933    -0.043371108774     0.000008402002    12.000000000000
         H            1.139238446933     0.966950891226    -0.003925597998     1.007825032230
         H            1.095292446933    -0.564027108774     0.893910402002     1.007825032230
         H            1.094859446933    -0.570714108774    -0.890162597998     1.007825032230

  Basis Set: AUG-CC-PVTZ
    Blend: AUG-CC-PVTZ
  Basis Set: (AUG-CC-PVTZ AUX)
    Blend: AUG-CC-PVTZ-JKFIT
	 Reference Energy          =    -115.0779496564931748 [Eh]
	 Singles Energy            =      -0.0000000000000000 [Eh]
	 Same-Spin Energy          =      -0.1068608729045049 [Eh]
	 Opposite-Spin Energy      =      -0.3682498064508036 [Eh]
	 Correlation Energy        =      -0.4751106793553085 [Eh]
	 Total Energy              =    -115.5530603358484854 [Eh]

	 ================> DF-SCS-MP2 Energies <==================
	-----------------------------------------------------------
	 SCS Same-Spin Scale       =       0.3333333333333333 [-]
	 SCS Opposite-Spin Scale   =       1.2000000000000000 [-]
	 SCS Same-Spin Energy      =      -0.0356202909681683 [Eh]
	 SCS Opposite-Spin Energy  =      -0.4418997677409643 [Eh]
	 SCS Correlation Energy    =      -0.4775200587091326 [Eh]
	 SCS Total Energy          =    -115.5554697152023067 [Eh]
	-----------------------------------------------------------

  Dipole Moment: [D]
     X:     0.8443      Y:    -1.5239      Z:    -0.0003     Total:     1.7422

*** Psi4 exiting successfully. Buy a developer a beer!
