                               Psi4 1.4a3.dev225

  ==> Input File <==

--------------------------------------------------------------------------
#psi4
#
memory 32 gb

molecule  {
0 1
  O        0.7508650     0.1227030     0.0000000
  H        1.1315190    -0.7696320     0.0000000
  C       -0.6167417    -0.0144815     0.0000000
  H       -1.0749640     0.9910260    -0.0000020
  H       -1.0322630    -0.5430960    -0.8919870
  H       -1.0322640    -0.5430920     0.8919880
units angstrom
no_reorient  #important for SAPT in psi4, default
symmetry c1  #important for SAPT in psi4, default
}

set PROPERTIES_ORIGIN ["COM"]
properties('MP2/aug-cc-pvtz', properties = ['dipole'])
--------------------------------------------------------------------------

    Molecular point group: c1
  Charge       = 0
  Multiplicity = 1
  Basis Set: AUG-CC-PVTZ
    Blend: AUG-CC-PVTZ
  Basis Set: (AUG-CC-PVTZ AUX)
    Blend: AUG-CC-PVTZ-JKFIT

    Orbital Energies [Eh]
    ---------------------

    Doubly Occupied:

       1A    -20.565664     2A    -11.274726     3A     -1.376207
       4A     -0.918107     5A     -0.700853     6A     -0.620527
       7A     -0.605788     8A     -0.496039     9A     -0.445634

  @DF-RHF Final Energy:  -115.08934823947142

   => Energetics <=

    Nuclear Repulsion Energy =             40.7217368111507199
    One-Electron Energy =                -237.6150802849123238
    Two-Electron Energy =                  81.8039952342901842
    Total Energy =                       -115.0893482394714198
  Basis Set: (AUG-CC-PVTZ AUX)
    Blend: AUG-CC-PVTZ-RI
    Molecular point group: c1

    Geometry (in Angstrom), charge = 0, multiplicity = 1:

       Center              X                  Y                   Z               Mass
    ------------   -----------------  -----------------  -----------------  -----------------
         O            0.670136236376     0.094061308347     0.000000031469    15.994914619570
         H            1.050790236376    -0.798273691653     0.000000031469     1.007825032230
         C           -0.697470463624    -0.043123191653     0.000000031469    12.000000000000
         H           -1.155692763624     0.962384308347    -0.000001968531     1.007825032230
         H           -1.112991763624    -0.571737691653    -0.891986968531     1.007825032230
         H           -1.112992763624    -0.571733691653     0.891988031469     1.007825032230

  Basis Set: AUG-CC-PVTZ
    Blend: AUG-CC-PVTZ
  Basis Set: (AUG-CC-PVTZ AUX)
    Blend: AUG-CC-PVTZ-JKFIT
	 Reference Energy          =    -115.0893482394714198 [Eh]
	 Singles Energy            =      -0.0000000000000000 [Eh]
	 Same-Spin Energy          =      -0.1058883084922745 [Eh]
	 Opposite-Spin Energy      =      -0.3645005218497996 [Eh]
	 Correlation Energy        =      -0.4703888303420741 [Eh]
	 Total Energy              =    -115.5597370698134938 [Eh]

	 ================> DF-SCS-MP2 Energies <==================
	-----------------------------------------------------------
	 SCS Same-Spin Scale       =       0.3333333333333333 [-]
	 SCS Opposite-Spin Scale   =       1.2000000000000000 [-]
	 SCS Same-Spin Energy      =      -0.0352961028307582 [Eh]
	 SCS Opposite-Spin Energy  =      -0.4374006262197595 [Eh]
	 SCS Correlation Energy    =      -0.4726967290505177 [Eh]
	 SCS Total Energy          =    -115.5620449685219313 [Eh]
	-----------------------------------------------------------

  Dipole Moment: [D]
     X:    -0.6857      Y:    -1.4502      Z:     0.0000     Total:     1.6041

*** Psi4 exiting successfully. Buy a developer a beer!
