                               Psi4 1.4a3.dev225

  ==> Input File <==

--------------------------------------------------------------------------
#psi4
#
memory 32 gb

molecule  {
0 1
  O        0.7508650     0.1227030     0.0000000
  H        1.1236715    -0.7512359     0.0000000
  C       -0.6664920    -0.0194720     0.0000000
  H       -1.0749640     0.9910260    -0.0000020
  H       -1.0322630    -0.5430960    -0.8919870
  H       -1.0322640    -0.5430920     0.8919880
units angstrom
no_reorient  #important for SAPT in psi4, default
symmetry c1  #important for SAPT in psi4, default
}

set PROPERTIES_ORIGIN ["COM"]
properties('MP2/aug-cc-pvtz', properties = ['dipole'])
--------------------------------------------------------------------------

    Molecular point group: c1
  Charge       = 0
  Multiplicity = 1
  Basis Set: AUG-CC-PVTZ
    Blend: AUG-CC-PVTZ
  Basis Set: (AUG-CC-PVTZ AUX)
    Blend: AUG-CC-PVTZ-JKFIT

    Orbital Energies [Eh]
    ---------------------

    Doubly Occupied:

       1A    -20.559092     2A    -11.273134     3A     -1.359550
       4A     -0.925691     5A     -0.692768     6A     -0.619176
       7A     -0.591885     8A     -0.506139     9A     -0.452479

  @DF-RHF Final Energy:  -115.09203227374542

   => Energetics <=

    Nuclear Repulsion Energy =             40.2852842252866523
    One-Electron Energy =                -236.7948039453152944
    Two-Electron Energy =                  81.4174874462832179
    Total Energy =                       -115.0920322737454171
  Basis Set: (AUG-CC-PVTZ AUX)
    Blend: AUG-CC-PVTZ-RI
    Molecular point group: c1

    Geometry (in Angstrom), charge = 0, multiplicity = 1:

       Center              X                  Y                   Z               Mass
    ------------   -----------------  -----------------  -----------------  -----------------
         O            0.689024278928     0.095352311678     0.000000031469    15.994914619570
         H            1.061830778928    -0.778586588322     0.000000031469     1.007825032230
         C           -0.728332721072    -0.046822688322     0.000000031469    12.000000000000
         H           -1.136804721072     0.963675311678    -0.000001968531     1.007825032230
         H           -1.094103721072    -0.570446688322    -0.891986968531     1.007825032230
         H           -1.094104721072    -0.570442688322     0.891988031469     1.007825032230

  Basis Set: AUG-CC-PVTZ
    Blend: AUG-CC-PVTZ
  Basis Set: (AUG-CC-PVTZ AUX)
    Blend: AUG-CC-PVTZ-JKFIT
	 Reference Energy          =    -115.0920322737454171 [Eh]
	 Singles Energy            =      -0.0000000000000000 [Eh]
	 Same-Spin Energy          =      -0.1056719073885903 [Eh]
	 Opposite-Spin Energy      =      -0.3645749762568764 [Eh]
	 Correlation Energy        =      -0.4702468836454666 [Eh]
	 Total Energy              =    -115.5622791573908898 [Eh]

	 ================> DF-SCS-MP2 Energies <==================
	-----------------------------------------------------------
	 SCS Same-Spin Scale       =       0.3333333333333333 [-]
	 SCS Opposite-Spin Scale   =       1.2000000000000000 [-]
	 SCS Same-Spin Energy      =      -0.0352239691295301 [Eh]
	 SCS Opposite-Spin Energy  =      -0.4374899715082517 [Eh]
	 SCS Correlation Energy    =      -0.4727139406377818 [Eh]
	 SCS Total Energy          =    -115.5647462143832058 [Eh]
	-----------------------------------------------------------

  Dipole Moment: [D]
     X:    -0.9011      Y:    -1.4509      Z:     0.0000     Total:     1.7079

*** Psi4 exiting successfully. Buy a developer a beer!
