                               Psi4 1.3.2 release

  ==> Input File <==

--------------------------------------------------------------------------
#psi4
#
memory 32 gb

molecule  {
0 1
  O       -0.7510110     0.1228100     0.0000050
  H       -1.1318640    -0.7696100     0.0000540
  C        0.8657495    -0.0394362     0.0000130
  H        1.0759270     0.9908560    -0.0039220
  H        1.0319810    -0.5401220     0.8939140
  H        1.0315480    -0.5468090    -0.8901590
units angstrom
no_reorient  #important for SAPT in psi4, default
symmetry c1  #important for SAPT in psi4, default
}

set PROPERTIES_ORIGIN ["COM"]
properties('MP2/aug-cc-pvtz', properties = ['dipole'])
--------------------------------------------------------------------------

    Molecular point group: c1
  Charge       = 0
  Multiplicity = 1
  Basis Set: AUG-CC-PVTZ
    Blend: AUG-CC-PVTZ
  Basis Set: (AUG-CC-PVTZ AUX)
    Blend: AUG-CC-PVTZ-JKFIT

    Orbital Energies [Eh]
    ---------------------

    Doubly Occupied:

       1A    -20.543056     2A    -11.276895     3A     -1.292636
       4A     -0.946976     5A     -0.659411     6A     -0.635546
       7A     -0.565260     8A     -0.492291     9A     -0.455831

  @DF-RHF Final Energy:  -115.06185448180076

   => Energetics <=

    Nuclear Repulsion Energy =             38.2769755135394973
    One-Electron Energy =                -232.9418551481618067
    Two-Electron Energy =                  79.6030251528215445
    Total Energy =                       -115.0618544818007649
  Basis Set: (AUG-CC-PVTZ AUX)
    Blend: AUG-CC-PVTZ-RI
    Molecular point group: c1

    Geometry (in Angstrom), charge = 0, multiplicity = 1:

       Center              X                  Y                   Z               Mass
    ------------   -----------------  -----------------  -----------------  -----------------
         O           -0.763498852589     0.103493260377     0.000001187800    15.994914619570
         H           -1.144351852589    -0.788926739623     0.000050187800     1.007825032230
         C            0.853261647411    -0.058752939623     0.000009187800    12.000000000000
         H            1.063439147411     0.971539260377    -0.003925812200     1.007825032230
         H            1.019493147411    -0.559438739623     0.893910187800     1.007825032230
         H            1.019060147411    -0.566125739623    -0.890162812200     1.007825032230

  Basis Set: AUG-CC-PVTZ
    Blend: AUG-CC-PVTZ
  Basis Set: (AUG-CC-PVTZ AUX)
    Blend: AUG-CC-PVTZ-JKFIT
	 Reference Energy          =    -115.0618544818007649 [Eh]
	 Singles Energy            =      -0.0000000000000000 [Eh]
	 Same-Spin Energy          =      -0.1067965474194131 [Eh]
	 Opposite-Spin Energy      =      -0.3697036191342798 [Eh]
	 Correlation Energy        =      -0.4765001665536929 [Eh]
	 Total Energy              =    -115.5383546483544563 [Eh]

	 ================> DF-SCS-MP2 Energies <==================
	-----------------------------------------------------------
	 SCS Same-Spin Scale       =       0.3333333333333333 [-]
	 SCS Opposite-Spin Scale   =       1.2000000000000000 [-]
	 SCS Same-Spin Energy      =      -0.0355988491398044 [Eh]
	 SCS Opposite-Spin Energy  =      -0.4436443429611358 [Eh]
	 SCS Correlation Energy    =      -0.4792431921009401 [Eh]
	 SCS Total Energy          =    -115.5410976739017030 [Eh]
	-----------------------------------------------------------

  Dipole Moment: [D]
     X:     1.5130      Y:    -1.4839      Z:    -0.0000     Total:     2.1192

*** Psi4 exiting successfully. Buy a developer a beer!
