                               Psi4 1.3.2 release

  ==> Input File <==

--------------------------------------------------------------------------
#psi4
#
memory 32 gb

molecule  {
0 1
  O       -0.7510110     0.1228100     0.0000050
  H       -1.1004870    -0.7823579     0.0000547
  C        0.6667490    -0.0194660     0.0000120
  H        1.0759270     0.9908560    -0.0039220
  H        1.0319810    -0.5401220     0.8939140
  H        1.0315480    -0.5468090    -0.8901590
units angstrom
no_reorient  #important for SAPT in psi4, default
symmetry c1  #important for SAPT in psi4, default
}

set PROPERTIES_ORIGIN ["COM"]
properties('MP2/aug-cc-pvtz', properties = ['dipole'])
--------------------------------------------------------------------------

    Molecular point group: c1
  Charge       = 0
  Multiplicity = 1
  Basis Set: AUG-CC-PVTZ
    Blend: AUG-CC-PVTZ
  Basis Set: (AUG-CC-PVTZ AUX)
    Blend: AUG-CC-PVTZ-JKFIT

    Orbital Energies [Eh]
    ---------------------

    Doubly Occupied:

       1A    -20.561850     2A    -11.272901     3A     -1.356194
       4A     -0.923000     5A     -0.689002     6A     -0.619346
       7A     -0.590266     8A     -0.506653     9A     -0.452347

  @DF-RHF Final Energy:  -115.09081869077991

   => Energetics <=

    Nuclear Repulsion Energy =             40.1979011814268006
    One-Electron Energy =                -236.6343246170739576
    Two-Electron Energy =                  81.3456047448672450
    Total Energy =                       -115.0908186907799120
  Basis Set: (AUG-CC-PVTZ AUX)
    Blend: AUG-CC-PVTZ-RI
    Molecular point group: c1

    Geometry (in Angstrom), charge = 0, multiplicity = 1:

       Center              X                  Y                   Z               Mass
    ------------   -----------------  -----------------  -----------------  -----------------
         O           -0.689922143868     0.096411725795     0.000001540465    15.994914619570
         H           -1.039398143868    -0.808756174205     0.000051240465     1.007825032230
         C            0.727837856132    -0.045864274205     0.000008540465    12.000000000000
         H            1.137015856132     0.964457725795    -0.003925459535     1.007825032230
         H            1.093069856132    -0.566520274205     0.893910540465     1.007825032230
         H            1.092636856132    -0.573207274205    -0.890162459535     1.007825032230

  Basis Set: AUG-CC-PVTZ
    Blend: AUG-CC-PVTZ
  Basis Set: (AUG-CC-PVTZ AUX)
    Blend: AUG-CC-PVTZ-JKFIT
	 Reference Energy          =    -115.0908186907799120 [Eh]
	 Singles Energy            =      -0.0000000000000000 [Eh]
	 Same-Spin Energy          =      -0.1059400458578514 [Eh]
	 Opposite-Spin Energy      =      -0.3653182642568940 [Eh]
	 Correlation Energy        =      -0.4712583101147454 [Eh]
	 Total Energy              =    -115.5620770008946607 [Eh]

	 ================> DF-SCS-MP2 Energies <==================
	-----------------------------------------------------------
	 SCS Same-Spin Scale       =       0.3333333333333333 [-]
	 SCS Opposite-Spin Scale   =       1.2000000000000000 [-]
	 SCS Same-Spin Energy      =      -0.0353133486192838 [Eh]
	 SCS Opposite-Spin Energy  =      -0.4383819171082727 [Eh]
	 SCS Correlation Energy    =      -0.4736952657275565 [Eh]
	 SCS Total Energy          =    -115.5645139565074686 [Eh]
	-----------------------------------------------------------

  Dipole Moment: [D]
     X:     0.9297      Y:    -1.4715      Z:    -0.0003     Total:     1.7406

*** Psi4 exiting successfully. Buy a developer a beer!
