                               Psi4 1.3.2 release

  ==> Input File <==

--------------------------------------------------------------------------
#psi4
#
memory 32 gb

molecule  {
0 1
  O       -0.7510110     0.1228100     0.0000050
  H       -1.1931883    -0.7408691     0.0000525
  C        0.6667490    -0.0194660     0.0000120
  H        1.0759270     0.9908560    -0.0039220
  H        1.0319810    -0.5401220     0.8939140
  H        1.0315480    -0.5468090    -0.8901590
units angstrom
no_reorient  #important for SAPT in psi4, default
symmetry c1  #important for SAPT in psi4, default
}

set PROPERTIES_ORIGIN ["COM"]
properties('MP2/aug-cc-pvtz', properties = ['dipole'])
--------------------------------------------------------------------------

    Molecular point group: c1
  Charge       = 0
  Multiplicity = 1
  Basis Set: AUG-CC-PVTZ
    Blend: AUG-CC-PVTZ
  Basis Set: (AUG-CC-PVTZ AUX)
    Blend: AUG-CC-PVTZ-JKFIT

    Orbital Energies [Eh]
    ---------------------

    Doubly Occupied:

       1A    -20.559008     2A    -11.273298     3A     -1.351738
       4A     -0.925199     5A     -0.687971     6A     -0.617625
       7A     -0.592726     8A     -0.500566     9A     -0.450986

  @DF-RHF Final Energy:  -115.09122264360271

   => Energetics <=

    Nuclear Repulsion Energy =             40.1214038336155951
    One-Electron Energy =                -236.5070159562756658
    Two-Electron Energy =                  81.2943894790573580
    Total Energy =                       -115.0912226436027055
  Basis Set: (AUG-CC-PVTZ AUX)
    Blend: AUG-CC-PVTZ-RI
    Molecular point group: c1

    Geometry (in Angstrom), charge = 0, multiplicity = 1:

       Center              X                  Y                   Z               Mass
    ------------   -----------------  -----------------  -----------------  -----------------
         O           -0.687004949582     0.095106125008     0.000001609696    15.994914619570
         H           -1.129182249582    -0.768572974992     0.000049109696     1.007825032230
         C            0.730755050418    -0.047169874992     0.000008609696    12.000000000000
         H            1.139933050418     0.963152125008    -0.003925390304     1.007825032230
         H            1.095987050418    -0.567825874992     0.893910609696     1.007825032230
         H            1.095554050418    -0.574512874992    -0.890162390304     1.007825032230

  Basis Set: AUG-CC-PVTZ
    Blend: AUG-CC-PVTZ
  Basis Set: (AUG-CC-PVTZ AUX)
    Blend: AUG-CC-PVTZ-JKFIT
	 Reference Energy          =    -115.0912226436027055 [Eh]
	 Singles Energy            =      -0.0000000000000000 [Eh]
	 Same-Spin Energy          =      -0.1057860818760306 [Eh]
	 Opposite-Spin Energy      =      -0.3649165881722104 [Eh]
	 Correlation Energy        =      -0.4707026700482410 [Eh]
	 Total Energy              =    -115.5619253136509457 [Eh]

	 ================> DF-SCS-MP2 Energies <==================
	-----------------------------------------------------------
	 SCS Same-Spin Scale       =       0.3333333333333333 [-]
	 SCS Opposite-Spin Scale   =       1.2000000000000000 [-]
	 SCS Same-Spin Energy      =      -0.0352620272920102 [Eh]
	 SCS Opposite-Spin Energy  =      -0.4378999058066524 [Eh]
	 SCS Correlation Energy    =      -0.4731619330986626 [Eh]
	 SCS Total Energy          =    -115.5643845767013715 [Eh]
	-----------------------------------------------------------

  Dipole Moment: [D]
     X:     0.8165      Y:    -1.4442      Z:    -0.0003     Total:     1.6590

*** Psi4 exiting successfully. Buy a developer a beer!
