                               Psi4 1.3.2 release

  ==> Input File <==

--------------------------------------------------------------------------
#psi4
#
memory 32 gb

molecule  {
0 1
  O       -0.7510110     0.1228100     0.0000050
  H       -1.0364944    -0.8045312     0.0000559
  C        0.6667490    -0.0194660     0.0000120
  H        1.0759270     0.9908560    -0.0039220
  H        1.0319810    -0.5401220     0.8939140
  H        1.0315480    -0.5468090    -0.8901590
units angstrom
no_reorient  #important for SAPT in psi4, default
symmetry c1  #important for SAPT in psi4, default
}

set PROPERTIES_ORIGIN ["COM"]
properties('MP2/aug-cc-pvtz', properties = ['dipole'])
--------------------------------------------------------------------------

    Molecular point group: c1
  Charge       = 0
  Multiplicity = 1
  Basis Set: AUG-CC-PVTZ
    Blend: AUG-CC-PVTZ
  Basis Set: (AUG-CC-PVTZ AUX)
    Blend: AUG-CC-PVTZ-JKFIT

    Orbital Energies [Eh]
    ---------------------

    Doubly Occupied:

       1A    -20.563436     2A    -11.273008     3A     -1.359255
       4A     -0.921612     5A     -0.690004     6A     -0.620640
       7A     -0.588636     8A     -0.510042     9A     -0.453185

  @DF-RHF Final Energy:  -115.08930473977962

   => Energetics <=

    Nuclear Repulsion Energy =             40.2550104444742658
    One-Electron Energy =                -236.7289949914457736
    Two-Electron Energy =                  81.3846798071918869
    Total Energy =                       -115.0893047397796209
  Basis Set: (AUG-CC-PVTZ AUX)
    Blend: AUG-CC-PVTZ-RI
    Molecular point group: c1

    Geometry (in Angstrom), charge = 0, multiplicity = 1:

       Center              X                  Y                   Z               Mass
    ------------   -----------------  -----------------  -----------------  -----------------
         O           -0.691935911173     0.097109491890     0.000001502702    15.994914619570
         H           -0.977419311173    -0.830231708110     0.000052402702     1.007825032230
         C            0.725824088827    -0.045166508110     0.000008502702    12.000000000000
         H            1.135002088827     0.965155491890    -0.003925497298     1.007825032230
         H            1.091056088827    -0.565822508110     0.893910502702     1.007825032230
         H            1.090623088827    -0.572509508110    -0.890162497298     1.007825032230

  Basis Set: AUG-CC-PVTZ
    Blend: AUG-CC-PVTZ
  Basis Set: (AUG-CC-PVTZ AUX)
    Blend: AUG-CC-PVTZ-JKFIT
	 Reference Energy          =    -115.0893047397796209 [Eh]
	 Singles Energy            =      -0.0000000000000000 [Eh]
	 Same-Spin Energy          =      -0.1060969082809764 [Eh]
	 Opposite-Spin Energy      =      -0.3656610485975074 [Eh]
	 Correlation Energy        =      -0.4717579568784838 [Eh]
	 Total Energy              =    -115.5610626966580980 [Eh]

	 ================> DF-SCS-MP2 Energies <==================
	-----------------------------------------------------------
	 SCS Same-Spin Scale       =       0.3333333333333333 [-]
	 SCS Opposite-Spin Scale   =       1.2000000000000000 [-]
	 SCS Same-Spin Energy      =      -0.0353656360936588 [Eh]
	 SCS Opposite-Spin Energy  =      -0.4387932583170088 [Eh]
	 SCS Correlation Energy    =      -0.4741588944106676 [Eh]
	 SCS Total Energy          =    -115.5634636341902848 [Eh]
	-----------------------------------------------------------

  Dipole Moment: [D]
     X:     1.0080      Y:    -1.4810      Z:    -0.0003     Total:     1.7915

*** Psi4 exiting successfully. Buy a developer a beer!
