                               Psi4 1.3.2 release

  ==> Input File <==

--------------------------------------------------------------------------
#psi4
#
memory 32 gb

molecule  {
0 1
  O       -0.7510110     0.1228100     0.0000050
  H       -1.2230609    -0.7249113     0.0000516
  C        0.6667490    -0.0194660     0.0000120
  H        1.0759270     0.9908560    -0.0039220
  H        1.0319810    -0.5401220     0.8939140
  H        1.0315480    -0.5468090    -0.8901590
units angstrom
no_reorient  #important for SAPT in psi4, default
symmetry c1  #important for SAPT in psi4, default
}

set PROPERTIES_ORIGIN ["COM"]
properties('MP2/aug-cc-pvtz', properties = ['dipole'])
--------------------------------------------------------------------------

    Molecular point group: c1
  Charge       = 0
  Multiplicity = 1
  Basis Set: AUG-CC-PVTZ
    Blend: AUG-CC-PVTZ
  Basis Set: (AUG-CC-PVTZ AUX)
    Blend: AUG-CC-PVTZ-JKFIT

    Orbital Energies [Eh]
    ---------------------

    Doubly Occupied:

       1A    -20.557947     2A    -11.273566     3A     -1.350283
       4A     -0.925945     5A     -0.687731     6A     -0.617103
       7A     -0.593529     8A     -0.498323     9A     -0.450506

  @DF-RHF Final Energy:  -115.09089545490470

   => Energetics <=

    Nuclear Repulsion Energy =             40.0981529535247461
    One-Electron Energy =                -236.4682301233242185
    Two-Electron Energy =                  81.2791817148947615
    Total Energy =                       -115.0908954549046967
  Basis Set: (AUG-CC-PVTZ AUX)
    Blend: AUG-CC-PVTZ-RI
    Molecular point group: c1

    Geometry (in Angstrom), charge = 0, multiplicity = 1:

       Center              X                  Y                   Z               Mass
    ------------   -----------------  -----------------  -----------------  -----------------
         O           -0.686064896120     0.094603952946     0.000001638018    15.994914619570
         H           -1.158114796120    -0.753117347054     0.000048238018     1.007825032230
         C            0.731695103880    -0.047672047054     0.000008638018    12.000000000000
         H            1.140873103880     0.962649952946    -0.003925361982     1.007825032230
         H            1.096927103880    -0.568328047054     0.893910638018     1.007825032230
         H            1.096494103880    -0.575015047054    -0.890162361982     1.007825032230

  Basis Set: AUG-CC-PVTZ
    Blend: AUG-CC-PVTZ
  Basis Set: (AUG-CC-PVTZ AUX)
    Blend: AUG-CC-PVTZ-JKFIT
	 Reference Energy          =    -115.0908954549046967 [Eh]
	 Singles Energy            =      -0.0000000000000000 [Eh]
	 Same-Spin Energy          =      -0.1057543007987448 [Eh]
	 Opposite-Spin Energy      =      -0.3648106970514470 [Eh]
	 Correlation Energy        =      -0.4705649978501918 [Eh]
	 Total Energy              =    -115.5614604527548863 [Eh]

	 ================> DF-SCS-MP2 Energies <==================
	-----------------------------------------------------------
	 SCS Same-Spin Scale       =       0.3333333333333333 [-]
	 SCS Opposite-Spin Scale   =       1.2000000000000000 [-]
	 SCS Same-Spin Energy      =      -0.0352514335995816 [Eh]
	 SCS Opposite-Spin Energy  =      -0.4377728364617364 [Eh]
	 SCS Correlation Energy    =      -0.4730242700613180 [Eh]
	 SCS Total Energy          =    -115.5639197249660128 [Eh]
	-----------------------------------------------------------

  Dipole Moment: [D]
     X:     0.7799      Y:    -1.4316      Z:    -0.0003     Total:     1.6302

*** Psi4 exiting successfully. Buy a developer a beer!
