                               Psi4 1.3.2 release

  ==> Input File <==

--------------------------------------------------------------------------
#psi4
#
memory 32 gb

molecule  {
0 1
  O       -0.7510110     0.1228100     0.0000050
  H       -1.1318640    -0.7696100     0.0000540
  C        0.4677485     0.0005042     0.0000110
  H        1.0759270     0.9908560    -0.0039220
  H        1.0319810    -0.5401220     0.8939140
  H        1.0315480    -0.5468090    -0.8901590
units angstrom
no_reorient  #important for SAPT in psi4, default
symmetry c1  #important for SAPT in psi4, default
}

set PROPERTIES_ORIGIN ["COM"]
properties('MP2/aug-cc-pvtz', properties = ['dipole'])
--------------------------------------------------------------------------

    Molecular point group: c1
  Charge       = 0
  Multiplicity = 1
  Basis Set: AUG-CC-PVTZ
    Blend: AUG-CC-PVTZ
  Basis Set: (AUG-CC-PVTZ AUX)
    Blend: AUG-CC-PVTZ-JKFIT

    Orbital Energies [Eh]
    ---------------------

    Doubly Occupied:

       1A    -20.583029     2A    -11.286983     3A     -1.460410
       4A     -0.907448     5A     -0.743073     6A     -0.657105
       7A     -0.647444     8A     -0.458129     9A     -0.413679

  @DF-RHF Final Energy:  -115.04563487708121

   => Energetics <=

    Nuclear Repulsion Energy =             42.6202283123760637
    One-Electron Energy =                -241.0171276320146490
    Two-Electron Energy =                  83.3512644425573654
    Total Energy =                       -115.0456348770812127
  Basis Set: (AUG-CC-PVTZ AUX)
    Blend: AUG-CC-PVTZ-RI
    Molecular point group: c1

    Geometry (in Angstrom), charge = 0, multiplicity = 1:

       Center              X                  Y                   Z               Mass
    ------------   -----------------  -----------------  -----------------  -----------------
         O           -0.614370645040     0.088527870188     0.000001937186    15.994914619570
         H           -0.995223645040    -0.803892129812     0.000050937186     1.007825032230
         C            0.604388854960    -0.033777929812     0.000007937186    12.000000000000
         H            1.212567354960     0.956573870188    -0.003925062814     1.007825032230
         H            1.168621354960    -0.574404129812     0.893910937186     1.007825032230
         H            1.168188354960    -0.581091129812    -0.890162062814     1.007825032230

  Basis Set: AUG-CC-PVTZ
    Blend: AUG-CC-PVTZ
  Basis Set: (AUG-CC-PVTZ AUX)
    Blend: AUG-CC-PVTZ-JKFIT
	 Reference Energy          =    -115.0456348770812127 [Eh]
	 Singles Energy            =      -0.0000000000000000 [Eh]
	 Same-Spin Energy          =      -0.1065756426253104 [Eh]
	 Opposite-Spin Energy      =      -0.3638346837179157 [Eh]
	 Correlation Energy        =      -0.4704103263432261 [Eh]
	 Total Energy              =    -115.5160452034244400 [Eh]

	 ================> DF-SCS-MP2 Energies <==================
	-----------------------------------------------------------
	 SCS Same-Spin Scale       =       0.3333333333333333 [-]
	 SCS Opposite-Spin Scale   =       1.2000000000000000 [-]
	 SCS Same-Spin Energy      =      -0.0355252142084368 [Eh]
	 SCS Opposite-Spin Energy  =      -0.4366016204614989 [Eh]
	 SCS Correlation Energy    =      -0.4721268346699357 [Eh]
	 SCS Total Energy          =    -115.5177617117511488 [Eh]
	-----------------------------------------------------------

  Dipole Moment: [D]
     X:    -0.0982      Y:    -1.3801      Z:    -0.0009     Total:     1.3836

*** Psi4 exiting successfully. Buy a developer a beer!
