                               Psi4 1.3.2 release

  ==> Input File <==

--------------------------------------------------------------------------
#psi4
#
memory 32 gb

molecule  {
0 1
  O       -0.7510110     0.1228100     0.0000050
  H       -1.2103669    -0.9535591     0.0000641
  C        0.6667490    -0.0194660     0.0000120
  H        1.0759270     0.9908560    -0.0039220
  H        1.0319810    -0.5401220     0.8939140
  H        1.0315480    -0.5468090    -0.8901590
units angstrom
no_reorient  #important for SAPT in psi4, default
symmetry c1  #important for SAPT in psi4, default
}

set PROPERTIES_ORIGIN ["COM"]
properties('MP2/aug-cc-pvtz', properties = ['dipole'])
--------------------------------------------------------------------------

    Molecular point group: c1
  Charge       = 0
  Multiplicity = 1
  Basis Set: AUG-CC-PVTZ
    Blend: AUG-CC-PVTZ
  Basis Set: (AUG-CC-PVTZ AUX)
    Blend: AUG-CC-PVTZ-JKFIT

    Orbital Energies [Eh]
    ---------------------

    Doubly Occupied:

       1A    -20.576696     2A    -11.271384     3A     -1.322437
       4A     -0.909571     5A     -0.651751     6A     -0.615905
       7A     -0.584854     8A     -0.488326     9A     -0.448064

  @DF-RHF Final Energy:  -115.05571119183817

   => Energetics <=

    Nuclear Repulsion Energy =             39.2818335941476633
    One-Electron Energy =                -234.9371130523499005
    Two-Electron Energy =                  80.5995682663640736
    Total Energy =                       -115.0557111918381707
  Basis Set: (AUG-CC-PVTZ AUX)
    Blend: AUG-CC-PVTZ-RI
    Molecular point group: c1

    Geometry (in Angstrom), charge = 0, multiplicity = 1:

       Center              X                  Y                   Z               Mass
    ------------   -----------------  -----------------  -----------------  -----------------
         O           -0.686464360467     0.101799214022     0.000001244658    15.994914619570
         H           -1.145820260467    -0.974569885978     0.000060344658     1.007825032230
         C            0.731295639533    -0.040476785978     0.000008244658    12.000000000000
         H            1.140473639533     0.969845214022    -0.003925755342     1.007825032230
         H            1.096527639533    -0.561132785978     0.893910244658     1.007825032230
         H            1.096094639533    -0.567819785978    -0.890162755342     1.007825032230

  Basis Set: AUG-CC-PVTZ
    Blend: AUG-CC-PVTZ
  Basis Set: (AUG-CC-PVTZ AUX)
    Blend: AUG-CC-PVTZ-JKFIT
	 Reference Energy          =    -115.0557111918381707 [Eh]
	 Singles Energy            =      -0.0000000000000000 [Eh]
	 Same-Spin Energy          =      -0.1077391767442699 [Eh]
	 Opposite-Spin Energy      =      -0.3715784074643386 [Eh]
	 Correlation Energy        =      -0.4793175842086085 [Eh]
	 Total Energy              =    -115.5350287760467722 [Eh]

	 ================> DF-SCS-MP2 Energies <==================
	-----------------------------------------------------------
	 SCS Same-Spin Scale       =       0.3333333333333333 [-]
	 SCS Opposite-Spin Scale   =       1.2000000000000000 [-]
	 SCS Same-Spin Energy      =      -0.0359130589147566 [Eh]
	 SCS Opposite-Spin Energy  =      -0.4458940889572063 [Eh]
	 SCS Correlation Energy    =      -0.4818071478719629 [Eh]
	 SCS Total Energy          =    -115.5375183397101324 [Eh]
	-----------------------------------------------------------

  Dipole Moment: [D]
     X:     0.8107      Y:    -1.5737      Z:    -0.0004     Total:     1.7703

*** Psi4 exiting successfully. Buy a developer a beer!
