                               Psi4 1.3.2 release

  ==> Input File <==

--------------------------------------------------------------------------
#psi4
#
memory 32 gb

molecule  {
0 1
  O       -0.7483120     0.1475315    -0.0000885
  H       -1.1318640    -0.7696100     0.0000540
  C        0.6667490    -0.0194660     0.0000120
  H        1.0759270     0.9908560    -0.0039220
  H        1.0319810    -0.5401220     0.8939140
  H        1.0315480    -0.5468090    -0.8901590
units angstrom
no_reorient  #important for SAPT in psi4, default
symmetry c1  #important for SAPT in psi4, default
}

set PROPERTIES_ORIGIN ["COM"]
properties('MP2/aug-cc-pvtz', properties = ['dipole'])
--------------------------------------------------------------------------

    Molecular point group: c1
  Charge       = 0
  Multiplicity = 1
  Basis Set: AUG-CC-PVTZ
    Blend: AUG-CC-PVTZ
  Basis Set: (AUG-CC-PVTZ AUX)
    Blend: AUG-CC-PVTZ-JKFIT

    Orbital Energies [Eh]
    ---------------------

    Doubly Occupied:

       1A    -20.564049     2A    -11.272547     3A     -1.350722
       4A     -0.921115     5A     -0.684787     6A     -0.618554
       7A     -0.588485     8A     -0.504563     9A     -0.451995

  @DF-RHF Final Energy:  -115.08887499374893

   => Energetics <=

    Nuclear Repulsion Energy =             40.0692770868011863
    One-Electron Energy =                -236.4026711222611254
    Two-Electron Energy =                  81.2445190417110155
    Total Energy =                       -115.0888749937489308
  Basis Set: (AUG-CC-PVTZ AUX)
    Blend: AUG-CC-PVTZ-RI
    Molecular point group: c1

    Geometry (in Angstrom), charge = 0, multiplicity = 1:

       Center              X                  Y                   Z               Mass
    ------------   -----------------  -----------------  -----------------  -----------------
         O           -0.687583715625     0.108385358534    -0.000045240621    15.994914619570
         H           -1.071135715625    -0.808756141466     0.000097259379     1.007825032230
         C            0.727477284375    -0.058612141466     0.000055259379    12.000000000000
         H            1.136655284375     0.951709858534    -0.003878740621     1.007825032230
         H            1.092709284375    -0.579268141466     0.893957259379     1.007825032230
         H            1.092276284375    -0.585955141466    -0.890115740621     1.007825032230

  Basis Set: AUG-CC-PVTZ
    Blend: AUG-CC-PVTZ
  Basis Set: (AUG-CC-PVTZ AUX)
    Blend: AUG-CC-PVTZ-JKFIT
	 Reference Energy          =    -115.0888749937489308 [Eh]
	 Singles Energy            =      -0.0000000000000000 [Eh]
	 Same-Spin Energy          =      -0.1061932453140274 [Eh]
	 Opposite-Spin Energy      =      -0.3660383915004768 [Eh]
	 Correlation Energy        =      -0.4722316368145042 [Eh]
	 Total Energy              =    -115.5611066305634296 [Eh]

	 ================> DF-SCS-MP2 Energies <==================
	-----------------------------------------------------------
	 SCS Same-Spin Scale       =       0.3333333333333333 [-]
	 SCS Opposite-Spin Scale   =       1.2000000000000000 [-]
	 SCS Same-Spin Energy      =      -0.0353977484380091 [Eh]
	 SCS Opposite-Spin Energy  =      -0.4392460698005721 [Eh]
	 SCS Correlation Energy    =      -0.4746438182385813 [Eh]
	 SCS Total Energy          =    -115.5635188119875068 [Eh]
	-----------------------------------------------------------

  Dipole Moment: [D]
     X:     0.8767      Y:    -1.4988      Z:    -0.0001     Total:     1.7364

*** Psi4 exiting successfully. Buy a developer a beer!
