                               Psi4 1.4a3.dev225

  ==> Input File <==

--------------------------------------------------------------------------
#psi4
#
memory 32 gb

molecule  {
0 1
  O        0.7508650     0.1227030     0.0000000
  H        1.1315190    -0.7696320     0.0000000
  C       -0.6863921    -0.0214682     0.0000000
  H       -1.0749640     0.9910260    -0.0000020
  H       -1.0322630    -0.5430960    -0.8919870
  H       -1.0322640    -0.5430920     0.8919880
units angstrom
no_reorient  #important for SAPT in psi4, default
symmetry c1  #important for SAPT in psi4, default
}

set PROPERTIES_ORIGIN ["COM"]
properties('MP2/aug-cc-pvtz', properties = ['dipole'])
--------------------------------------------------------------------------

    Molecular point group: c1
  Charge       = 0
  Multiplicity = 1
  Basis Set: AUG-CC-PVTZ
    Blend: AUG-CC-PVTZ
  Basis Set: (AUG-CC-PVTZ AUX)
    Blend: AUG-CC-PVTZ-JKFIT

    Orbital Energies [Eh]
    ---------------------

    Doubly Occupied:

       1A    -20.559172     2A    -11.272499     3A     -1.347146
       4A     -0.926079     5A     -0.684418     6A     -0.618958
       7A     -0.585889     8A     -0.507273     9A     -0.453730

  @DF-RHF Final Energy:  -115.09063483912281

   => Energetics <=

    Nuclear Repulsion Energy =             39.9710814242658543
    One-Electron Energy =                -236.2131067317245368
    Two-Electron Energy =                  81.1513904683358618
    Total Energy =                       -115.0906348391228136
  Basis Set: (AUG-CC-PVTZ AUX)
    Blend: AUG-CC-PVTZ-RI
    Molecular point group: c1

    Geometry (in Angstrom), charge = 0, multiplicity = 1:

       Center              X                  Y                   Z               Mass
    ------------   -----------------  -----------------  -----------------  -----------------
         O            0.696233757003     0.096679176261     0.000000031469    15.994914619570
         H            1.076887757003    -0.795655823739     0.000000031469     1.007825032230
         C           -0.741023342997    -0.047492023739     0.000000031469    12.000000000000
         H           -1.129595242997     0.965002176261    -0.000001968531     1.007825032230
         H           -1.086894242997    -0.569119823739    -0.891986968531     1.007825032230
         H           -1.086895242997    -0.569115823739     0.891988031469     1.007825032230

  Basis Set: AUG-CC-PVTZ
    Blend: AUG-CC-PVTZ
  Basis Set: (AUG-CC-PVTZ AUX)
    Blend: AUG-CC-PVTZ-JKFIT
	 Reference Energy          =    -115.0906348391228136 [Eh]
	 Singles Energy            =      -0.0000000000000000 [Eh]
	 Same-Spin Energy          =      -0.1059037684645390 [Eh]
	 Opposite-Spin Energy      =      -0.3654809109320099 [Eh]
	 Correlation Energy        =      -0.4713846793965488 [Eh]
	 Total Energy              =    -115.5620195185193637 [Eh]

	 ================> DF-SCS-MP2 Energies <==================
	-----------------------------------------------------------
	 SCS Same-Spin Scale       =       0.3333333333333333 [-]
	 SCS Opposite-Spin Scale   =       1.2000000000000000 [-]
	 SCS Same-Spin Energy      =      -0.0353012561548463 [Eh]
	 SCS Opposite-Spin Energy  =      -0.4385770931184118 [Eh]
	 SCS Correlation Energy    =      -0.4738783492732581 [Eh]
	 SCS Total Energy          =    -115.5645131883960772 [Eh]
	-----------------------------------------------------------

  Dipole Moment: [D]
     X:    -0.9657      Y:    -1.4682      Z:     0.0000     Total:     1.7573

*** Psi4 exiting successfully. Buy a developer a beer!
