                               Psi4 1.4a3.dev225

  ==> Input File <==

--------------------------------------------------------------------------
#psi4
#
memory 32 gb

molecule  {
0 1
  O        0.7508650     0.1227030     0.0000000
  H        1.1315190    -0.7696320     0.0000000
  C       -0.6465919    -0.0174758     0.0000000
  H       -1.0749640     0.9910260    -0.0000020
  H       -1.0322630    -0.5430960    -0.8919870
  H       -1.0322640    -0.5430920     0.8919880
units angstrom
no_reorient  #important for SAPT in psi4, default
symmetry c1  #important for SAPT in psi4, default
}

set PROPERTIES_ORIGIN ["COM"]
properties('MP2/aug-cc-pvtz', properties = ['dipole'])
--------------------------------------------------------------------------

    Molecular point group: c1
  Charge       = 0
  Multiplicity = 1
  Basis Set: AUG-CC-PVTZ
    Blend: AUG-CC-PVTZ
  Basis Set: (AUG-CC-PVTZ AUX)
    Blend: AUG-CC-PVTZ-JKFIT

    Orbital Energies [Eh]
    ---------------------

    Doubly Occupied:

       1A    -20.562824     2A    -11.273497     3A     -1.363071
       4A     -0.921437     5A     -0.693393     6A     -0.619085
       7A     -0.596796     8A     -0.501619     9A     -0.449684

  @DF-RHF Final Energy:  -115.09106074880401

   => Energetics <=

    Nuclear Repulsion Energy =             40.3913514594612408
    One-Electron Energy =                -237.0020107743326605
    Two-Electron Energy =                  81.5195985660674012
    Total Energy =                       -115.0910607488040114
  Basis Set: (AUG-CC-PVTZ AUX)
    Blend: AUG-CC-PVTZ-RI
    Molecular point group: c1

    Geometry (in Angstrom), charge = 0, multiplicity = 1:

       Center              X                  Y                   Z               Mass
    ------------   -----------------  -----------------  -----------------  -----------------
         O            0.681320898779     0.095183251739     0.000000031469    15.994914619570
         H            1.061974898779    -0.797151748261     0.000000031469     1.007825032230
         C           -0.716136001221    -0.044995548261     0.000000031469    12.000000000000
         H           -1.144508101221     0.963506251739    -0.000001968531     1.007825032230
         H           -1.101807101221    -0.570615748261    -0.891986968531     1.007825032230
         H           -1.101808101221    -0.570611748261     0.891988031469     1.007825032230

  Basis Set: AUG-CC-PVTZ
    Blend: AUG-CC-PVTZ
  Basis Set: (AUG-CC-PVTZ AUX)
    Blend: AUG-CC-PVTZ-JKFIT
	 Reference Energy          =    -115.0910607488040114 [Eh]
	 Singles Energy            =      -0.0000000000000000 [Eh]
	 Same-Spin Energy          =      -0.1058690680589128 [Eh]
	 Opposite-Spin Energy      =      -0.3648700729087521 [Eh]
	 Correlation Energy        =      -0.4707391409676649 [Eh]
	 Total Energy              =    -115.5617998897716774 [Eh]

	 ================> DF-SCS-MP2 Energies <==================
	-----------------------------------------------------------
	 SCS Same-Spin Scale       =       0.3333333333333333 [-]
	 SCS Opposite-Spin Scale   =       1.2000000000000000 [-]
	 SCS Same-Spin Energy      =      -0.0352896893529709 [Eh]
	 SCS Opposite-Spin Energy  =      -0.4378440874905025 [Eh]
	 SCS Correlation Energy    =      -0.4731337768434735 [Eh]
	 SCS Total Energy          =    -115.5641945256474798 [Eh]
	-----------------------------------------------------------

  Dipole Moment: [D]
     X:    -0.8111      Y:    -1.4589      Z:     0.0000     Total:     1.6692

*** Psi4 exiting successfully. Buy a developer a beer!
