                               Psi4 1.3.2 release

  ==> Input File <==

--------------------------------------------------------------------------
#psi4
#
memory 32 gb

molecule  {
0 1
  O       -0.7510110     0.1228100     0.0000050
  H       -1.0686842    -0.7940031     0.0000553
  C        0.6667490    -0.0194660     0.0000120
  H        1.0759270     0.9908560    -0.0039220
  H        1.0319810    -0.5401220     0.8939140
  H        1.0315480    -0.5468090    -0.8901590
units angstrom
no_reorient  #important for SAPT in psi4, default
symmetry c1  #important for SAPT in psi4, default
}

set PROPERTIES_ORIGIN ["COM"]
properties('MP2/aug-cc-pvtz', properties = ['dipole'])
--------------------------------------------------------------------------

    Molecular point group: c1
  Charge       = 0
  Multiplicity = 1
  Basis Set: AUG-CC-PVTZ
    Blend: AUG-CC-PVTZ
  Basis Set: (AUG-CC-PVTZ AUX)
    Blend: AUG-CC-PVTZ-JKFIT

    Orbital Energies [Eh]
    ---------------------

    Doubly Occupied:

       1A    -20.562675     2A    -11.272915     3A     -1.357714
       4A     -0.922295     5A     -0.689468     6A     -0.619977
       7A     -0.589445     8A     -0.508423     9A     -0.452773

  @DF-RHF Final Energy:  -115.09019194756341

   => Energetics <=

    Nuclear Repulsion Energy =             40.2258091541687008
    One-Electron Energy =                -236.6806303186223488
    Two-Electron Energy =                  81.3646292168902363
    Total Energy =                       -115.0901919475634116
  Basis Set: (AUG-CC-PVTZ AUX)
    Blend: AUG-CC-PVTZ-RI
    Molecular point group: c1

    Geometry (in Angstrom), charge = 0, multiplicity = 1:

       Center              X                  Y                   Z               Mass
    ------------   -----------------  -----------------  -----------------  -----------------
         O           -0.690922938317     0.096778185714     0.000001521583    15.994914619570
         H           -1.008596138317    -0.820034914286     0.000051821583     1.007825032230
         C            0.726837061683    -0.045497814286     0.000008521583    12.000000000000
         H            1.136015061683     0.964824185714    -0.003925478417     1.007825032230
         H            1.092069061683    -0.566153814286     0.893910521583     1.007825032230
         H            1.091636061683    -0.572840814286    -0.890162478417     1.007825032230

  Basis Set: AUG-CC-PVTZ
    Blend: AUG-CC-PVTZ
  Basis Set: (AUG-CC-PVTZ AUX)
    Blend: AUG-CC-PVTZ-JKFIT
	 Reference Energy          =    -115.0901919475634116 [Eh]
	 Singles Energy            =      -0.0000000000000000 [Eh]
	 Same-Spin Energy          =      -0.1060126822854548 [Eh]
	 Opposite-Spin Energy      =      -0.3654818835228685 [Eh]
	 Correlation Energy        =      -0.4714945658083233 [Eh]
	 Total Energy              =    -115.5616865133717397 [Eh]

	 ================> DF-SCS-MP2 Energies <==================
	-----------------------------------------------------------
	 SCS Same-Spin Scale       =       0.3333333333333333 [-]
	 SCS Opposite-Spin Scale   =       1.2000000000000000 [-]
	 SCS Same-Spin Energy      =      -0.0353375607618183 [Eh]
	 SCS Opposite-Spin Energy  =      -0.4385782602274422 [Eh]
	 SCS Correlation Energy    =      -0.4739158209892605 [Eh]
	 SCS Total Energy          =    -115.5641077685526739 [Eh]
	-----------------------------------------------------------

  Dipole Moment: [D]
     X:     0.9685      Y:    -1.4771      Z:    -0.0003     Total:     1.7664

*** Psi4 exiting successfully. Buy a developer a beer!
