                               Psi4 1.3.2 release

  ==> Input File <==

--------------------------------------------------------------------------
#psi4
#
memory 32 gb

molecule  {
0 1
  O       -0.7451820     0.1722021    -0.0001821
  H       -1.1318640    -0.7696100     0.0000540
  C        0.6667490    -0.0194660     0.0000120
  H        1.0759270     0.9908560    -0.0039220
  H        1.0319810    -0.5401220     0.8939140
  H        1.0315480    -0.5468090    -0.8901590
units angstrom
no_reorient  #important for SAPT in psi4, default
symmetry c1  #important for SAPT in psi4, default
}

set PROPERTIES_ORIGIN ["COM"]
properties('MP2/aug-cc-pvtz', properties = ['dipole'])
--------------------------------------------------------------------------

    Molecular point group: c1
  Charge       = 0
  Multiplicity = 1
  Basis Set: AUG-CC-PVTZ
    Blend: AUG-CC-PVTZ
  Basis Set: (AUG-CC-PVTZ AUX)
    Blend: AUG-CC-PVTZ-JKFIT

    Orbital Energies [Eh]
    ---------------------

    Doubly Occupied:

       1A    -20.567041     2A    -11.272207     3A     -1.347070
       4A     -0.918753     5A     -0.681111     6A     -0.618407
       7A     -0.586045     8A     -0.503949     9A     -0.452131

  @DF-RHF Final Energy:  -115.08547154229561

   => Energetics <=

    Nuclear Repulsion Energy =             39.9721189297781905
    One-Electron Energy =                -236.2217548046610318
    Two-Electron Energy =                  81.1641643325872337
    Total Energy =                       -115.0854715422956076
  Basis Set: (AUG-CC-PVTZ AUX)
    Blend: AUG-CC-PVTZ-RI
    Molecular point group: c1

    Geometry (in Angstrom), charge = 0, multiplicity = 1:

       Center              X                  Y                   Z               Mass
    ------------   -----------------  -----------------  -----------------  -----------------
         O           -0.686016937603     0.120734672871    -0.000092093791    15.994914619570
         H           -1.072698937603    -0.821077427129     0.000144006209     1.007825032230
         C            0.725914062397    -0.070933427129     0.000102006209    12.000000000000
         H            1.135092062397     0.939388572871    -0.003831993791     1.007825032230
         H            1.091146062397    -0.591589427129     0.894004006209     1.007825032230
         H            1.090713062397    -0.598276427129    -0.890068993791     1.007825032230

  Basis Set: AUG-CC-PVTZ
    Blend: AUG-CC-PVTZ
  Basis Set: (AUG-CC-PVTZ AUX)
    Blend: AUG-CC-PVTZ-JKFIT
	 Reference Energy          =    -115.0854715422956076 [Eh]
	 Singles Energy            =      -0.0000000000000000 [Eh]
	 Same-Spin Energy          =      -0.1065158329976516 [Eh]
	 Opposite-Spin Energy      =      -0.3669479241558834 [Eh]
	 Correlation Energy        =      -0.4734637571535349 [Eh]
	 Total Energy              =    -115.5589352994491463 [Eh]

	 ================> DF-SCS-MP2 Energies <==================
	-----------------------------------------------------------
	 SCS Same-Spin Scale       =       0.3333333333333333 [-]
	 SCS Opposite-Spin Scale   =       1.2000000000000000 [-]
	 SCS Same-Spin Energy      =      -0.0355052776658838 [Eh]
	 SCS Opposite-Spin Energy  =      -0.4403375089870601 [Eh]
	 SCS Correlation Energy    =      -0.4758427866529439 [Eh]
	 SCS Total Energy          =    -115.5613143289485549 [Eh]
	-----------------------------------------------------------

  Dipole Moment: [D]
     X:     0.8627      Y:    -1.5320      Z:     0.0002     Total:     1.7583

*** Psi4 exiting successfully. Buy a developer a beer!
