                               Psi4 1.3.2 release

  ==> Input File <==

--------------------------------------------------------------------------
#psi4
#
memory 32 gb

molecule  {
0 1
  O       -0.7510110     0.1228100     0.0000050
  H       -1.1473809    -0.7628273     0.0000536
  C        0.6667490    -0.0194660     0.0000120
  H        1.0759270     0.9908560    -0.0039220
  H        1.0319810    -0.5401220     0.8939140
  H        1.0315480    -0.5468090    -0.8901590
units angstrom
no_reorient  #important for SAPT in psi4, default
symmetry c1  #important for SAPT in psi4, default
}

set PROPERTIES_ORIGIN ["COM"]
properties('MP2/aug-cc-pvtz', properties = ['dipole'])
--------------------------------------------------------------------------

    Molecular point group: c1
  Charge       = 0
  Multiplicity = 1
  Basis Set: AUG-CC-PVTZ
    Blend: AUG-CC-PVTZ
  Basis Set: (AUG-CC-PVTZ AUX)
    Blend: AUG-CC-PVTZ-JKFIT

    Orbital Energies [Eh]
    ---------------------

    Doubly Occupied:

       1A    -20.560495     2A    -11.273020     3A     -1.353948
       4A     -0.924088     5A     -0.688423     6A     -0.618455
       7A     -0.591501     8A     -0.503742     9A     -0.451682

  @DF-RHF Final Energy:  -115.09128912257786

   => Energetics <=

    Nuclear Repulsion Energy =             40.1583439183542552
    One-Electron Energy =                -236.5685573121757841
    Two-Electron Energy =                  81.3189242712436595
    Total Energy =                       -115.0912891225778623
  Basis Set: (AUG-CC-PVTZ AUX)
    Blend: AUG-CC-PVTZ-RI
    Molecular point group: c1

    Geometry (in Angstrom), charge = 0, multiplicity = 1:

       Center              X                  Y                   Z               Mass
    ------------   -----------------  -----------------  -----------------  -----------------
         O           -0.688446451325     0.095797122173     0.000001575080    15.994914619570
         H           -1.084816351325    -0.789840177827     0.000050175080     1.007825032230
         C            0.729313548675    -0.046478877827     0.000008575080    12.000000000000
         H            1.138491548675     0.963843122173    -0.003925424920     1.007825032230
         H            1.094545548675    -0.567134877827     0.893910575080     1.007825032230
         H            1.094112548675    -0.573821877827    -0.890162424920     1.007825032230

  Basis Set: AUG-CC-PVTZ
    Blend: AUG-CC-PVTZ
  Basis Set: (AUG-CC-PVTZ AUX)
    Blend: AUG-CC-PVTZ-JKFIT
	 Reference Energy          =    -115.0912891225778623 [Eh]
	 Singles Energy            =      -0.0000000000000000 [Eh]
	 Same-Spin Energy          =      -0.1058515863776308 [Eh]
	 Opposite-Spin Energy      =      -0.3651011641658067 [Eh]
	 Correlation Energy        =      -0.4709527505434375 [Eh]
	 Total Energy              =    -115.5622418731212946 [Eh]

	 ================> DF-SCS-MP2 Energies <==================
	-----------------------------------------------------------
	 SCS Same-Spin Scale       =       0.3333333333333333 [-]
	 SCS Opposite-Spin Scale   =       1.2000000000000000 [-]
	 SCS Same-Spin Energy      =      -0.0352838621258769 [Eh]
	 SCS Opposite-Spin Energy  =      -0.4381213969989681 [Eh]
	 SCS Correlation Energy    =      -0.4734052591248450 [Eh]
	 SCS Total Energy          =    -115.5646943817027079 [Eh]
	-----------------------------------------------------------

  Dipole Moment: [D]
     X:     0.8725      Y:    -1.4598      Z:    -0.0003     Total:     1.7006

*** Psi4 exiting successfully. Buy a developer a beer!
