                               Psi4 1.3.2 release

  ==> Input File <==

--------------------------------------------------------------------------
#psi4
#
memory 32 gb

molecule  {
0 1
  O       -0.7532781     0.0980452     0.0000986
  H       -1.1318640    -0.7696100     0.0000540
  C        0.6667490    -0.0194660     0.0000120
  H        1.0759270     0.9908560    -0.0039220
  H        1.0319810    -0.5401220     0.8939140
  H        1.0315480    -0.5468090    -0.8901590
units angstrom
no_reorient  #important for SAPT in psi4, default
symmetry c1  #important for SAPT in psi4, default
}

set PROPERTIES_ORIGIN ["COM"]
properties('MP2/aug-cc-pvtz', properties = ['dipole'])
--------------------------------------------------------------------------

    Molecular point group: c1
  Charge       = 0
  Multiplicity = 1
  Basis Set: AUG-CC-PVTZ
    Blend: AUG-CC-PVTZ
  Basis Set: (AUG-CC-PVTZ AUX)
    Blend: AUG-CC-PVTZ-JKFIT

    Orbital Energies [Eh]
    ---------------------

    Doubly Occupied:

       1A    -20.557777     2A    -11.273457     3A     -1.358987
       4A     -0.926584     5A     -0.692531     6A     -0.618979
       7A     -0.593805     8A     -0.504531     9A     -0.451866

  @DF-RHF Final Energy:  -115.09227982662449

   => Energetics <=

    Nuclear Repulsion Energy =             40.2781429745705211
    One-Electron Energy =                -236.7838100497042149
    Two-Electron Energy =                  81.4133872485091956
    Total Energy =                       -115.0922798266244911
  Basis Set: (AUG-CC-PVTZ AUX)
    Blend: AUG-CC-PVTZ-RI
    Molecular point group: c1

    Geometry (in Angstrom), charge = 0, multiplicity = 1:

       Center              X                  Y                   Z               Mass
    ------------   -----------------  -----------------  -----------------  -----------------
         O           -0.690069586659     0.083614097434     0.000048415663    15.994914619570
         H           -1.068655486659    -0.784041102566     0.000003815663     1.007825032230
         C            0.729957513341    -0.033897102566    -0.000038184337    12.000000000000
         H            1.139135513341     0.976424897434    -0.003972184337     1.007825032230
         H            1.095189513341    -0.554553102566     0.893863815663     1.007825032230
         H            1.094756513341    -0.561240102566    -0.890209184337     1.007825032230

  Basis Set: AUG-CC-PVTZ
    Blend: AUG-CC-PVTZ
  Basis Set: (AUG-CC-PVTZ AUX)
    Blend: AUG-CC-PVTZ-JKFIT
	 Reference Energy          =    -115.0922798266244911 [Eh]
	 Singles Energy            =      -0.0000000000000000 [Eh]
	 Same-Spin Energy          =      -0.1055729725879933 [Eh]
	 Opposite-Spin Energy      =      -0.3643436524295240 [Eh]
	 Correlation Energy        =      -0.4699166250175173 [Eh]
	 Total Energy              =    -115.5621964516420093 [Eh]

	 ================> DF-SCS-MP2 Energies <==================
	-----------------------------------------------------------
	 SCS Same-Spin Scale       =       0.3333333333333333 [-]
	 SCS Opposite-Spin Scale   =       1.2000000000000000 [-]
	 SCS Same-Spin Energy      =      -0.0351909908626644 [Eh]
	 SCS Opposite-Spin Energy  =      -0.4372123829154289 [Eh]
	 SCS Correlation Energy    =      -0.4724033737780933 [Eh]
	 SCS Total Energy          =    -115.5646832004025839 [Eh]
	-----------------------------------------------------------

  Dipole Moment: [D]
     X:     0.9069      Y:    -1.4280      Z:    -0.0005     Total:     1.6916

*** Psi4 exiting successfully. Buy a developer a beer!
