                               Psi4 1.3.2 release

  ==> Input File <==

--------------------------------------------------------------------------
#psi4
#
memory 32 gb

molecule  {
0 1
  C        1.3691010    -0.5140340     0.0000020
  C       -1.3691010    -0.5140340     0.0000020
  S        0.0101450     0.6758271     0.0276017
  H        1.3483140    -1.1453580    -0.8917230
  H        2.2985940     0.0585020    -0.0005100
  H        1.3488410    -1.1446440     0.8922380
  H       -1.3483150    -1.1453560    -0.8917250
  H       -1.3488400    -1.1446440     0.8922380
  H       -2.2985940     0.0585020    -0.0005080
units angstrom
no_reorient  #important for SAPT in psi4, default
symmetry c1  #important for SAPT in psi4, default
}

set PROPERTIES_ORIGIN ["COM"]
properties('MP2/aug-cc-pvtz', properties = ['dipole'])
--------------------------------------------------------------------------

    Molecular point group: c1
  Charge       = 0
  Multiplicity = 1
  Basis Set: AUG-CC-PVTZ
    Blend: AUG-CC-PVTZ
  Basis Set: (AUG-CC-PVTZ AUX)
    Blend: AUG-CC-PVTZ-JKFIT

    Orbital Energies [Eh]
    ---------------------

    Doubly Occupied:

       1A    -91.946035     2A    -11.251783     3A    -11.250739
       4A     -8.946020     5A     -6.627353     6A     -6.626377
       7A     -6.625386     8A     -1.058574     9A     -0.948913
      10A     -0.807494    11A     -0.602220    12A     -0.600007
      13A     -0.575802    14A     -0.562393    15A     -0.490235
      16A     -0.436427    17A     -0.336598

  @DF-RHF Final Energy:  -476.80285205937889

   => Energetics <=

    Nuclear Repulsion Energy =            110.6301447208967232
    One-Electron Energy =                -875.4812841289676726
    Two-Electron Energy =                 288.0482873486920425
    Total Energy =                       -476.8028520593788926
  Basis Set: (AUG-CC-PVTZ AUX)
    Blend: AUG-CC-PVTZ-RI
    Molecular point group: c1

    Geometry (in Angstrom), charge = 0, multiplicity = 1:

       Center              X                  Y                   Z               Mass
    ------------   -----------------  -----------------  -----------------  -----------------
         C            1.363871045465    -0.590991922494    -0.014228176093    12.000000000000
         C           -1.374330954535    -0.590991922494    -0.014228176093    12.000000000000
         S            0.004915045465     0.598869177506     0.013371523907    31.972071174400
         H            1.343084045465    -1.222315922494    -0.905953176093     1.007825032230
         H            2.293364045465    -0.018455922494    -0.014740176093     1.007825032230
         H            1.343611045465    -1.221601922494     0.878007823907     1.007825032230
         H           -1.353544954535    -1.222313922494    -0.905955176093     1.007825032230
         H           -1.354069954535    -1.221601922494     0.878007823907     1.007825032230
         H           -2.303823954535    -0.018455922494    -0.014738176093     1.007825032230

  Basis Set: AUG-CC-PVTZ
    Blend: AUG-CC-PVTZ
  Basis Set: (AUG-CC-PVTZ AUX)
    Blend: AUG-CC-PVTZ-JKFIT
	 Reference Energy          =    -476.8028520593788926 [Eh]
	 Singles Energy            =      -0.0000000000000000 [Eh]
	 Same-Spin Energy          =      -0.1368223952569892 [Eh]
	 Opposite-Spin Energy      =      -0.4892362914694545 [Eh]
	 Correlation Energy        =      -0.6260586867264437 [Eh]
	 Total Energy              =    -477.4289107461053163 [Eh]

	 ================> DF-SCS-MP2 Energies <==================
	-----------------------------------------------------------
	 SCS Same-Spin Scale       =       0.3333333333333333 [-]
	 SCS Opposite-Spin Scale   =       1.2000000000000000 [-]
	 SCS Same-Spin Energy      =      -0.0456074650856631 [Eh]
	 SCS Opposite-Spin Energy  =      -0.5870835497633453 [Eh]
	 SCS Correlation Energy    =      -0.6326910148490084 [Eh]
	 SCS Total Energy          =    -477.4355430742278941 [Eh]
	-----------------------------------------------------------

  Dipole Moment: [D]
     X:    -0.0040      Y:    -1.6125      Z:    -0.0268     Total:     1.6127

*** Psi4 exiting successfully. Buy a developer a beer!
