                               Psi4 1.3.2 release

  ==> Input File <==

--------------------------------------------------------------------------
#psi4
#
memory 32 gb

molecule  {
0 1
  C        1.3483249    -0.5377486     0.0000021
  C       -1.3691010    -0.5140340     0.0000020
  S        0.0000000     0.6644630    -0.0000020
  H        1.3483140    -1.1453580    -0.8917230
  H        2.2985940     0.0585020    -0.0005100
  H        1.3488410    -1.1446440     0.8922380
  H       -1.3483150    -1.1453560    -0.8917250
  H       -1.3488400    -1.1446440     0.8922380
  H       -2.2985940     0.0585020    -0.0005080
units angstrom
no_reorient  #important for SAPT in psi4, default
symmetry c1  #important for SAPT in psi4, default
}

set PROPERTIES_ORIGIN ["COM"]
properties('MP2/aug-cc-pvtz', properties = ['dipole'])
--------------------------------------------------------------------------

    Molecular point group: c1
  Charge       = 0
  Multiplicity = 1
  Basis Set: AUG-CC-PVTZ
    Blend: AUG-CC-PVTZ
  Basis Set: (AUG-CC-PVTZ AUX)
    Blend: AUG-CC-PVTZ-JKFIT

    Orbital Energies [Eh]
    ---------------------

    Doubly Occupied:

       1A    -91.945523     2A    -11.250745     3A    -11.250227
       4A     -8.945762     5A     -6.627118     6A     -6.626114
       7A     -6.625119     8A     -1.061178     9A     -0.948965
      10A     -0.807242    11A     -0.607059    12A     -0.596417
      13A     -0.573844    14A     -0.566279    15A     -0.487316
      16A     -0.437768    17A     -0.336941

  @DF-RHF Final Energy:  -476.80194385013112

   => Energetics <=

    Nuclear Repulsion Energy =            110.9954094515089196
    One-Electron Energy =                -876.2074758897736046
    Two-Electron Energy =                 288.4101225881335040
    Total Energy =                       -476.8019438501311242
  Basis Set: (AUG-CC-PVTZ AUX)
    Blend: AUG-CC-PVTZ-RI
    Molecular point group: c1

    Geometry (in Angstrom), charge = 0, multiplicity = 1:

       Center              X                  Y                   Z               Mass
    ------------   -----------------  -----------------  -----------------  -----------------
         C            1.352344847340    -0.604259582189     0.000002175233    12.000000000000
         C           -1.365081052660    -0.580544982189     0.000002075233    12.000000000000
         S            0.004019947340     0.597952017811    -0.000001924767    31.972071174400
         H            1.352333947340    -1.211868982189    -0.891722924767     1.007825032230
         H            2.302613947340    -0.008008982189    -0.000509924767     1.007825032230
         H            1.352860947340    -1.211154982189     0.892238075233     1.007825032230
         H           -1.344295052660    -1.211866982189    -0.891724924767     1.007825032230
         H           -1.344820052660    -1.211154982189     0.892238075233     1.007825032230
         H           -2.294574052660    -0.008008982189    -0.000507924767     1.007825032230

  Basis Set: AUG-CC-PVTZ
    Blend: AUG-CC-PVTZ
  Basis Set: (AUG-CC-PVTZ AUX)
    Blend: AUG-CC-PVTZ-JKFIT
	 Reference Energy          =    -476.8019438501311242 [Eh]
	 Singles Energy            =      -0.0000000000000000 [Eh]
	 Same-Spin Energy          =      -0.1369961236216342 [Eh]
	 Opposite-Spin Energy      =      -0.4893530724844527 [Eh]
	 Correlation Energy        =      -0.6263491961060870 [Eh]
	 Total Energy              =    -477.4282930462372292 [Eh]

	 ================> DF-SCS-MP2 Energies <==================
	-----------------------------------------------------------
	 SCS Same-Spin Scale       =       0.3333333333333333 [-]
	 SCS Opposite-Spin Scale   =       1.2000000000000000 [-]
	 SCS Same-Spin Energy      =      -0.0456653745405447 [Eh]
	 SCS Opposite-Spin Energy  =      -0.5872236869813432 [Eh]
	 SCS Correlation Energy    =      -0.6328890615218880 [Eh]
	 SCS Total Energy          =    -477.4348329116530181 [Eh]
	-----------------------------------------------------------

  Dipole Moment: [D]
     X:    -0.0025      Y:    -1.6038      Z:     0.0000     Total:     1.6038

*** Psi4 exiting successfully. Buy a developer a beer!
