                               Psi4 1.3.2 release

  ==> Input File <==

--------------------------------------------------------------------------
#psi4
#
memory 32 gb

molecule  {
0 1
  C        1.4479737    -0.4156596     0.0000017
  C       -1.3691010    -0.5140340     0.0000020
  S        0.0000000     0.6644630    -0.0000020
  H        1.3483140    -1.1453580    -0.8917230
  H        2.2985940     0.0585020    -0.0005100
  H        1.3488410    -1.1446440     0.8922380
  H       -1.3483150    -1.1453560    -0.8917250
  H       -1.3488400    -1.1446440     0.8922380
  H       -2.2985940     0.0585020    -0.0005080
units angstrom
no_reorient  #important for SAPT in psi4, default
symmetry c1  #important for SAPT in psi4, default
}

set PROPERTIES_ORIGIN ["COM"]
properties('MP2/aug-cc-pvtz', properties = ['dipole'])
--------------------------------------------------------------------------

    Molecular point group: c1
  Charge       = 0
  Multiplicity = 1
  Basis Set: AUG-CC-PVTZ
    Blend: AUG-CC-PVTZ
  Basis Set: (AUG-CC-PVTZ AUX)
    Blend: AUG-CC-PVTZ-JKFIT

    Orbital Energies [Eh]
    ---------------------

    Doubly Occupied:

       1A    -91.944656     2A    -11.253785     3A    -11.253601
       4A     -8.944999     5A     -6.626361     6A     -6.625518
       7A     -6.624454     8A     -1.060659     9A     -0.956117
      10A     -0.809108    11A     -0.624765    12A     -0.594410
      13A     -0.578970    14A     -0.540514    15A     -0.512243
      16A     -0.427169    17A     -0.331738

  @DF-RHF Final Energy:  -476.78472955417914

   => Energetics <=

    Nuclear Repulsion Energy =            110.6746669573528550
    One-Electron Energy =                -875.5006625798514506
    Two-Electron Energy =                 288.0412660683194304
    Total Energy =                       -476.7847295541791368
  Basis Set: (AUG-CC-PVTZ AUX)
    Blend: AUG-CC-PVTZ-RI
    Molecular point group: c1

    Geometry (in Angstrom), charge = 0, multiplicity = 1:

       Center              X                  Y                   Z               Mass
    ------------   -----------------  -----------------  -----------------  -----------------
         C            1.432712698147    -0.505793463810     0.000001852629    12.000000000000
         C           -1.384362001853    -0.604167863810     0.000002152629    12.000000000000
         S           -0.015261001853     0.574329136190    -0.000001847371    31.972071174400
         H            1.333052998147    -1.235491863810    -0.891722847371     1.007825032230
         H            2.283332998147    -0.031631863810    -0.000509847371     1.007825032230
         H            1.333579998147    -1.234777863810     0.892238152629     1.007825032230
         H           -1.363576001853    -1.235489863810    -0.891724847371     1.007825032230
         H           -1.364101001853    -1.234777863810     0.892238152629     1.007825032230
         H           -2.313855001853    -0.031631863810    -0.000507847371     1.007825032230

  Basis Set: AUG-CC-PVTZ
    Blend: AUG-CC-PVTZ
  Basis Set: (AUG-CC-PVTZ AUX)
    Blend: AUG-CC-PVTZ-JKFIT
	 Reference Energy          =    -476.7847295541791368 [Eh]
	 Singles Energy            =      -0.0000000000000000 [Eh]
	 Same-Spin Energy          =      -0.1368462072950566 [Eh]
	 Opposite-Spin Energy      =      -0.4893833763463227 [Eh]
	 Correlation Energy        =      -0.6262295836413794 [Eh]
	 Total Energy              =    -477.4109591378204982 [Eh]

	 ================> DF-SCS-MP2 Energies <==================
	-----------------------------------------------------------
	 SCS Same-Spin Scale       =       0.3333333333333333 [-]
	 SCS Opposite-Spin Scale   =       1.2000000000000000 [-]
	 SCS Same-Spin Energy      =      -0.0456154024316855 [Eh]
	 SCS Opposite-Spin Energy  =      -0.5872600516155873 [Eh]
	 SCS Correlation Energy    =      -0.6328754540472727 [Eh]
	 SCS Total Energy          =    -477.4176050082264169 [Eh]
	-----------------------------------------------------------

  Dipole Moment: [D]
     X:    -0.0320      Y:    -1.6373      Z:     0.0000     Total:     1.6376

*** Psi4 exiting successfully. Buy a developer a beer!
