                               Psi4 1.3.2 release

  ==> Input File <==

--------------------------------------------------------------------------
#psi4
#
memory 32 gb

molecule  {
0 1
  C        1.3691010    -0.5140340     0.0000020
  C       -1.3691010    -0.5140340     0.0000020
  S        0.0207039     0.6868289     0.0551971
  H        1.3483140    -1.1453580    -0.8917230
  H        2.2985940     0.0585020    -0.0005100
  H        1.3488410    -1.1446440     0.8922380
  H       -1.3483150    -1.1453560    -0.8917250
  H       -1.3488400    -1.1446440     0.8922380
  H       -2.2985940     0.0585020    -0.0005080
units angstrom
no_reorient  #important for SAPT in psi4, default
symmetry c1  #important for SAPT in psi4, default
}

set PROPERTIES_ORIGIN ["COM"]
properties('MP2/aug-cc-pvtz', properties = ['dipole'])
--------------------------------------------------------------------------

    Molecular point group: c1
  Charge       = 0
  Multiplicity = 1
  Basis Set: AUG-CC-PVTZ
    Blend: AUG-CC-PVTZ
  Basis Set: (AUG-CC-PVTZ AUX)
    Blend: AUG-CC-PVTZ-JKFIT

    Orbital Energies [Eh]
    ---------------------

    Doubly Occupied:

       1A    -91.946986     2A    -11.252798     3A    -11.250671
       4A     -8.946682     5A     -6.627989     6A     -6.627010
       7A     -6.626032     8A     -1.056392     9A     -0.947896
      10A     -0.808142    11A     -0.601609    12A     -0.599127
      13A     -0.575503    14A     -0.562156    15A     -0.487519
      16A     -0.437060    17A     -0.337220

  @DF-RHF Final Energy:  -476.80216177205801

   => Energetics <=

    Nuclear Repulsion Energy =            110.3321789112186053
    One-Electron Energy =                -874.8870984909378876
    Two-Electron Energy =                 287.7527578076612258
    Total Energy =                       -476.8021617720580139
  Basis Set: (AUG-CC-PVTZ AUX)
    Blend: AUG-CC-PVTZ-RI
    Molecular point group: c1

    Geometry (in Angstrom), charge = 0, multiplicity = 1:

       Center              X                  Y                   Z               Mass
    ------------   -----------------  -----------------  -----------------  -----------------
         C            1.358427717033    -0.596663574915    -0.028454167949    12.000000000000
         C           -1.379774282967    -0.596663574915    -0.028454167949    12.000000000000
         S            0.010030617033     0.604199325085     0.026740932051    31.972071174400
         H            1.337640717033    -1.227987574915    -0.920179167949     1.007825032230
         H            2.287920717033    -0.024127574915    -0.028966167949     1.007825032230
         H            1.338167717033    -1.227273574915     0.863781832051     1.007825032230
         H           -1.358988282967    -1.227985574915    -0.920181167949     1.007825032230
         H           -1.359513282967    -1.227273574915     0.863781832051     1.007825032230
         H           -2.309267282967    -0.024127574915    -0.028964167949     1.007825032230

  Basis Set: AUG-CC-PVTZ
    Blend: AUG-CC-PVTZ
  Basis Set: (AUG-CC-PVTZ AUX)
    Blend: AUG-CC-PVTZ-JKFIT
	 Reference Energy          =    -476.8021617720580139 [Eh]
	 Singles Energy            =      -0.0000000000000000 [Eh]
	 Same-Spin Energy          =      -0.1367534594380463 [Eh]
	 Opposite-Spin Energy      =      -0.4893641459698040 [Eh]
	 Correlation Energy        =      -0.6261176054078503 [Eh]
	 Total Energy              =    -477.4282793774658558 [Eh]

	 ================> DF-SCS-MP2 Energies <==================
	-----------------------------------------------------------
	 SCS Same-Spin Scale       =       0.3333333333333333 [-]
	 SCS Opposite-Spin Scale   =       1.2000000000000000 [-]
	 SCS Same-Spin Energy      =      -0.0455844864793488 [Eh]
	 SCS Opposite-Spin Energy  =      -0.5872369751637647 [Eh]
	 SCS Correlation Energy    =      -0.6328214616431135 [Eh]
	 SCS Total Energy          =    -477.4349832337011321 [Eh]
	-----------------------------------------------------------

  Dipole Moment: [D]
     X:    -0.0085      Y:    -1.6130      Z:    -0.0530     Total:     1.6139

*** Psi4 exiting successfully. Buy a developer a beer!
