                               Psi4 1.3.2 release

  ==> Input File <==

--------------------------------------------------------------------------
#psi4
#
memory 32 gb

molecule  {
0 1
  C        1.3691010    -0.5140340     0.0000020
  C       -1.3691010    -0.5140340     0.0000020
  S       -0.0363806     0.6154528    -0.1103328
  H        1.3483140    -1.1453580    -0.8917230
  H        2.2985940     0.0585020    -0.0005100
  H        1.3488410    -1.1446440     0.8922380
  H       -1.3483150    -1.1453560    -0.8917250
  H       -1.3488400    -1.1446440     0.8922380
  H       -2.2985940     0.0585020    -0.0005080
units angstrom
no_reorient  #important for SAPT in psi4, default
symmetry c1  #important for SAPT in psi4, default
}

set PROPERTIES_ORIGIN ["COM"]
properties('MP2/aug-cc-pvtz', properties = ['dipole'])
--------------------------------------------------------------------------

    Molecular point group: c1
  Charge       = 0
  Multiplicity = 1
  Basis Set: AUG-CC-PVTZ
    Blend: AUG-CC-PVTZ
  Basis Set: (AUG-CC-PVTZ AUX)
    Blend: AUG-CC-PVTZ-JKFIT

    Orbital Energies [Eh]
    ---------------------

    Doubly Occupied:

       1A    -91.941216     2A    -11.250958     3A    -11.247174
       4A     -8.942768     5A     -6.624239     6A     -6.623233
       7A     -6.622165     8A     -1.070287     9A     -0.953774
      10A     -0.804147    11A     -0.606641    12A     -0.603557
      13A     -0.578181    14A     -0.563465    15A     -0.502243
      16A     -0.432380    17A     -0.332314

  @DF-RHF Final Energy:  -476.80058530426362

   => Energetics <=

    Nuclear Repulsion Energy =            112.0578736442526520
    One-Electron Energy =                -878.3194329293129385
    Two-Electron Energy =                 289.4609739807966093
    Total Energy =                       -476.8005853042636204
  Basis Set: (AUG-CC-PVTZ AUX)
    Blend: AUG-CC-PVTZ-RI
    Molecular point group: c1

    Geometry (in Angstrom), charge = 0, multiplicity = 1:

       Center              X                  Y                   Z               Mass
    ------------   -----------------  -----------------  -----------------  -----------------
         C            1.387855941741    -0.559867738750     0.056879873569    12.000000000000
         C           -1.350346058259    -0.559867738750     0.056879873569    12.000000000000
         S           -0.017625658259     0.569619061250    -0.053454926431    31.972071174400
         H            1.367068941741    -1.191191738750    -0.834845126431     1.007825032230
         H            2.317348941741     0.012668261250     0.056367873569     1.007825032230
         H            1.367595941741    -1.190477738750     0.949115873569     1.007825032230
         H           -1.329560058259    -1.191189738750    -0.834847126431     1.007825032230
         H           -1.330085058259    -1.190477738750     0.949115873569     1.007825032230
         H           -2.279839058259     0.012668261250     0.056369873569     1.007825032230

  Basis Set: AUG-CC-PVTZ
    Blend: AUG-CC-PVTZ
  Basis Set: (AUG-CC-PVTZ AUX)
    Blend: AUG-CC-PVTZ-JKFIT
	 Reference Energy          =    -476.8005853042636204 [Eh]
	 Singles Energy            =      -0.0000000000000000 [Eh]
	 Same-Spin Energy          =      -0.1373015008496123 [Eh]
	 Opposite-Spin Energy      =      -0.4889811819240737 [Eh]
	 Correlation Energy        =      -0.6262826827736860 [Eh]
	 Total Energy              =    -477.4268679870373262 [Eh]

	 ================> DF-SCS-MP2 Energies <==================
	-----------------------------------------------------------
	 SCS Same-Spin Scale       =       0.3333333333333333 [-]
	 SCS Opposite-Spin Scale   =       1.2000000000000000 [-]
	 SCS Same-Spin Energy      =      -0.0457671669498707 [Eh]
	 SCS Opposite-Spin Energy  =      -0.5867774183088885 [Eh]
	 SCS Correlation Energy    =      -0.6325445852587592 [Eh]
	 SCS Total Energy          =    -477.4331298895223767 [Eh]
	-----------------------------------------------------------

  Dipole Moment: [D]
     X:     0.0104      Y:    -1.6105      Z:     0.1143     Total:     1.6145

*** Psi4 exiting successfully. Buy a developer a beer!
