                               Psi4 1.4a3.dev225

  ==> Input File <==

--------------------------------------------------------------------------
#psi4
#
memory 32 gb

molecule  {
0 1
  C       -1.3690410    -0.5140960     0.0000000
  C        1.3690410    -0.5140960     0.0000000
  S        0.0151569     0.6775717     0.0000000
  H       -1.3484930    -1.1450300     0.8920030
  H       -2.2985200     0.0584580     0.0000000
  H       -1.3484910    -1.1450350    -0.8920000
  H        1.3484910    -1.1450330     0.8920010
  H        1.3484930    -1.1450320    -0.8920020
  H        2.2985200     0.0584580     0.0000040
units angstrom
no_reorient  #important for SAPT in psi4, default
symmetry c1  #important for SAPT in psi4, default
}

set PROPERTIES_ORIGIN ["COM"]
properties('MP2/aug-cc-pvtz', properties = ['dipole'])
--------------------------------------------------------------------------

    Molecular point group: c1
  Charge       = 0
  Multiplicity = 1
  Basis Set: AUG-CC-PVTZ
    Blend: AUG-CC-PVTZ
  Basis Set: (AUG-CC-PVTZ AUX)
    Blend: AUG-CC-PVTZ-JKFIT

    Orbital Energies [Eh]
    ---------------------

    Doubly Occupied:

       1A    -91.946148     2A    -11.252097     3A    -11.250537
       4A     -8.946100     5A     -6.627430     6A     -6.626453
       7A     -6.625464     8A     -1.058344     9A     -0.948774
      10A     -0.807563    11A     -0.602109    12A     -0.599981
      13A     -0.575711    14A     -0.562384    15A     -0.489969
      16A     -0.436455    17A     -0.336712

  @DF-RHF Final Energy:  -476.80282910107496

   => Energetics <=

    Nuclear Repulsion Energy =            110.5954278403893198
    One-Electron Energy =                -875.4120502172688703
    Two-Electron Energy =                 288.0137932758045736
    Total Energy =                       -476.8028291010749626
  Basis Set: (AUG-CC-PVTZ AUX)
    Blend: AUG-CC-PVTZ-RI
    Molecular point group: c1

    Geometry (in Angstrom), charge = 0, multiplicity = 1:

       Center              X                  Y                   Z               Mass
    ------------   -----------------  -----------------  -----------------  -----------------
         C           -1.376854691266    -0.591925796703    -0.000000097502    12.000000000000
         C            1.361227308734    -0.591925796703    -0.000000097502    12.000000000000
         S            0.007343208734     0.599741903297    -0.000000097502    31.972071174400
         H           -1.356306691266    -1.222859796703     0.892002902498     1.007825032230
         H           -2.306333691266    -0.019371796703    -0.000000097502     1.007825032230
         H           -1.356304691266    -1.222864796703    -0.892000097502     1.007825032230
         H            1.340677308734    -1.222862796703     0.892000902498     1.007825032230
         H            1.340679308734    -1.222861796703    -0.892002097502     1.007825032230
         H            2.290706308734    -0.019371796703     0.000003902498     1.007825032230

  Basis Set: AUG-CC-PVTZ
    Blend: AUG-CC-PVTZ
  Basis Set: (AUG-CC-PVTZ AUX)
    Blend: AUG-CC-PVTZ-JKFIT
	 Reference Energy          =    -476.8028291010749626 [Eh]
	 Singles Energy            =      -0.0000000000000000 [Eh]
	 Same-Spin Energy          =      -0.1368128185635926 [Eh]
	 Opposite-Spin Energy      =      -0.4892479267603415 [Eh]
	 Correlation Energy        =      -0.6260607453239341 [Eh]
	 Total Energy              =    -477.4288898463988744 [Eh]

	 ================> DF-SCS-MP2 Energies <==================
	-----------------------------------------------------------
	 SCS Same-Spin Scale       =       0.3333333333333333 [-]
	 SCS Opposite-Spin Scale   =       1.2000000000000000 [-]
	 SCS Same-Spin Energy      =      -0.0456042728545309 [Eh]
	 SCS Opposite-Spin Energy  =      -0.5870975121124097 [Eh]
	 SCS Correlation Energy    =      -0.6327017849669405 [Eh]
	 SCS Total Energy          =    -477.4355308860419314 [Eh]
	-----------------------------------------------------------

  Dipole Moment: [D]
     X:    -0.0060      Y:    -1.6126      Z:     0.0000     Total:     1.6126

*** Psi4 exiting successfully. Buy a developer a beer!
