                               Psi4 1.3.2 release

  ==> Input File <==

--------------------------------------------------------------------------
#psi4
#
memory 32 gb

molecule  {
0 1
  C        1.3691010    -0.5140340     0.0000020
  C       -1.3691010    -0.5140340     0.0000020
  S       -0.1515785     0.7949389    -0.0000024
  H        1.3483140    -1.1453580    -0.8917230
  H        2.2985940     0.0585020    -0.0005100
  H        1.3488410    -1.1446440     0.8922380
  H       -1.3483150    -1.1453560    -0.8917250
  H       -1.3488400    -1.1446440     0.8922380
  H       -2.2985940     0.0585020    -0.0005080
units angstrom
no_reorient  #important for SAPT in psi4, default
symmetry c1  #important for SAPT in psi4, default
}

set PROPERTIES_ORIGIN ["COM"]
properties('MP2/aug-cc-pvtz', properties = ['dipole'])
--------------------------------------------------------------------------

    Molecular point group: c1
  Charge       = 0
  Multiplicity = 1
  Basis Set: AUG-CC-PVTZ
    Blend: AUG-CC-PVTZ
  Basis Set: (AUG-CC-PVTZ AUX)
    Blend: AUG-CC-PVTZ-JKFIT

    Orbital Energies [Eh]
    ---------------------

    Doubly Occupied:

       1A    -91.954247     2A    -11.263680     3A    -11.248676
       4A     -8.952057     5A     -6.633180     6A     -6.632091
       7A     -6.631182     8A     -1.043033     9A     -0.939457
      10A     -0.812290    11A     -0.596791    12A     -0.595438
      13A     -0.571808    14A     -0.561703    15A     -0.474058
      16A     -0.428653    17A     -0.342155

  @DF-RHF Final Energy:  -476.78602131410474

   => Energetics <=

    Nuclear Repulsion Energy =            107.7836610602735874
    One-Electron Energy =                -869.7783670136259389
    Two-Electron Energy =                 285.2086846392475650
    Total Energy =                       -476.7860213141047439
  Basis Set: (AUG-CC-PVTZ AUX)
    Blend: AUG-CC-PVTZ-RI
    Molecular point group: c1

    Geometry (in Angstrom), charge = 0, multiplicity = 1:

       Center              X                  Y                   Z               Mass
    ------------   -----------------  -----------------  -----------------  -----------------
         C            1.447242810103    -0.652396486180     0.000002300790    12.000000000000
         C           -1.290959189897    -0.652396486180     0.000002300790    12.000000000000
         S           -0.073436689897     0.656576413820    -0.000002099210    31.972071174400
         H            1.426455810103    -1.283720486180    -0.891722699210     1.007825032230
         H            2.376735810103    -0.079860486180    -0.000509699210     1.007825032230
         H            1.426982810103    -1.283006486180     0.892238300790     1.007825032230
         H           -1.270173189897    -1.283718486180    -0.891724699210     1.007825032230
         H           -1.270698189897    -1.283006486180     0.892238300790     1.007825032230
         H           -2.220452189897    -0.079860486180    -0.000507699210     1.007825032230

  Basis Set: AUG-CC-PVTZ
    Blend: AUG-CC-PVTZ
  Basis Set: (AUG-CC-PVTZ AUX)
    Blend: AUG-CC-PVTZ-JKFIT
	 Reference Energy          =    -476.7860213141047439 [Eh]
	 Singles Energy            =      -0.0000000000000000 [Eh]
	 Same-Spin Energy          =      -0.1364505570090177 [Eh]
	 Opposite-Spin Energy      =      -0.4912253853587709 [Eh]
	 Correlation Energy        =      -0.6276759423677887 [Eh]
	 Total Energy              =    -477.4136972564725170 [Eh]

	 ================> DF-SCS-MP2 Energies <==================
	-----------------------------------------------------------
	 SCS Same-Spin Scale       =       0.3333333333333333 [-]
	 SCS Opposite-Spin Scale   =       1.2000000000000000 [-]
	 SCS Same-Spin Energy      =      -0.0454835190030059 [Eh]
	 SCS Opposite-Spin Energy  =      -0.5894704624305250 [Eh]
	 SCS Correlation Energy    =      -0.6349539814335310 [Eh]
	 SCS Total Energy          =    -477.4209752955382555 [Eh]
	-----------------------------------------------------------

  Dipole Moment: [D]
     X:     0.0811      Y:    -1.6311      Z:     0.0000     Total:     1.6331

*** Psi4 exiting successfully. Buy a developer a beer!
