                               Psi4 1.3.2 release

  ==> Input File <==

--------------------------------------------------------------------------
#psi4
#
memory 32 gb

molecule  {
0 1
  C        1.3691010    -0.5140340     0.0000020
  C       -1.3691010    -0.5140340     0.0000020
  S       -0.0520129     0.5888682    -0.1653302
  H        1.3483140    -1.1453580    -0.8917230
  H        2.2985940     0.0585020    -0.0005100
  H        1.3488410    -1.1446440     0.8922380
  H       -1.3483150    -1.1453560    -0.8917250
  H       -1.3488400    -1.1446440     0.8922380
  H       -2.2985940     0.0585020    -0.0005080
units angstrom
no_reorient  #important for SAPT in psi4, default
symmetry c1  #important for SAPT in psi4, default
}

set PROPERTIES_ORIGIN ["COM"]
properties('MP2/aug-cc-pvtz', properties = ['dipole'])
--------------------------------------------------------------------------

    Molecular point group: c1
  Charge       = 0
  Multiplicity = 1
  Basis Set: AUG-CC-PVTZ
    Blend: AUG-CC-PVTZ
  Basis Set: (AUG-CC-PVTZ AUX)
    Blend: AUG-CC-PVTZ-JKFIT

    Orbital Energies [Eh]
    ---------------------

    Doubly Occupied:

       1A    -91.939326     2A    -11.250985     3A    -11.245556
       4A     -8.941540     5A     -6.623072     6A     -6.622026
       7A     -6.620926     8A     -1.075155     9A     -0.955547
      10A     -0.802821    11A     -0.608780    12A     -0.604680
      13A     -0.579672    14A     -0.563824    15A     -0.505764
      16A     -0.430805    17A     -0.329977

  @DF-RHF Final Energy:  -476.79704098928420

   => Energetics <=

    Nuclear Repulsion Energy =            112.5877892070921291
    One-Electron Energy =                -879.3687475950524686
    Two-Electron Energy =                 289.9839173986761693
    Total Energy =                       -476.7970409892841985
  Basis Set: (AUG-CC-PVTZ AUX)
    Blend: AUG-CC-PVTZ-RI
    Molecular point group: c1

    Geometry (in Angstrom), charge = 0, multiplicity = 1:

       Center              X                  Y                   Z               Mass
    ------------   -----------------  -----------------  -----------------  -----------------
         C            1.395914711408    -0.546162834922     0.085232155634    12.000000000000
         C           -1.342287288592    -0.546162834922     0.085232155634    12.000000000000
         S           -0.025199188592     0.556739365078    -0.080100044366    31.972071174400
         H            1.375127711408    -1.177486834922    -0.806492844366     1.007825032230
         H            2.325407711408     0.026373165078     0.084720155634     1.007825032230
         H            1.375654711408    -1.176772834922     0.977468155634     1.007825032230
         H           -1.321501288592    -1.177484834922    -0.806494844366     1.007825032230
         H           -1.322026288592    -1.176772834922     0.977468155634     1.007825032230
         H           -2.271780288592     0.026373165078     0.084722155634     1.007825032230

  Basis Set: AUG-CC-PVTZ
    Blend: AUG-CC-PVTZ
  Basis Set: (AUG-CC-PVTZ AUX)
    Blend: AUG-CC-PVTZ-JKFIT
	 Reference Energy          =    -476.7970409892841985 [Eh]
	 Singles Energy            =      -0.0000000000000000 [Eh]
	 Same-Spin Energy          =      -0.1375474471137036 [Eh]
	 Opposite-Spin Energy      =      -0.4890450420495033 [Eh]
	 Correlation Energy        =      -0.6265924891632070 [Eh]
	 Total Energy              =    -477.4236334784474138 [Eh]

	 ================> DF-SCS-MP2 Energies <==================
	-----------------------------------------------------------
	 SCS Same-Spin Scale       =       0.3333333333333333 [-]
	 SCS Opposite-Spin Scale   =       1.2000000000000000 [-]
	 SCS Same-Spin Energy      =      -0.0458491490379012 [Eh]
	 SCS Opposite-Spin Energy  =      -0.5868540504594040 [Eh]
	 SCS Correlation Energy    =      -0.6327031994973051 [Eh]
	 SCS Total Energy          =    -477.4297441887815125 [Eh]
	-----------------------------------------------------------

  Dipole Moment: [D]
     X:     0.0125      Y:    -1.6093      Z:     0.1757     Total:     1.6189

*** Psi4 exiting successfully. Buy a developer a beer!
