                               Psi4 1.3.2 release

  ==> Input File <==

--------------------------------------------------------------------------
#psi4
#
memory 32 gb

molecule  {
0 1
  C        1.3691010    -0.5140340     0.0000020
  C       -1.3691010    -0.5140340     0.0000020
  S        0.0670130     0.7271459     0.1653262
  H        1.3483140    -1.1453580    -0.8917230
  H        2.2985940     0.0585020    -0.0005100
  H        1.3488410    -1.1446440     0.8922380
  H       -1.3483150    -1.1453560    -0.8917250
  H       -1.3488400    -1.1446440     0.8922380
  H       -2.2985940     0.0585020    -0.0005080
units angstrom
no_reorient  #important for SAPT in psi4, default
symmetry c1  #important for SAPT in psi4, default
}

set PROPERTIES_ORIGIN ["COM"]
properties('MP2/aug-cc-pvtz', properties = ['dipole'])
--------------------------------------------------------------------------

    Molecular point group: c1
  Charge       = 0
  Multiplicity = 1
  Basis Set: AUG-CC-PVTZ
    Blend: AUG-CC-PVTZ
  Basis Set: (AUG-CC-PVTZ AUX)
    Blend: AUG-CC-PVTZ-JKFIT

    Orbital Energies [Eh]
    ---------------------

    Doubly Occupied:

       1A    -91.950650     2A    -11.257148     3A    -11.250324
       4A     -8.949297     5A     -6.630503     6A     -6.629493
       7A     -6.628552     8A     -1.048449     9A     -0.943853
      10A     -0.810550    11A     -0.599721    12A     -0.595624
      13A     -0.574693    14A     -0.561223    15A     -0.477045
      16A     -0.437734    17A     -0.339080

  @DF-RHF Final Energy:  -476.79573855972762

   => Energetics <=

    Nuclear Repulsion Energy =            109.1187896469793799
    One-Electron Energy =                -872.4611768571016910
    Two-Electron Energy =                 286.5466486503946726
    Total Energy =                       -476.7957385597276243
  Basis Set: (AUG-CC-PVTZ AUX)
    Blend: AUG-CC-PVTZ-RI
    Molecular point group: c1

    Geometry (in Angstrom), charge = 0, multiplicity = 1:

       Center              X                  Y                   Z               Mass
    ------------   -----------------  -----------------  -----------------  -----------------
         C            1.334554430926    -0.617447811188    -0.085227966469    12.000000000000
         C           -1.403647569074    -0.617447811188    -0.085227966469    12.000000000000
         S            0.032466430926     0.623732088812     0.080096233531    31.972071174400
         H            1.313767430926    -1.248771811188    -0.976952966469     1.007825032230
         H            2.264047430926    -0.044911811188    -0.085739966469     1.007825032230
         H            1.314294430926    -1.248057811188     0.807008033531     1.007825032230
         H           -1.382861569074    -1.248769811188    -0.976954966469     1.007825032230
         H           -1.383386569074    -1.248057811188     0.807008033531     1.007825032230
         H           -2.333140569074    -0.044911811188    -0.085737966469     1.007825032230

  Basis Set: AUG-CC-PVTZ
    Blend: AUG-CC-PVTZ
  Basis Set: (AUG-CC-PVTZ AUX)
    Blend: AUG-CC-PVTZ-JKFIT
	 Reference Energy          =    -476.7957385597276243 [Eh]
	 Singles Energy            =      -0.0000000000000000 [Eh]
	 Same-Spin Energy          =      -0.1365786631300885 [Eh]
	 Opposite-Spin Energy      =      -0.4901497717675294 [Eh]
	 Correlation Energy        =      -0.6267284348976179 [Eh]
	 Total Energy              =    -477.4224669946252675 [Eh]

	 ================> DF-SCS-MP2 Energies <==================
	-----------------------------------------------------------
	 SCS Same-Spin Scale       =       0.3333333333333333 [-]
	 SCS Opposite-Spin Scale   =       1.2000000000000000 [-]
	 SCS Same-Spin Energy      =      -0.0455262210433628 [Eh]
	 SCS Opposite-Spin Energy  =      -0.5881797261210352 [Eh]
	 SCS Correlation Energy    =      -0.6337059471643980 [Eh]
	 SCS Total Energy          =    -477.4294445068920254 [Eh]
	-----------------------------------------------------------

  Dipole Moment: [D]
     X:    -0.0322      Y:    -1.6159      Z:    -0.1516     Total:     1.6234

*** Psi4 exiting successfully. Buy a developer a beer!
