                               Psi4 1.3.2 release

  ==> Input File <==

--------------------------------------------------------------------------
#psi4
#
memory 32 gb

molecule  {
0 1
  C        1.2384144    -0.6506881     0.0000025
  C       -1.3691010    -0.5140340     0.0000020
  S        0.0000000     0.6644630    -0.0000020
  H        1.3483140    -1.1453580    -0.8917230
  H        2.2985940     0.0585020    -0.0005100
  H        1.3488410    -1.1446440     0.8922380
  H       -1.3483150    -1.1453560    -0.8917250
  H       -1.3488400    -1.1446440     0.8922380
  H       -2.2985940     0.0585020    -0.0005080
units angstrom
no_reorient  #important for SAPT in psi4, default
symmetry c1  #important for SAPT in psi4, default
}

set PROPERTIES_ORIGIN ["COM"]
properties('MP2/aug-cc-pvtz', properties = ['dipole'])
--------------------------------------------------------------------------

    Molecular point group: c1
  Charge       = 0
  Multiplicity = 1
  Basis Set: AUG-CC-PVTZ
    Blend: AUG-CC-PVTZ
  Basis Set: (AUG-CC-PVTZ AUX)
    Blend: AUG-CC-PVTZ-JKFIT

    Orbital Energies [Eh]
    ---------------------

    Doubly Occupied:

       1A    -91.949528     2A    -11.254673     3A    -11.248424
       4A     -8.949407     5A     -6.630734     6A     -6.629610
       7A     -6.628649     8A     -1.064671     9A     -0.946451
      10A     -0.811874    11A     -0.634694    12A     -0.590372
      13A     -0.575099    14A     -0.552140    15A     -0.461968
      16A     -0.440576    17A     -0.342171

  @DF-RHF Final Energy:  -476.77182252484306

   => Energetics <=

    Nuclear Repulsion Energy =            111.3646717780202664
    One-Electron Energy =                -876.8509071126143226
    Two-Electron Energy =                 288.7144128097510247
    Total Energy =                       -476.7718225248430599
  Basis Set: (AUG-CC-PVTZ AUX)
    Blend: AUG-CC-PVTZ-RI
    Molecular point group: c1

    Geometry (in Angstrom), charge = 0, multiplicity = 1:

       Center              X                  Y                   Z               Mass
    ------------   -----------------  -----------------  -----------------  -----------------
         C            1.263700822865    -0.695346528406     0.000002497838    12.000000000000
         C           -1.343814577135    -0.558692428406     0.000001997838    12.000000000000
         S            0.025286422865     0.619804571594    -0.000002002162    31.972071174400
         H            1.373600422865    -1.190016428406    -0.891723002162     1.007825032230
         H            2.323880422865     0.013843571594    -0.000510002162     1.007825032230
         H            1.374127422865    -1.189302428406     0.892237997838     1.007825032230
         H           -1.323028577135    -1.190014428406    -0.891725002162     1.007825032230
         H           -1.323553577135    -1.189302428406     0.892237997838     1.007825032230
         H           -2.273307577135     0.013843571594    -0.000508002162     1.007825032230

  Basis Set: AUG-CC-PVTZ
    Blend: AUG-CC-PVTZ
  Basis Set: (AUG-CC-PVTZ AUX)
    Blend: AUG-CC-PVTZ-JKFIT
	 Reference Energy          =    -476.7718225248430599 [Eh]
	 Singles Energy            =      -0.0000000000000000 [Eh]
	 Same-Spin Energy          =      -0.1379248329801659 [Eh]
	 Opposite-Spin Energy      =      -0.4918398558992914 [Eh]
	 Correlation Energy        =      -0.6297646888794572 [Eh]
	 Total Energy              =    -477.4015872137225074 [Eh]

	 ================> DF-SCS-MP2 Energies <==================
	-----------------------------------------------------------
	 SCS Same-Spin Scale       =       0.3333333333333333 [-]
	 SCS Opposite-Spin Scale   =       1.2000000000000000 [-]
	 SCS Same-Spin Energy      =      -0.0459749443267220 [Eh]
	 SCS Opposite-Spin Energy  =      -0.5902078270791496 [Eh]
	 SCS Correlation Energy    =      -0.6361827714058716 [Eh]
	 SCS Total Energy          =    -477.4080052962489162 [Eh]
	-----------------------------------------------------------

  Dipole Moment: [D]
     X:    -0.0637      Y:    -1.5518      Z:     0.0001     Total:     1.5531

*** Psi4 exiting successfully. Buy a developer a beer!
