                               Psi4 1.3.2 release

  ==> Input File <==

--------------------------------------------------------------------------
#psi4
#
memory 32 gb

molecule  {
0 1
  C        1.3691010    -0.5140340     0.0000020
  C       -1.3691010    -0.5140340     0.0000020
  S       -0.0190359     0.6406613    -0.0552010
  H        1.3483140    -1.1453580    -0.8917230
  H        2.2985940     0.0585020    -0.0005100
  H        1.3488410    -1.1446440     0.8922380
  H       -1.3483150    -1.1453560    -0.8917250
  H       -1.3488400    -1.1446440     0.8922380
  H       -2.2985940     0.0585020    -0.0005080
units angstrom
no_reorient  #important for SAPT in psi4, default
symmetry c1  #important for SAPT in psi4, default
}

set PROPERTIES_ORIGIN ["COM"]
properties('MP2/aug-cc-pvtz', properties = ['dipole'])
--------------------------------------------------------------------------

    Molecular point group: c1
  Charge       = 0
  Multiplicity = 1
  Basis Set: AUG-CC-PVTZ
    Blend: AUG-CC-PVTZ
  Basis Set: (AUG-CC-PVTZ AUX)
    Blend: AUG-CC-PVTZ-JKFIT

    Orbital Energies [Eh]
    ---------------------

    Doubly Occupied:

       1A    -91.943143     2A    -11.250895     3A    -11.248923
       4A     -8.944048     5A     -6.625462     6A     -6.624478
       7A     -6.623443     8A     -1.065479     9A     -0.951891
      10A     -0.805494    11A     -0.604626    12A     -0.602313
      13A     -0.577024    14A     -0.563064    15A     -0.497886
      16A     -0.434064    17A     -0.334280

  @DF-RHF Final Energy:  -476.80263824453698

   => Energetics <=

    Nuclear Repulsion Energy =            111.5017517649676080
    One-Electron Energy =                -877.2157533344520743
    Two-Electron Energy =                 288.9113633249475015
    Total Energy =                       -476.8026382445369791
  Basis Set: (AUG-CC-PVTZ AUX)
    Blend: AUG-CC-PVTZ-RI
    Molecular point group: c1

    Geometry (in Angstrom), charge = 0, multiplicity = 1:

       Center              X                  Y                   Z               Mass
    ------------   -----------------  -----------------  -----------------  -----------------
         C            1.378914394927    -0.572863234945     0.028458305561    12.000000000000
         C           -1.359287605073    -0.572863234945     0.028458305561    12.000000000000
         S           -0.009222505073     0.581832065055    -0.026744694439    31.972071174400
         H            1.358127394927    -1.204187234945    -0.863266694439     1.007825032230
         H            2.308407394927    -0.000327234945     0.027946305561     1.007825032230
         H            1.358654394927    -1.203473234945     0.920694305561     1.007825032230
         H           -1.338501605073    -1.204185234945    -0.863268694439     1.007825032230
         H           -1.339026605073    -1.203473234945     0.920694305561     1.007825032230
         H           -2.288780605073    -0.000327234945     0.027948305561     1.007825032230

  Basis Set: AUG-CC-PVTZ
    Blend: AUG-CC-PVTZ
  Basis Set: (AUG-CC-PVTZ AUX)
    Blend: AUG-CC-PVTZ-JKFIT
	 Reference Energy          =    -476.8026382445369791 [Eh]
	 Singles Energy            =      -0.0000000000000000 [Eh]
	 Same-Spin Energy          =      -0.1370846681337982 [Eh]
	 Opposite-Spin Energy      =      -0.4890090951722122 [Eh]
	 Correlation Energy        =      -0.6260937633060104 [Eh]
	 Total Energy              =    -477.4287320078429957 [Eh]

	 ================> DF-SCS-MP2 Energies <==================
	-----------------------------------------------------------
	 SCS Same-Spin Scale       =       0.3333333333333333 [-]
	 SCS Opposite-Spin Scale   =       1.2000000000000000 [-]
	 SCS Same-Spin Energy      =      -0.0456948893779327 [Eh]
	 SCS Opposite-Spin Energy  =      -0.5868109142066547 [Eh]
	 SCS Correlation Energy    =      -0.6325058035845874 [Eh]
	 SCS Total Energy          =    -477.4351440481215718 [Eh]
	-----------------------------------------------------------

  Dipole Moment: [D]
     X:     0.0063      Y:    -1.6113      Z:     0.0557     Total:     1.6123

*** Psi4 exiting successfully. Buy a developer a beer!
