                               Psi4 1.3.2 release

  ==> Input File <==

--------------------------------------------------------------------------
#psi4
#
memory 32 gb

molecule  {
0 1
  C        1.3691010    -0.5140340     0.0000020
  C       -1.3691010    -0.5140340     0.0000020
  S        0.1515785     0.5339871    -0.0000016
  H        1.3483140    -1.1453580    -0.8917230
  H        2.2985940     0.0585020    -0.0005100
  H        1.3488410    -1.1446440     0.8922380
  H       -1.3483150    -1.1453560    -0.8917250
  H       -1.3488400    -1.1446440     0.8922380
  H       -2.2985940     0.0585020    -0.0005080
units angstrom
no_reorient  #important for SAPT in psi4, default
symmetry c1  #important for SAPT in psi4, default
}

set PROPERTIES_ORIGIN ["COM"]
properties('MP2/aug-cc-pvtz', properties = ['dipole'])
--------------------------------------------------------------------------

    Molecular point group: c1
  Charge       = 0
  Multiplicity = 1
  Basis Set: AUG-CC-PVTZ
    Blend: AUG-CC-PVTZ
  Basis Set: (AUG-CC-PVTZ AUX)
    Blend: AUG-CC-PVTZ-JKFIT

    Orbital Energies [Eh]
    ---------------------

    Doubly Occupied:

       1A    -91.932027     2A    -11.253484     3A    -11.238020
       4A     -8.937307     5A     -6.619251     6A     -6.617648
       7A     -6.616534     8A     -1.099510     9A     -0.958709
      10A     -0.797229    11A     -0.616514    12A     -0.615878
      13A     -0.577957    14A     -0.566150    15A     -0.524840
      16A     -0.418495    17A     -0.324657

  @DF-RHF Final Energy:  -476.77789125926699

   => Energetics <=

    Nuclear Repulsion Energy =            114.5028704465685081
    One-Electron Energy =                -883.1331052608702521
    Two-Electron Energy =                 291.8523435550347358
    Total Energy =                       -476.7778912592669940
  Basis Set: (AUG-CC-PVTZ AUX)
    Blend: AUG-CC-PVTZ-RI
    Molecular point group: c1

    Geometry (in Angstrom), charge = 0, multiplicity = 1:

       Center              X                  Y                   Z               Mass
    ------------   -----------------  -----------------  -----------------  -----------------
         C            1.290959189897    -0.517870507881     0.000001888374    12.000000000000
         C           -1.447242810103    -0.517870507881     0.000001888374    12.000000000000
         S            0.073436689897     0.530150592119    -0.000001711626    31.972071174400
         H            1.270172189897    -1.149194507881    -0.891723111626     1.007825032230
         H            2.220452189897     0.054665492119    -0.000510111626     1.007825032230
         H            1.270699189897    -1.148480507881     0.892237888374     1.007825032230
         H           -1.426456810103    -1.149192507881    -0.891725111626     1.007825032230
         H           -1.426981810103    -1.148480507881     0.892237888374     1.007825032230
         H           -2.376735810103     0.054665492119    -0.000508111626     1.007825032230

  Basis Set: AUG-CC-PVTZ
    Blend: AUG-CC-PVTZ
  Basis Set: (AUG-CC-PVTZ AUX)
    Blend: AUG-CC-PVTZ-JKFIT
	 Reference Energy          =    -476.7778912592669940 [Eh]
	 Singles Energy            =      -0.0000000000000000 [Eh]
	 Same-Spin Energy          =      -0.1385074569209318 [Eh]
	 Opposite-Spin Energy      =      -0.4894483015732540 [Eh]
	 Correlation Energy        =      -0.6279557584941858 [Eh]
	 Total Energy              =    -477.4058470177611753 [Eh]

	 ================> DF-SCS-MP2 Energies <==================
	-----------------------------------------------------------
	 SCS Same-Spin Scale       =       0.3333333333333333 [-]
	 SCS Opposite-Spin Scale   =       1.2000000000000000 [-]
	 SCS Same-Spin Energy      =      -0.0461691523069773 [Eh]
	 SCS Opposite-Spin Energy  =      -0.5873379618879048 [Eh]
	 SCS Correlation Energy    =      -0.6335071141948820 [Eh]
	 SCS Total Energy          =    -477.4113983734618500 [Eh]
	-----------------------------------------------------------

  Dipole Moment: [D]
     X:    -0.0095      Y:    -1.6113      Z:    -0.0000     Total:     1.6113

*** Psi4 exiting successfully. Buy a developer a beer!
