                               Psi4 1.3.2 release

  ==> Input File <==

--------------------------------------------------------------------------
#psi4
#
memory 32 gb

molecule  {
0 1
  C        1.3894601    -0.4899604     0.0000019
  C       -1.3691010    -0.5140340     0.0000020
  S        0.0000000     0.6644630    -0.0000020
  H        1.3483140    -1.1453580    -0.8917230
  H        2.2985940     0.0585020    -0.0005100
  H        1.3488410    -1.1446440     0.8922380
  H       -1.3483150    -1.1453560    -0.8917250
  H       -1.3488400    -1.1446440     0.8922380
  H       -2.2985940     0.0585020    -0.0005080
units angstrom
no_reorient  #important for SAPT in psi4, default
symmetry c1  #important for SAPT in psi4, default
}

set PROPERTIES_ORIGIN ["COM"]
properties('MP2/aug-cc-pvtz', properties = ['dipole'])
--------------------------------------------------------------------------

    Molecular point group: c1
  Charge       = 0
  Multiplicity = 1
  Basis Set: AUG-CC-PVTZ
    Blend: AUG-CC-PVTZ
  Basis Set: (AUG-CC-PVTZ AUX)
    Blend: AUG-CC-PVTZ-JKFIT

    Orbital Energies [Eh]
    ---------------------

    Doubly Occupied:

       1A    -91.944761     2A    -11.251441     3A    -11.251118
       4A     -8.945078     5A     -6.626439     6A     -6.625495
       7A     -6.624477     8A     -1.060588     9A     -0.951087
      10A     -0.806742    11A     -0.606320    12A     -0.599646
      13A     -0.577552    14A     -0.558100    15A     -0.498175
      16A     -0.433572    17A     -0.334867

  @DF-RHF Final Energy:  -476.80227409054078

   => Energetics <=

    Nuclear Repulsion Energy =            110.8568134626686970
    One-Electron Energy =                -875.9272594758929245
    Two-Electron Energy =                 288.2681719226834502
    Total Energy =                       -476.8022740905407773
  Basis Set: (AUG-CC-PVTZ AUX)
    Blend: AUG-CC-PVTZ-RI
    Molecular point group: c1

    Geometry (in Angstrom), charge = 0, multiplicity = 1:

       Center              X                  Y                   Z               Mass
    ------------   -----------------  -----------------  -----------------  -----------------
         C            1.385520837583    -0.565717874432     0.000002013931    12.000000000000
         C           -1.373040262417    -0.589791474432     0.000002113931    12.000000000000
         S           -0.003939262417     0.588705525568    -0.000001886069    31.972071174400
         H            1.344374737583    -1.221115474432    -0.891722886069     1.007825032230
         H            2.294654737583    -0.017255474432    -0.000509886069     1.007825032230
         H            1.344901737583    -1.220401474432     0.892238113931     1.007825032230
         H           -1.352254262417    -1.221113474432    -0.891724886069     1.007825032230
         H           -1.352779262417    -1.220401474432     0.892238113931     1.007825032230
         H           -2.302533262417    -0.017255474432    -0.000507886069     1.007825032230

  Basis Set: AUG-CC-PVTZ
    Blend: AUG-CC-PVTZ
  Basis Set: (AUG-CC-PVTZ AUX)
    Blend: AUG-CC-PVTZ-JKFIT
	 Reference Energy          =    -476.8022740905407773 [Eh]
	 Singles Energy            =      -0.0000000000000000 [Eh]
	 Same-Spin Energy          =      -0.1368374873231240 [Eh]
	 Opposite-Spin Energy      =      -0.4890227276774997 [Eh]
	 Correlation Energy        =      -0.6258602150006237 [Eh]
	 Total Energy              =    -477.4281343055413913 [Eh]

	 ================> DF-SCS-MP2 Energies <==================
	-----------------------------------------------------------
	 SCS Same-Spin Scale       =       0.3333333333333333 [-]
	 SCS Opposite-Spin Scale   =       1.2000000000000000 [-]
	 SCS Same-Spin Energy      =      -0.0456124957743747 [Eh]
	 SCS Opposite-Spin Energy  =      -0.5868272732129997 [Eh]
	 SCS Correlation Energy    =      -0.6324397689873743 [Eh]
	 SCS Total Energy          =    -477.4347138595281308 [Eh]
	-----------------------------------------------------------

  Dipole Moment: [D]
     X:    -0.0015      Y:    -1.6197      Z:     0.0000     Total:     1.6197

*** Psi4 exiting successfully. Buy a developer a beer!
