                               Psi4 1.3.2 release

  ==> Input File <==

--------------------------------------------------------------------------
#psi4
#
memory 32 gb

molecule  {
0 1
  C        1.3691010    -0.5140340     0.0000020
  C       -1.3691010    -0.5140340     0.0000020
  S        0.0000000     0.6644630    -0.0000020
  H        1.3483140    -1.1453580    -0.8917230
  H        2.2985940     0.0585020    -0.0005100
  H        1.3488410    -1.1446440     0.8922380
  H       -1.3483150    -1.1453560    -0.8917250
  H       -1.3488400    -1.1446440     0.8922380
  H       -2.2985940     0.0585020    -0.0005080
units angstrom
no_reorient  #important for SAPT in psi4, default
symmetry c1  #important for SAPT in psi4, default
}

set PROPERTIES_ORIGIN ["COM"]
properties('MP2/aug-cc-pvtz', properties = ['dipole'])
--------------------------------------------------------------------------

    Molecular point group: c1
  Charge       = 0
  Multiplicity = 1
  Basis Set: AUG-CC-PVTZ
    Blend: AUG-CC-PVTZ
  Basis Set: (AUG-CC-PVTZ AUX)
    Blend: AUG-CC-PVTZ-JKFIT

    Orbital Energies [Eh]
    ---------------------

    Doubly Occupied:

       1A    -91.945076     2A    -11.250804     3A    -11.250794
       4A     -8.945359     5A     -6.626718     6A     -6.625743
       7A     -6.624737     8A     -1.060821     9A     -0.949921
      10A     -0.806835    11A     -0.602919    12A     -0.600843
      13A     -0.576150    14A     -0.562624    15A     -0.492892
      16A     -0.435696    17A     -0.335904

  @DF-RHF Final Energy:  -476.80316342150536

   => Energetics <=

    Nuclear Repulsion Energy =            110.9248059041921550
    One-Electron Energy =                -876.0682657420665009
    Two-Electron Energy =                 288.3402964163690285
    Total Energy =                       -476.8031634215053600
  Basis Set: (AUG-CC-PVTZ AUX)
    Blend: AUG-CC-PVTZ-RI
    Molecular point group: c1

    Geometry (in Angstrom), charge = 0, multiplicity = 1:

       Center              X                  Y                   Z               Mass
    ------------   -----------------  -----------------  -----------------  -----------------
         C            1.369101000000    -0.585133497030     0.000002094582    12.000000000000
         C           -1.369101000000    -0.585133497030     0.000002094582    12.000000000000
         S            0.000000000000     0.593363502970    -0.000001905418    31.972071174400
         H            1.348314000000    -1.216457497030    -0.891722905418     1.007825032230
         H            2.298594000000    -0.012597497030    -0.000509905418     1.007825032230
         H            1.348841000000    -1.215743497030     0.892238094582     1.007825032230
         H           -1.348315000000    -1.216455497030    -0.891724905418     1.007825032230
         H           -1.348840000000    -1.215743497030     0.892238094582     1.007825032230
         H           -2.298594000000    -0.012597497030    -0.000507905418     1.007825032230

  Basis Set: AUG-CC-PVTZ
    Blend: AUG-CC-PVTZ
  Basis Set: (AUG-CC-PVTZ AUX)
    Blend: AUG-CC-PVTZ-JKFIT
	 Reference Energy          =    -476.8031634215053600 [Eh]
	 Singles Energy            =      -0.0000000000000000 [Eh]
	 Same-Spin Energy          =      -0.1369008328597159 [Eh]
	 Opposite-Spin Energy      =      -0.4891349118305149 [Eh]
	 Correlation Energy        =      -0.6260357446902308 [Eh]
	 Total Energy              =    -477.4291991661955876 [Eh]

	 ================> DF-SCS-MP2 Energies <==================
	-----------------------------------------------------------
	 SCS Same-Spin Scale       =       0.3333333333333333 [-]
	 SCS Opposite-Spin Scale   =       1.2000000000000000 [-]
	 SCS Same-Spin Energy      =      -0.0456336109532386 [Eh]
	 SCS Opposite-Spin Energy  =      -0.5869618941966178 [Eh]
	 SCS Correlation Energy    =      -0.6325955051498564 [Eh]
	 SCS Total Energy          =    -477.4357589266552395 [Eh]
	-----------------------------------------------------------

  Dipole Moment: [D]
     X:    -0.0000      Y:    -1.6121      Z:     0.0000     Total:     1.6121

*** Psi4 exiting successfully. Buy a developer a beer!
