                               Psi4 1.3.2 release

  ==> Input File <==

--------------------------------------------------------------------------
#psi4
#
memory 32 gb

molecule  {
0 1
  C        1.4093959    -0.4655352     0.0000018
  C       -1.3691010    -0.5140340     0.0000020
  S        0.0000000     0.6644630    -0.0000020
  H        1.3483140    -1.1453580    -0.8917230
  H        2.2985940     0.0585020    -0.0005100
  H        1.3488410    -1.1446440     0.8922380
  H       -1.3483150    -1.1453560    -0.8917250
  H       -1.3488400    -1.1446440     0.8922380
  H       -2.2985940     0.0585020    -0.0005080
units angstrom
no_reorient  #important for SAPT in psi4, default
symmetry c1  #important for SAPT in psi4, default
}

set PROPERTIES_ORIGIN ["COM"]
properties('MP2/aug-cc-pvtz', properties = ['dipole'])
--------------------------------------------------------------------------

    Molecular point group: c1
  Charge       = 0
  Multiplicity = 1
  Basis Set: AUG-CC-PVTZ
    Blend: AUG-CC-PVTZ
  Basis Set: (AUG-CC-PVTZ AUX)
    Blend: AUG-CC-PVTZ-JKFIT

    Orbital Energies [Eh]
    ---------------------

    Doubly Occupied:

       1A    -91.944584     2A    -11.252154     3A    -11.251696
       4A     -8.944922     5A     -6.626284     6A     -6.625372
       7A     -6.624340     8A     -1.060481     9A     -0.952491
      10A     -0.807039    11A     -0.612389    12A     -0.597219
      13A     -0.578348    14A     -0.552787    15A     -0.503153
      16A     -0.431431    17A     -0.333829

  @DF-RHF Final Energy:  -476.79905461640249

   => Energetics <=

    Nuclear Repulsion Energy =            110.7920649850729120
    One-Electron Energy =                -875.7852003506224037
    Two-Electron Energy =                 288.1940807491470196
    Total Energy =                       -476.7990546164024863
  Basis Set: (AUG-CC-PVTZ AUX)
    Blend: AUG-CC-PVTZ-RI
    Molecular point group: c1

    Geometry (in Angstrom), charge = 0, multiplicity = 1:

       Center              X                  Y                   Z               Mass
    ------------   -----------------  -----------------  -----------------  -----------------
         C            1.401599279071    -0.546018682575     0.000001933280    12.000000000000
         C           -1.376897620929    -0.594517482575     0.000002133280    12.000000000000
         S           -0.007796620929     0.583979517425    -0.000001866720    31.972071174400
         H            1.340517379071    -1.225841482575    -0.891722866720     1.007825032230
         H            2.290797379071    -0.021981482575    -0.000509866720     1.007825032230
         H            1.341044379071    -1.225127482575     0.892238133280     1.007825032230
         H           -1.356111620929    -1.225839482575    -0.891724866720     1.007825032230
         H           -1.356636620929    -1.225127482575     0.892238133280     1.007825032230
         H           -2.306390620929    -0.021981482575    -0.000507866720     1.007825032230

  Basis Set: AUG-CC-PVTZ
    Blend: AUG-CC-PVTZ
  Basis Set: (AUG-CC-PVTZ AUX)
    Blend: AUG-CC-PVTZ-JKFIT
	 Reference Energy          =    -476.7990546164024863 [Eh]
	 Singles Energy            =      -0.0000000000000000 [Eh]
	 Same-Spin Energy          =      -0.1368068615545502 [Eh]
	 Opposite-Spin Energy      =      -0.4890229608807181 [Eh]
	 Correlation Energy        =      -0.6258298224352683 [Eh]
	 Total Energy              =    -477.4248844388377506 [Eh]

	 ================> DF-SCS-MP2 Energies <==================
	-----------------------------------------------------------
	 SCS Same-Spin Scale       =       0.3333333333333333 [-]
	 SCS Opposite-Spin Scale   =       1.2000000000000000 [-]
	 SCS Same-Spin Energy      =      -0.0456022871848501 [Eh]
	 SCS Opposite-Spin Energy  =      -0.5868275530568617 [Eh]
	 SCS Correlation Energy    =      -0.6324298402417118 [Eh]
	 SCS Total Energy          =    -477.4314844566441707 [Eh]
	-----------------------------------------------------------

  Dipole Moment: [D]
     X:    -0.0073      Y:    -1.6265      Z:     0.0000     Total:     1.6265

*** Psi4 exiting successfully. Buy a developer a beer!
