                               Psi4 1.3.2 release

  ==> Input File <==

--------------------------------------------------------------------------
#psi4
#
memory 32 gb

molecule  {
0 1
  C        1.3691010    -0.5140340     0.0000020
  C       -1.3691010    -0.5140340     0.0000020
  S        0.0430507     0.7077316     0.1103289
  H        1.3483140    -1.1453580    -0.8917230
  H        2.2985940     0.0585020    -0.0005100
  H        1.3488410    -1.1446440     0.8922380
  H       -1.3483150    -1.1453560    -0.8917250
  H       -1.3488400    -1.1446440     0.8922380
  H       -2.2985940     0.0585020    -0.0005080
units angstrom
no_reorient  #important for SAPT in psi4, default
symmetry c1  #important for SAPT in psi4, default
}

set PROPERTIES_ORIGIN ["COM"]
properties('MP2/aug-cc-pvtz', properties = ['dipole'])
--------------------------------------------------------------------------

    Molecular point group: c1
  Charge       = 0
  Multiplicity = 1
  Basis Set: AUG-CC-PVTZ
    Blend: AUG-CC-PVTZ
  Basis Set: (AUG-CC-PVTZ AUX)
    Blend: AUG-CC-PVTZ-JKFIT

    Orbital Energies [Eh]
    ---------------------

    Doubly Occupied:

       1A    -91.948851     2A    -11.254915     3A    -11.250512
       4A     -8.948001     5A     -6.629256     6A     -6.628265
       7A     -6.627308     8A     -1.052253     9A     -0.945858
      10A     -0.809389    11A     -0.600577    12A     -0.597339
      13A     -0.575029    14A     -0.561680    15A     -0.482096
      16A     -0.437868    17A     -0.338267

  @DF-RHF Final Energy:  -476.79966673937622

   => Energetics <=

    Nuclear Repulsion Energy =            109.7286952882563327
    One-Electron Energy =                -873.6817964434706028
    Two-Electron Energy =                 287.1534344158380918
    Total Energy =                       -476.7996667393762209
  Basis Set: (AUG-CC-PVTZ AUX)
    Blend: AUG-CC-PVTZ-RI
    Molecular point group: c1

    Geometry (in Angstrom), charge = 0, multiplicity = 1:

       Center              X                  Y                   Z               Mass
    ------------   -----------------  -----------------  -----------------  -----------------
         C            1.346907485589    -0.607439343339    -0.056875735957    12.000000000000
         C           -1.391294514411    -0.607439343339    -0.056875735957    12.000000000000
         S            0.020857185589     0.614326256661     0.053451164043    31.972071174400
         H            1.326120485589    -1.238763343339    -0.948600735957     1.007825032230
         H            2.276400485589    -0.034903343339    -0.057387735957     1.007825032230
         H            1.326647485589    -1.238049343339     0.835360264043     1.007825032230
         H           -1.370508514411    -1.238761343339    -0.948602735957     1.007825032230
         H           -1.371033514411    -1.238049343339     0.835360264043     1.007825032230
         H           -2.320787514411    -0.034903343339    -0.057385735957     1.007825032230

  Basis Set: AUG-CC-PVTZ
    Blend: AUG-CC-PVTZ
  Basis Set: (AUG-CC-PVTZ AUX)
    Blend: AUG-CC-PVTZ-JKFIT
	 Reference Energy          =    -476.7996667393762209 [Eh]
	 Singles Energy            =      -0.0000000000000000 [Eh]
	 Same-Spin Energy          =      -0.1366453797379815 [Eh]
	 Opposite-Spin Energy      =      -0.4897013279539212 [Eh]
	 Correlation Energy        =      -0.6263467076919027 [Eh]
	 Total Energy              =    -477.4260134470681010 [Eh]

	 ================> DF-SCS-MP2 Energies <==================
	-----------------------------------------------------------
	 SCS Same-Spin Scale       =       0.3333333333333333 [-]
	 SCS Opposite-Spin Scale   =       1.2000000000000000 [-]
	 SCS Same-Spin Energy      =      -0.0455484599126605 [Eh]
	 SCS Opposite-Spin Energy  =      -0.5876415935447054 [Eh]
	 SCS Correlation Energy    =      -0.6331900534573659 [Eh]
	 SCS Total Energy          =    -477.4328567928336042 [Eh]
	-----------------------------------------------------------

  Dipole Moment: [D]
     X:    -0.0192      Y:    -1.6142      Z:    -0.1035     Total:     1.6176

*** Psi4 exiting successfully. Buy a developer a beer!
