                               Psi4 1.4a3.dev225

  ==> Input File <==

--------------------------------------------------------------------------
#psi4
#
memory 32 gb

molecule  {
0 1
  C       -1.3690410    -0.5140960     0.0000000
  C        1.3690410    -0.5140960     0.0000000
  S       -0.0378922     0.6319013     0.0000000
  H       -1.3484930    -1.1450300     0.8920030
  H       -2.2985200     0.0584580     0.0000000
  H       -1.3484910    -1.1450350    -0.8920000
  H        1.3484910    -1.1450330     0.8920010
  H        1.3484930    -1.1450320    -0.8920020
  H        2.2985200     0.0584580     0.0000040
units angstrom
no_reorient  #important for SAPT in psi4, default
symmetry c1  #important for SAPT in psi4, default
}

set PROPERTIES_ORIGIN ["COM"]
properties('MP2/aug-cc-pvtz', properties = ['dipole'])
--------------------------------------------------------------------------

    Molecular point group: c1
  Charge       = 0
  Multiplicity = 1
  Basis Set: AUG-CC-PVTZ
    Blend: AUG-CC-PVTZ
  Basis Set: (AUG-CC-PVTZ AUX)
    Blend: AUG-CC-PVTZ-JKFIT

    Orbital Energies [Eh]
    ---------------------

    Doubly Occupied:

       1A    -91.942233     2A    -11.251481     3A    -11.247554
       4A     -8.943451     5A     -6.624897     6A     -6.623895
       7A     -6.622849     8A     -1.067955     9A     -0.952663
      10A     -0.804821    11A     -0.605255    12A     -0.603479
      13A     -0.577096    14A     -0.563363    15A     -0.500552
      16A     -0.432873    17A     -0.333676

  @DF-RHF Final Energy:  -476.80215691141882

   => Energetics <=

    Nuclear Repulsion Energy =            111.7659019537742040
    One-Electron Energy =                -877.7399291703136441
    Two-Electron Energy =                 289.1718703051205921
    Total Energy =                       -476.8021569114188196
  Basis Set: (AUG-CC-PVTZ AUX)
    Blend: AUG-CC-PVTZ-RI
    Molecular point group: c1

    Geometry (in Angstrom), charge = 0, multiplicity = 1:

       Center              X                  Y                   Z               Mass
    ------------   -----------------  -----------------  -----------------  -----------------
         C           -1.349506797611    -0.568381773480    -0.000000097502    12.000000000000
         C            1.388575202389    -0.568381773480    -0.000000097502    12.000000000000
         S           -0.018357997611     0.577615526520    -0.000000097502    31.972071174400
         H           -1.328958797611    -1.199315773480     0.892002902498     1.007825032230
         H           -2.278985797611     0.004172226520    -0.000000097502     1.007825032230
         H           -1.328956797611    -1.199320773480    -0.892000097502     1.007825032230
         H            1.368025202389    -1.199318773480     0.892000902498     1.007825032230
         H            1.368027202389    -1.199317773480    -0.892002097502     1.007825032230
         H            2.318054202389     0.004172226520     0.000003902498     1.007825032230

  Basis Set: AUG-CC-PVTZ
    Blend: AUG-CC-PVTZ
  Basis Set: (AUG-CC-PVTZ AUX)
    Blend: AUG-CC-PVTZ-JKFIT
	 Reference Energy          =    -476.8021569114188196 [Eh]
	 Singles Energy            =      -0.0000000000000000 [Eh]
	 Same-Spin Energy          =      -0.1371726954638619 [Eh]
	 Opposite-Spin Energy      =      -0.4889624745191184 [Eh]
	 Correlation Energy        =      -0.6261351699829802 [Eh]
	 Total Energy              =    -477.4282920814018212 [Eh]

	 ================> DF-SCS-MP2 Energies <==================
	-----------------------------------------------------------
	 SCS Same-Spin Scale       =       0.3333333333333333 [-]
	 SCS Opposite-Spin Scale   =       1.2000000000000000 [-]
	 SCS Same-Spin Energy      =      -0.0457242318212873 [Eh]
	 SCS Opposite-Spin Energy  =      -0.5867549694229420 [Eh]
	 SCS Correlation Energy    =      -0.6324792012442293 [Eh]
	 SCS Total Energy          =    -477.4346361126630427 [Eh]
	-----------------------------------------------------------

  Dipole Moment: [D]
     X:     0.0117      Y:    -1.6115      Z:     0.0000     Total:     1.6115

*** Psi4 exiting successfully. Buy a developer a beer!
