                               Psi4 1.3.2 release

  ==> Input File <==

--------------------------------------------------------------------------
#psi4
#
memory 32 gb

molecule  {
0 1
  C        1.3691010    -0.5140340     0.0000020
  C       -1.3691010    -0.5140340     0.0000020
  S        0.0757892     0.5992250    -0.0000018
  H        1.3483140    -1.1453580    -0.8917230
  H        2.2985940     0.0585020    -0.0005100
  H        1.3488410    -1.1446440     0.8922380
  H       -1.3483150    -1.1453560    -0.8917250
  H       -1.3488400    -1.1446440     0.8922380
  H       -2.2985940     0.0585020    -0.0005080
units angstrom
no_reorient  #important for SAPT in psi4, default
symmetry c1  #important for SAPT in psi4, default
}

set PROPERTIES_ORIGIN ["COM"]
properties('MP2/aug-cc-pvtz', properties = ['dipole'])
--------------------------------------------------------------------------

    Molecular point group: c1
  Charge       = 0
  Multiplicity = 1
  Basis Set: AUG-CC-PVTZ
    Blend: AUG-CC-PVTZ
  Basis Set: (AUG-CC-PVTZ AUX)
    Blend: AUG-CC-PVTZ-JKFIT

    Orbital Energies [Eh]
    ---------------------

    Doubly Occupied:

       1A    -91.939121     2A    -11.252178     3A    -11.244321
       4A     -8.941458     5A     -6.623022     6A     -6.621926
       7A     -6.620845     8A     -1.076668     9A     -0.955148
      10A     -0.802541    11A     -0.608090    12A     -0.606913
      13A     -0.577755    14A     -0.564238    15A     -0.508634
      16A     -0.428914    17A     -0.331083

  @DF-RHF Final Energy:  -476.79807269795072

   => Energetics <=

    Nuclear Repulsion Energy =            112.6393117107302402
    One-Electron Energy =                -879.4690573143407164
    Two-Electron Energy =                 290.0316729056597751
    Total Energy =                       -476.7980726979507153
  Basis Set: (AUG-CC-PVTZ AUX)
    Blend: AUG-CC-PVTZ-RI
    Molecular point group: c1

    Geometry (in Angstrom), charge = 0, multiplicity = 1:

       Center              X                  Y                   Z               Mass
    ------------   -----------------  -----------------  -----------------  -----------------
         C            1.330030120724    -0.551501976679     0.000001991478    12.000000000000
         C           -1.408171879276    -0.551501976679     0.000001991478    12.000000000000
         S            0.036718320724     0.561757023321    -0.000001808522    31.972071174400
         H            1.309243120724    -1.182825976679    -0.891723008522     1.007825032230
         H            2.259523120724     0.021034023321    -0.000510008522     1.007825032230
         H            1.309770120724    -1.182111976679     0.892237991478     1.007825032230
         H           -1.387385879276    -1.182823976679    -0.891725008522     1.007825032230
         H           -1.387910879276    -1.182111976679     0.892237991478     1.007825032230
         H           -2.337664879276     0.021034023321    -0.000508008522     1.007825032230

  Basis Set: AUG-CC-PVTZ
    Blend: AUG-CC-PVTZ
  Basis Set: (AUG-CC-PVTZ AUX)
    Blend: AUG-CC-PVTZ-JKFIT
	 Reference Energy          =    -476.7980726979507153 [Eh]
	 Singles Energy            =      -0.0000000000000000 [Eh]
	 Same-Spin Energy          =      -0.1375242743493572 [Eh]
	 Opposite-Spin Energy      =      -0.4889474405383122 [Eh]
	 Correlation Energy        =      -0.6264717148876693 [Eh]
	 Total Energy              =    -477.4245444128383724 [Eh]

	 ================> DF-SCS-MP2 Energies <==================
	-----------------------------------------------------------
	 SCS Same-Spin Scale       =       0.3333333333333333 [-]
	 SCS Opposite-Spin Scale   =       1.2000000000000000 [-]
	 SCS Same-Spin Energy      =      -0.0458414247831190 [Eh]
	 SCS Opposite-Spin Energy  =      -0.5867369286459746 [Eh]
	 SCS Correlation Energy    =      -0.6325783534290936 [Eh]
	 SCS Total Energy          =    -477.4306510513798116 [Eh]
	-----------------------------------------------------------

  Dipole Moment: [D]
     X:    -0.0180      Y:    -1.6117      Z:     0.0000     Total:     1.6118

*** Psi4 exiting successfully. Buy a developer a beer!
