                               Psi4 1.3.2 release

  ==> Input File <==

--------------------------------------------------------------------------
#psi4
#
memory 32 gb

molecule  {
0 1
  C        1.4847874    -0.3644680     0.0000015
  C       -1.3691010    -0.5140340     0.0000020
  S        0.0000000     0.6644630    -0.0000020
  H        1.3483140    -1.1453580    -0.8917230
  H        2.2985940     0.0585020    -0.0005100
  H        1.3488410    -1.1446440     0.8922380
  H       -1.3483150    -1.1453560    -0.8917250
  H       -1.3488400    -1.1446440     0.8922380
  H       -2.2985940     0.0585020    -0.0005080
units angstrom
no_reorient  #important for SAPT in psi4, default
symmetry c1  #important for SAPT in psi4, default
}

set PROPERTIES_ORIGIN ["COM"]
properties('MP2/aug-cc-pvtz', properties = ['dipole'])
--------------------------------------------------------------------------

    Molecular point group: c1
  Charge       = 0
  Multiplicity = 1
  Basis Set: AUG-CC-PVTZ
    Blend: AUG-CC-PVTZ
  Basis Set: (AUG-CC-PVTZ AUX)
    Blend: AUG-CC-PVTZ-JKFIT

    Orbital Energies [Eh]
    ---------------------

    Doubly Occupied:

       1A    -91.945321     2A    -11.256510     3A    -11.255683
       4A     -8.945614     5A     -6.626972     6A     -6.626200
       7A     -6.625100     8A     -1.061379     9A     -0.960995
      10A     -0.813562    11A     -0.635707    12A     -0.593419
      13A     -0.578960    14A     -0.527267    15A     -0.520312
      16A     -0.422981    17A     -0.329599

  @DF-RHF Final Energy:  -476.75837970416109

   => Energetics <=

    Nuclear Repulsion Energy =            110.5768864770000164
    One-Electron Energy =                -875.2193697493188438
    Two-Electron Energy =                 287.8841035681577409
    Total Energy =                       -476.7583797041610865
  Basis Set: (AUG-CC-PVTZ AUX)
    Blend: AUG-CC-PVTZ-RI
    Molecular point group: c1

    Geometry (in Angstrom), charge = 0, multiplicity = 1:

       Center              X                  Y                   Z               Mass
    ------------   -----------------  -----------------  -----------------  -----------------
         C            1.462403351213    -0.464506876602     0.000001691327    12.000000000000
         C           -1.391485048787    -0.614072876602     0.000002191327    12.000000000000
         S           -0.022384048787     0.564424123398    -0.000001808673    31.972071174400
         H            1.325929951213    -1.245396876602    -0.891722808673     1.007825032230
         H            2.276209951213    -0.041536876602    -0.000509808673     1.007825032230
         H            1.326456951213    -1.244682876602     0.892238191327     1.007825032230
         H           -1.370699048787    -1.245394876602    -0.891724808673     1.007825032230
         H           -1.371224048787    -1.244682876602     0.892238191327     1.007825032230
         H           -2.320978048787    -0.041536876602    -0.000507808673     1.007825032230

  Basis Set: AUG-CC-PVTZ
    Blend: AUG-CC-PVTZ
  Basis Set: (AUG-CC-PVTZ AUX)
    Blend: AUG-CC-PVTZ-JKFIT
	 Reference Energy          =    -476.7583797041610865 [Eh]
	 Singles Energy            =      -0.0000000000000000 [Eh]
	 Same-Spin Energy          =      -0.1370220166655010 [Eh]
	 Opposite-Spin Energy      =      -0.4902466575175562 [Eh]
	 Correlation Energy        =      -0.6272686741830572 [Eh]
	 Total Energy              =    -477.3856483783441718 [Eh]

	 ================> DF-SCS-MP2 Energies <==================
	-----------------------------------------------------------
	 SCS Same-Spin Scale       =       0.3333333333333333 [-]
	 SCS Opposite-Spin Scale   =       1.2000000000000000 [-]
	 SCS Same-Spin Energy      =      -0.0456740055551670 [Eh]
	 SCS Opposite-Spin Energy  =      -0.5882959890210674 [Eh]
	 SCS Correlation Energy    =      -0.6339699945762344 [Eh]
	 SCS Total Energy          =    -477.3923496987373483 [Eh]
	-----------------------------------------------------------

  Dipole Moment: [D]
     X:    -0.0746      Y:    -1.6438      Z:     0.0001     Total:     1.6455

*** Psi4 exiting successfully. Buy a developer a beer!
