                               Psi4 1.4a3.dev225

  ==> Input File <==

--------------------------------------------------------------------------
#psi4
#
memory 32 gb

molecule  {
0 1
  C       -1.3690410    -0.5140960     0.0000000
  C        1.3690410    -0.5140960     0.0000000
  S       -0.0151569     0.6514743     0.0000000
  H       -1.3484930    -1.1450300     0.8920030
  H       -2.2985200     0.0584580     0.0000000
  H       -1.3484910    -1.1450350    -0.8920000
  H        1.3484910    -1.1450330     0.8920010
  H        1.3484930    -1.1450320    -0.8920020
  H        2.2985200     0.0584580     0.0000040
units angstrom
no_reorient  #important for SAPT in psi4, default
symmetry c1  #important for SAPT in psi4, default
}

set PROPERTIES_ORIGIN ["COM"]
properties('MP2/aug-cc-pvtz', properties = ['dipole'])
--------------------------------------------------------------------------

    Molecular point group: c1
  Charge       = 0
  Multiplicity = 1
  Basis Set: AUG-CC-PVTZ
    Blend: AUG-CC-PVTZ
  Basis Set: (AUG-CC-PVTZ AUX)
    Blend: AUG-CC-PVTZ-JKFIT

    Orbital Energies [Eh]
    ---------------------

    Doubly Occupied:

       1A    -91.943971     2A    -11.251068     3A    -11.249501
       4A     -8.944608     5A     -6.625998     6A     -6.625019
       7A     -6.623997     8A     -1.063498     9A     -0.951034
      10A     -0.806061    11A     -0.603804    12A     -0.601809
      13A     -0.576556    14A     -0.562901    15A     -0.495872
      16A     -0.434726    17A     -0.335055

  @DF-RHF Final Energy:  -476.80309172219631

   => Energetics <=

    Nuclear Repulsion Energy =            111.2575026071583864
    One-Electron Energy =                -876.7302322850143810
    Two-Electron Energy =                 288.6696379556597094
    Total Energy =                       -476.8030917221963136
  Basis Set: (AUG-CC-PVTZ AUX)
    Blend: AUG-CC-PVTZ-RI
    Molecular point group: c1

    Geometry (in Angstrom), charge = 0, multiplicity = 1:

       Center              X                  Y                   Z               Mass
    ------------   -----------------  -----------------  -----------------  -----------------
         C           -1.361227308734    -0.578472054418    -0.000000097502    12.000000000000
         C            1.376854691266    -0.578472054418    -0.000000097502    12.000000000000
         S           -0.007343208734     0.587098245582    -0.000000097502    31.972071174400
         H           -1.340679308734    -1.209406054418     0.892002902498     1.007825032230
         H           -2.290706308734    -0.005918054418    -0.000000097502     1.007825032230
         H           -1.340677308734    -1.209411054418    -0.892000097502     1.007825032230
         H            1.356304691266    -1.209409054418     0.892000902498     1.007825032230
         H            1.356306691266    -1.209408054418    -0.892002097502     1.007825032230
         H            2.306333691266    -0.005918054418     0.000003902498     1.007825032230

  Basis Set: AUG-CC-PVTZ
    Blend: AUG-CC-PVTZ
  Basis Set: (AUG-CC-PVTZ AUX)
    Blend: AUG-CC-PVTZ-JKFIT
	 Reference Energy          =    -476.8030917221963136 [Eh]
	 Singles Energy            =      -0.0000000000000000 [Eh]
	 Same-Spin Energy          =      -0.1370007141380399 [Eh]
	 Opposite-Spin Energy      =      -0.4890483311624267 [Eh]
	 Correlation Energy        =      -0.6260490453004666 [Eh]
	 Total Energy              =    -477.4291407674967900 [Eh]

	 ================> DF-SCS-MP2 Energies <==================
	-----------------------------------------------------------
	 SCS Same-Spin Scale       =       0.3333333333333333 [-]
	 SCS Opposite-Spin Scale   =       1.2000000000000000 [-]
	 SCS Same-Spin Energy      =      -0.0456669047126800 [Eh]
	 SCS Opposite-Spin Energy  =      -0.5868579973949121 [Eh]
	 SCS Correlation Energy    =      -0.6325249021075920 [Eh]
	 SCS Total Energy          =    -477.4356166243039183 [Eh]
	-----------------------------------------------------------

  Dipole Moment: [D]
     X:     0.0053      Y:    -1.6117      Z:     0.0000     Total:     1.6117

*** Psi4 exiting successfully. Buy a developer a beer!
