                               Psi4 1.3.2 release

  ==> Input File <==

--------------------------------------------------------------------------
#psi4
#
memory 32 gb

molecule  {
0 1
  C        1.3691010    -0.5140340     0.0000020
  C       -1.3691010    -0.5140340     0.0000020
  S       -0.0757892     0.7297010    -0.0000022
  H        1.3483140    -1.1453580    -0.8917230
  H        2.2985940     0.0585020    -0.0005100
  H        1.3488410    -1.1446440     0.8922380
  H       -1.3483150    -1.1453560    -0.8917250
  H       -1.3488400    -1.1446440     0.8922380
  H       -2.2985940     0.0585020    -0.0005080
units angstrom
no_reorient  #important for SAPT in psi4, default
symmetry c1  #important for SAPT in psi4, default
}

set PROPERTIES_ORIGIN ["COM"]
properties('MP2/aug-cc-pvtz', properties = ['dipole'])
--------------------------------------------------------------------------

    Molecular point group: c1
  Charge       = 0
  Multiplicity = 1
  Basis Set: AUG-CC-PVTZ
    Blend: AUG-CC-PVTZ
  Basis Set: (AUG-CC-PVTZ AUX)
    Blend: AUG-CC-PVTZ-JKFIT

    Orbital Energies [Eh]
    ---------------------

    Doubly Occupied:

       1A    -91.950064     2A    -11.257266     3A    -11.249581
       4A     -8.948903     5A     -6.630135     6A     -6.629117
       7A     -6.628179     8A     -1.050260     9A     -0.944285
      10A     -0.810056    11A     -0.599360    12A     -0.597397
      13A     -0.573850    14A     -0.561735    15A     -0.480304
      16A     -0.436519    17A     -0.339481

  @DF-RHF Final Energy:  -476.79804109204321

   => Energetics <=

    Nuclear Repulsion Energy =            109.3173971978525572
    One-Electron Energy =                -872.8578913147674712
    Two-Electron Energy =                 286.7424530248717360
    Total Energy =                       -476.7980410920432064
  Basis Set: (AUG-CC-PVTZ AUX)
    Blend: AUG-CC-PVTZ-RI
    Molecular point group: c1

    Geometry (in Angstrom), charge = 0, multiplicity = 1:

       Center              X                  Y                   Z               Mass
    ------------   -----------------  -----------------  -----------------  -----------------
         C            1.408171879276    -0.618765017381     0.000002197686    12.000000000000
         C           -1.330030120724    -0.618765017381     0.000002197686    12.000000000000
         S           -0.036718320724     0.624969982619    -0.000002002314    31.972071174400
         H            1.387384879276    -1.250089017381    -0.891722802314     1.007825032230
         H            2.337664879276    -0.046229017381    -0.000509802314     1.007825032230
         H            1.387911879276    -1.249375017381     0.892238197686     1.007825032230
         H           -1.309244120724    -1.250087017381    -0.891724802314     1.007825032230
         H           -1.309769120724    -1.249375017381     0.892238197686     1.007825032230
         H           -2.259523120724    -0.046229017381    -0.000507802314     1.007825032230

  Basis Set: AUG-CC-PVTZ
    Blend: AUG-CC-PVTZ
  Basis Set: (AUG-CC-PVTZ AUX)
    Blend: AUG-CC-PVTZ-JKFIT
	 Reference Energy          =    -476.7980410920432064 [Eh]
	 Singles Energy            =      -0.0000000000000000 [Eh]
	 Same-Spin Energy          =      -0.1365628445643072 [Eh]
	 Opposite-Spin Energy      =      -0.4899179695089545 [Eh]
	 Correlation Energy        =      -0.6264808140732616 [Eh]
	 Total Energy              =    -477.4245219061164676 [Eh]

	 ================> DF-SCS-MP2 Energies <==================
	-----------------------------------------------------------
	 SCS Same-Spin Scale       =       0.3333333333333333 [-]
	 SCS Opposite-Spin Scale   =       1.2000000000000000 [-]
	 SCS Same-Spin Energy      =      -0.0455209481881024 [Eh]
	 SCS Opposite-Spin Energy  =      -0.5879015634107454 [Eh]
	 SCS Correlation Energy    =      -0.6334225115988478 [Eh]
	 SCS Total Energy          =    -477.4314636036420438 [Eh]
	-----------------------------------------------------------

  Dipole Moment: [D]
     X:     0.0354      Y:    -1.6175      Z:     0.0000     Total:     1.6179

*** Psi4 exiting successfully. Buy a developer a beer!
