                               Psi4 1.3.2 release

  ==> Input File <==

--------------------------------------------------------------------------
#psi4
#
memory 32 gb

molecule  {
0 1
  C        1.3271380    -0.5610970     0.0000022
  C       -1.3691010    -0.5140340     0.0000020
  S        0.0000000     0.6644630    -0.0000020
  H        1.3483140    -1.1453580    -0.8917230
  H        2.2985940     0.0585020    -0.0005100
  H        1.3488410    -1.1446440     0.8922380
  H       -1.3483150    -1.1453560    -0.8917250
  H       -1.3488400    -1.1446440     0.8922380
  H       -2.2985940     0.0585020    -0.0005080
units angstrom
no_reorient  #important for SAPT in psi4, default
symmetry c1  #important for SAPT in psi4, default
}

set PROPERTIES_ORIGIN ["COM"]
properties('MP2/aug-cc-pvtz', properties = ['dipole'])
--------------------------------------------------------------------------

    Molecular point group: c1
  Charge       = 0
  Multiplicity = 1
  Basis Set: AUG-CC-PVTZ
    Blend: AUG-CC-PVTZ
  Basis Set: (AUG-CC-PVTZ AUX)
    Blend: AUG-CC-PVTZ-JKFIT

    Orbital Energies [Eh]
    ---------------------

    Doubly Occupied:

       1A    -91.946098     2A    -11.250963     3A    -11.249727
       4A     -8.946282     5A     -6.627634     6A     -6.626602
       7A     -6.625617     8A     -1.061653     9A     -0.948194
      10A     -0.807895    11A     -0.611953    12A     -0.593341
      13A     -0.570470    14A     -0.569108    15A     -0.481500
      16A     -0.439722    17A     -0.337981

  @DF-RHF Final Energy:  -476.79883477805436

   => Energetics <=

    Nuclear Repulsion Energy =            111.0679734055680967
    One-Electron Energy =                -876.3441351962585486
    Two-Electron Energy =                 288.4773270126361240
    Total Energy =                       -476.7988347780543563
  Basis Set: (AUG-CC-PVTZ AUX)
    Blend: AUG-CC-PVTZ-RI
    Molecular point group: c1

    Geometry (in Angstrom), charge = 0, multiplicity = 1:

       Center              X                  Y                   Z               Mass
    ------------   -----------------  -----------------  -----------------  -----------------
         C            1.335257379972    -0.623090323028     0.000002255884    12.000000000000
         C           -1.360981620028    -0.576027323028     0.000002055884    12.000000000000
         S            0.008119379972     0.602469676972    -0.000001944116    31.972071174400
         H            1.356433379972    -1.207351323028    -0.891722944116     1.007825032230
         H            2.306713379972    -0.003491323028    -0.000509944116     1.007825032230
         H            1.356960379972    -1.206637323028     0.892238055884     1.007825032230
         H           -1.340195620028    -1.207349323028    -0.891724944116     1.007825032230
         H           -1.340720620028    -1.206637323028     0.892238055884     1.007825032230
         H           -2.290474620028    -0.003491323028    -0.000507944116     1.007825032230

  Basis Set: AUG-CC-PVTZ
    Blend: AUG-CC-PVTZ
  Basis Set: (AUG-CC-PVTZ AUX)
    Blend: AUG-CC-PVTZ-JKFIT
	 Reference Energy          =    -476.7988347780543563 [Eh]
	 Singles Energy            =      -0.0000000000000000 [Eh]
	 Same-Spin Energy          =      -0.1371225347618926 [Eh]
	 Opposite-Spin Energy      =      -0.4896709102660051 [Eh]
	 Correlation Energy        =      -0.6267934450278976 [Eh]
	 Total Energy              =    -477.4256282230822421 [Eh]

	 ================> DF-SCS-MP2 Energies <==================
	-----------------------------------------------------------
	 SCS Same-Spin Scale       =       0.3333333333333333 [-]
	 SCS Opposite-Spin Scale   =       1.2000000000000000 [-]
	 SCS Same-Spin Energy      =      -0.0457075115872975 [Eh]
	 SCS Opposite-Spin Energy  =      -0.5876050923192061 [Eh]
	 SCS Correlation Energy    =      -0.6333126039065036 [Eh]
	 SCS Total Energy          =    -477.4321473819608741 [Eh]
	-----------------------------------------------------------

  Dipole Moment: [D]
     X:    -0.0088      Y:    -1.5947      Z:     0.0000     Total:     1.5948

*** Psi4 exiting successfully. Buy a developer a beer!
