                               Psi4 1.3.2 release

  ==> Input File <==

--------------------------------------------------------------------------
#psi4
#
memory 32 gb

molecule  {
0 1
  C        1.3691010    -0.5140340     0.0000020
  C       -1.3691010    -0.5140340     0.0000020
  S       -0.0097280     0.6527399    -0.0276057
  H        1.3483140    -1.1453580    -0.8917230
  H        2.2985940     0.0585020    -0.0005100
  H        1.3488410    -1.1446440     0.8922380
  H       -1.3483150    -1.1453560    -0.8917250
  H       -1.3488400    -1.1446440     0.8922380
  H       -2.2985940     0.0585020    -0.0005080
units angstrom
no_reorient  #important for SAPT in psi4, default
symmetry c1  #important for SAPT in psi4, default
}

set PROPERTIES_ORIGIN ["COM"]
properties('MP2/aug-cc-pvtz', properties = ['dipole'])
--------------------------------------------------------------------------

    Molecular point group: c1
  Charge       = 0
  Multiplicity = 1
  Basis Set: AUG-CC-PVTZ
    Blend: AUG-CC-PVTZ
  Basis Set: (AUG-CC-PVTZ AUX)
    Blend: AUG-CC-PVTZ-JKFIT

    Orbital Energies [Eh]
    ---------------------

    Doubly Occupied:

       1A    -91.944110     2A    -11.250851     3A    -11.249845
       4A     -8.944701     5A     -6.626087     6A     -6.625109
       7A     -6.624089     8A     -1.063126     9A     -0.950915
      10A     -0.806167    11A     -0.603722    12A     -0.601613
      13A     -0.576556    14A     -0.562849    15A     -0.495454
      16A     -0.434899    17A     -0.335133

  @DF-RHF Final Energy:  -476.80309256827377

   => Energetics <=

    Nuclear Repulsion Energy =            111.2155524968726610
    One-Electron Energy =                -876.6468379180179227
    Two-Electron Energy =                 288.6281928528715071
    Total Energy =                       -476.8030925682737688
  Basis Set: (AUG-CC-PVTZ AUX)
    Blend: AUG-CC-PVTZ-RI
    Molecular point group: c1

    Geometry (in Angstrom), charge = 0, multiplicity = 1:

       Center              X                  Y                   Z               Mass
    ------------   -----------------  -----------------  -----------------  -----------------
         C            1.374115982525    -0.579089999740     0.014232365257    12.000000000000
         C           -1.364086017475    -0.579089999740     0.014232365257    12.000000000000
         S           -0.004713017475     0.587683900260    -0.013375334743    31.972071174400
         H            1.353328982525    -1.210413999740    -0.877492634743     1.007825032230
         H            2.303608982525    -0.006553999740     0.013720365257     1.007825032230
         H            1.353855982525    -1.209699999740     0.906468365257     1.007825032230
         H           -1.343300017475    -1.210411999740    -0.877494634743     1.007825032230
         H           -1.343825017475    -1.209699999740     0.906468365257     1.007825032230
         H           -2.293579017475    -0.006553999740     0.013722365257     1.007825032230

  Basis Set: AUG-CC-PVTZ
    Blend: AUG-CC-PVTZ
  Basis Set: (AUG-CC-PVTZ AUX)
    Blend: AUG-CC-PVTZ-JKFIT
	 Reference Energy          =    -476.8030925682737688 [Eh]
	 Singles Energy            =      -0.0000000000000000 [Eh]
	 Same-Spin Energy          =      -0.1369883962107426 [Eh]
	 Opposite-Spin Energy      =      -0.4890594020142683 [Eh]
	 Correlation Energy        =      -0.6260477982250110 [Eh]
	 Total Energy              =    -477.4291403664987570 [Eh]

	 ================> DF-SCS-MP2 Energies <==================
	-----------------------------------------------------------
	 SCS Same-Spin Scale       =       0.3333333333333333 [-]
	 SCS Opposite-Spin Scale   =       1.2000000000000000 [-]
	 SCS Same-Spin Energy      =      -0.0456627987369142 [Eh]
	 SCS Opposite-Spin Energy  =      -0.5868712824171219 [Eh]
	 SCS Correlation Energy    =      -0.6325340811540361 [Eh]
	 SCS Total Energy          =    -477.4356266494278316 [Eh]
	-----------------------------------------------------------

  Dipole Moment: [D]
     X:     0.0034      Y:    -1.6117      Z:     0.0275     Total:     1.6120

*** Psi4 exiting successfully. Buy a developer a beer!
