                               Psi4 1.4a3.dev225

  ==> Input File <==

--------------------------------------------------------------------------
#psi4
#
memory 32 gb

molecule  {
0 1
  C       -1.3690410    -0.5140960     0.0000000
  C        1.3690410    -0.5140960     0.0000000
  S        0.0378922     0.6971447     0.0000000
  H       -1.3484930    -1.1450300     0.8920030
  H       -2.2985200     0.0584580     0.0000000
  H       -1.3484910    -1.1450350    -0.8920000
  H        1.3484910    -1.1450330     0.8920010
  H        1.3484930    -1.1450320    -0.8920020
  H        2.2985200     0.0584580     0.0000040
units angstrom
no_reorient  #important for SAPT in psi4, default
symmetry c1  #important for SAPT in psi4, default
}

set PROPERTIES_ORIGIN ["COM"]
properties('MP2/aug-cc-pvtz', properties = ['dipole'])
--------------------------------------------------------------------------

    Molecular point group: c1
  Charge       = 0
  Multiplicity = 1
  Basis Set: AUG-CC-PVTZ
    Blend: AUG-CC-PVTZ
  Basis Set: (AUG-CC-PVTZ AUX)
    Blend: AUG-CC-PVTZ-JKFIT

    Orbital Energies [Eh]
    ---------------------

    Doubly Occupied:

       1A    -91.947683     2A    -11.254040     3A    -11.250159
       4A     -8.947181     5A     -6.628472     6A     -6.627484
       7A     -6.626516     8A     -1.054999     9A     -0.947061
      10A     -0.808577    11A     -0.600991    12A     -0.598866
      13A     -0.575021    14A     -0.562078    15A     -0.485929
      16A     -0.437078    17A     -0.337830

  @DF-RHF Final Energy:  -476.80163847643894

   => Energetics <=

    Nuclear Repulsion Energy =            110.1094098276426223
    One-Electron Energy =                -874.4421694677522510
    Two-Electron Energy =                 287.5311211636707185
    Total Energy =                       -476.8016384764389386
  Basis Set: (AUG-CC-PVTZ AUX)
    Blend: AUG-CC-PVTZ-RI
    Molecular point group: c1

    Geometry (in Angstrom), charge = 0, multiplicity = 1:

       Center              X                  Y                   Z               Mass
    ------------   -----------------  -----------------  -----------------  -----------------
         C           -1.388575202389    -0.602016077641    -0.000000097502    12.000000000000
         C            1.349506797611    -0.602016077641    -0.000000097502    12.000000000000
         S            0.018357997611     0.609224622359    -0.000000097502    31.972071174400
         H           -1.368027202389    -1.232950077641     0.892002902498     1.007825032230
         H           -2.318054202389    -0.029462077641    -0.000000097502     1.007825032230
         H           -1.368025202389    -1.232955077641    -0.892000097502     1.007825032230
         H            1.328956797611    -1.232953077641     0.892000902498     1.007825032230
         H            1.328958797611    -1.232952077641    -0.892002097502     1.007825032230
         H            2.278985797611    -0.029462077641     0.000003902498     1.007825032230

  Basis Set: AUG-CC-PVTZ
    Blend: AUG-CC-PVTZ
  Basis Set: (AUG-CC-PVTZ AUX)
    Blend: AUG-CC-PVTZ-JKFIT
	 Reference Energy          =    -476.8016384764389386 [Eh]
	 Singles Energy            =      -0.0000000000000000 [Eh]
	 Same-Spin Energy          =      -0.1367005863907871 [Eh]
	 Opposite-Spin Energy      =      -0.4894585652477220 [Eh]
	 Correlation Energy        =      -0.6261591516385091 [Eh]
	 Total Energy              =    -477.4277976280774283 [Eh]

	 ================> DF-SCS-MP2 Energies <==================
	-----------------------------------------------------------
	 SCS Same-Spin Scale       =       0.3333333333333333 [-]
	 SCS Opposite-Spin Scale   =       1.2000000000000000 [-]
	 SCS Same-Spin Energy      =      -0.0455668621302624 [Eh]
	 SCS Opposite-Spin Energy  =      -0.5873502782972664 [Eh]
	 SCS Correlation Energy    =      -0.6329171404275288 [Eh]
	 SCS Total Energy          =    -477.4345556168664757 [Eh]
	-----------------------------------------------------------

  Dipole Moment: [D]
     X:    -0.0160      Y:    -1.6139      Z:     0.0000     Total:     1.6140

*** Psi4 exiting successfully. Buy a developer a beer!
