                               Psi4 1.3.2 release

  ==> Input File <==

--------------------------------------------------------------------------
#psi4
#
memory 32 gb

molecule  {
0 1
  C        1.2835581    -0.6066669     0.0000023
  C       -1.3691010    -0.5140340     0.0000020
  S        0.0000000     0.6644630    -0.0000020
  H        1.3483140    -1.1453580    -0.8917230
  H        2.2985940     0.0585020    -0.0005100
  H        1.3488410    -1.1446440     0.8922380
  H       -1.3483150    -1.1453560    -0.8917250
  H       -1.3488400    -1.1446440     0.8922380
  H       -2.2985940     0.0585020    -0.0005080
units angstrom
no_reorient  #important for SAPT in psi4, default
symmetry c1  #important for SAPT in psi4, default
}

set PROPERTIES_ORIGIN ["COM"]
properties('MP2/aug-cc-pvtz', properties = ['dipole'])
--------------------------------------------------------------------------

    Molecular point group: c1
  Charge       = 0
  Multiplicity = 1
  Basis Set: AUG-CC-PVTZ
    Blend: AUG-CC-PVTZ
  Basis Set: (AUG-CC-PVTZ AUX)
    Blend: AUG-CC-PVTZ-JKFIT

    Orbital Energies [Eh]
    ---------------------

    Doubly Occupied:

       1A    -91.947604     2A    -11.252246     3A    -11.248937
       4A     -8.947651     5A     -6.628993     6A     -6.627910
       7A     -6.626940     8A     -1.062948     9A     -0.947103
      10A     -0.809704    11A     -0.623143    12A     -0.590616
      13A     -0.572869    14A     -0.561541    15A     -0.469864
      16A     -0.442593    17A     -0.340072

  @DF-RHF Final Energy:  -476.78781704349564

   => Energetics <=

    Nuclear Repulsion Energy =            111.2163314324248091
    One-Electron Energy =                -876.6068289639842988
    Two-Electron Energy =                 288.6026804880638679
    Total Energy =                       -476.7878170434956360
  Basis Set: (AUG-CC-PVTZ AUX)
    Blend: AUG-CC-PVTZ-RI
    Molecular point group: c1

    Geometry (in Angstrom), charge = 0, multiplicity = 1:

       Center              X                  Y                   Z               Mass
    ------------   -----------------  -----------------  -----------------  -----------------
         C            1.300109712350    -0.659842947490     0.000002336535    12.000000000000
         C           -1.352549387650    -0.567210047490     0.000002036535    12.000000000000
         S            0.016551612350     0.611286952510    -0.000001963465    31.972071174400
         H            1.364865612350    -1.198534047490    -0.891722963465     1.007825032230
         H            2.315145612350     0.005325952510    -0.000509963465     1.007825032230
         H            1.365392612350    -1.197820047490     0.892238036535     1.007825032230
         H           -1.331763387650    -1.198532047490    -0.891724963465     1.007825032230
         H           -1.332288387650    -1.197820047490     0.892238036535     1.007825032230
         H           -2.282042387650     0.005325952510    -0.000507963465     1.007825032230

  Basis Set: AUG-CC-PVTZ
    Blend: AUG-CC-PVTZ
  Basis Set: (AUG-CC-PVTZ AUX)
    Blend: AUG-CC-PVTZ-JKFIT
	 Reference Energy          =    -476.7878170434956360 [Eh]
	 Singles Energy            =      -0.0000000000000000 [Eh]
	 Same-Spin Energy          =      -0.1374655702458132 [Eh]
	 Opposite-Spin Energy      =      -0.4905837586093966 [Eh]
	 Correlation Energy        =      -0.6280493288552098 [Eh]
	 Total Energy              =    -477.4158663723508198 [Eh]

	 ================> DF-SCS-MP2 Energies <==================
	-----------------------------------------------------------
	 SCS Same-Spin Scale       =       0.3333333333333333 [-]
	 SCS Opposite-Spin Scale   =       1.2000000000000000 [-]
	 SCS Same-Spin Energy      =      -0.0458218567486044 [Eh]
	 SCS Opposite-Spin Energy  =      -0.5887005103312759 [Eh]
	 SCS Correlation Energy    =      -0.6345223670798803 [Eh]
	 SCS Total Energy          =    -477.4223394105754892 [Eh]
	-----------------------------------------------------------

  Dipole Moment: [D]
     X:    -0.0313      Y:    -1.5746      Z:     0.0000     Total:     1.5749

*** Psi4 exiting successfully. Buy a developer a beer!
