                               Psi4 1.4a3.dev225

  ==> Input File <==

--------------------------------------------------------------------------
#psi4
#
memory 32 gb

molecule  {
0 1
 Br        1.8595780    -0.3848700    -0.4305360
 Br       -0.5459720     1.6428760    -0.8912760
 Br       -0.1896500     0.2126890     1.9262060
 Br       -1.1239570    -1.4706930    -0.6043900
  C       -0.0190953     0.0039390     0.0043939
units angstrom
no_reorient  #important for SAPT in psi4, default
symmetry c1  #important for SAPT in psi4, default
}

set PROPERTIES_ORIGIN ["COM"]
properties('MP2/aug-cc-pvtz', properties = ['dipole'])
--------------------------------------------------------------------------

    Molecular point group: c1
  Charge       = 0
  Multiplicity = 1
  Basis Set: AUG-CC-PVTZ
    Blend: AUG-CC-PVTZ
  Basis Set: (AUG-CC-PVTZ AUX)
    Blend: AUG-CC-PVTZ-JKFIT

    Orbital Energies [Eh]
    ---------------------

    Doubly Occupied:

       1A   -490.058962     2A   -490.058960     3A   -490.058958
       4A   -490.056407     5A    -65.198685     6A    -65.198683
       7A    -65.198680     8A    -65.196042     9A    -58.554156
      10A    -58.554155    11A    -58.554152    12A    -58.552345
      13A    -58.552344    14A    -58.552343    15A    -58.552343
      16A    -58.552341    17A    -58.552340    18A    -58.551528
      19A    -58.549701    20A    -58.549701    21A    -11.472752
      22A     -9.871531    23A     -9.871529    24A     -9.871522
      25A     -9.868735    26A     -7.483874    27A     -7.483871
      28A     -7.483867    29A     -7.481039    30A     -7.475506
      31A     -7.475505    32A     -7.475504    33A     -7.475502
      34A     -7.475500    35A     -7.475499    36A     -7.472695
      37A     -7.472695    38A     -3.228044    39A     -3.228017
      40A     -3.228014    41A     -3.225163    42A     -3.223698
      43A     -3.223697    44A     -3.223693    45A     -3.223691
      46A     -3.223690    47A     -3.223687    48A     -3.220897
      49A     -3.220897    50A     -3.212906    51A     -3.212906
      52A     -3.212903    53A     -3.212901    54A     -3.212898
      55A     -3.212898    56A     -3.210095    57A     -3.210095
      58A     -1.178935    59A     -1.035892    60A     -1.035886
      61A     -1.031303    62A     -0.795734    63A     -0.596585
      64A     -0.596582    65A     -0.594101    66A     -0.478790
      67A     -0.478790    68A     -0.440230    69A     -0.440226
      70A     -0.436761    71A     -0.415024    72A     -0.413966
      73A     -0.413965

  @DF-RHF Final Energy: -10327.67942125052832

   => Energetics <=

    Nuclear Repulsion Energy =           1451.4869475483174028
    One-Electron Energy =              -17280.1057187467158656
    Two-Electron Energy =                5500.9393499478719605
    Total Energy =                     -10327.6794212505265023
  Basis Set: (AUG-CC-PVTZ AUX)
    Blend: AUG-CC-PVTZ-RI
    Molecular point group: c1

    Geometry (in Angstrom), charge = 0, multiplicity = 1:

       Center              X                  Y                   Z               Mass
    ------------   -----------------  -----------------  -----------------  -----------------
         BR           1.860277545807    -0.385014735105    -0.430697876067    78.918337600000
         BR          -0.545272454193     1.642731264895    -0.891437876067    78.918337600000
         BR          -0.188950454193     0.212544264895     1.926044123933    78.918337600000
         BR          -1.123257454193    -1.470837735105    -0.604551876067    78.918337600000
         C           -0.018395754193     0.003794264895     0.004232023933    12.000000000000

  Basis Set: AUG-CC-PVTZ
    Blend: AUG-CC-PVTZ
  Basis Set: (AUG-CC-PVTZ AUX)
    Blend: AUG-CC-PVTZ-JKFIT
	 Reference Energy          =  -10327.6794212505283213 [Eh]
	 Singles Energy            =      -0.0000000000000000 [Eh]
	 Same-Spin Energy          =      -0.4065828572709999 [Eh]
	 Opposite-Spin Energy      =      -0.9405191267670545 [Eh]
	 Correlation Energy        =      -1.3471019840380545 [Eh]
	 Total Energy              =  -10329.0265232345664117 [Eh]

	 ================> DF-SCS-MP2 Energies <==================
	-----------------------------------------------------------
	 SCS Same-Spin Scale       =       0.3333333333333333 [-]
	 SCS Opposite-Spin Scale   =       1.2000000000000000 [-]
	 SCS Same-Spin Energy      =      -0.1355276190903333 [Eh]
	 SCS Opposite-Spin Energy  =      -1.1286229521204654 [Eh]
	 SCS Correlation Energy    =      -1.2641505712107988 [Eh]
	 SCS Total Energy          =  -10328.9435718217391695 [Eh]
	-----------------------------------------------------------

  Dipole Moment: [D]
     X:    -0.0848      Y:     0.0175      Z:     0.0195     Total:     0.0888

*** Psi4 exiting successfully. Buy a developer a beer!
