                               Psi4 1.3.2 release

  ==> Input File <==

--------------------------------------------------------------------------
#psi4
#
memory 32 gb

molecule  {
0 1
 Br        1.8606628    -0.3567745    -0.4496249
 Br       -0.5459720     1.6428760    -0.8912760
 Br       -0.1896500     0.2126890     1.9262060
 Br       -1.1239570    -1.4706930    -0.6043900
  C        0.0000050    -0.0000140    -0.0000280
units angstrom
no_reorient  #important for SAPT in psi4, default
symmetry c1  #important for SAPT in psi4, default
}

set PROPERTIES_ORIGIN ["COM"]
properties('MP2/aug-cc-pvtz', properties = ['dipole'])
--------------------------------------------------------------------------

    Molecular point group: c1
  Charge       = 0
  Multiplicity = 1
  Basis Set: AUG-CC-PVTZ
    Blend: AUG-CC-PVTZ
  Basis Set: (AUG-CC-PVTZ AUX)
    Blend: AUG-CC-PVTZ-JKFIT

    Orbital Energies [Eh]
    ---------------------

    Doubly Occupied:

       1A   -490.058645     2A   -490.058640     3A   -490.058321
       4A   -490.057682     5A    -65.198334     6A    -65.198329
       7A    -65.198021     8A    -65.197404     9A    -58.553811
      10A    -58.553807    11A    -58.553497    12A    -58.552876
      13A    -58.551995    14A    -58.551993    15A    -58.551990
      16A    -58.551988    17A    -58.551683    18A    -58.551679
      19A    -58.551064    20A    -58.551061    21A    -11.472719
      22A     -9.871129    23A     -9.871122    24A     -9.870827
      25A     -9.870232    26A     -7.483463    27A     -7.483458
      28A     -7.483161    29A     -7.482564    30A     -7.475100
      31A     -7.475095    32A     -7.475093    33A     -7.475088
      34A     -7.474807    35A     -7.474790    36A     -7.474215
      37A     -7.474202    38A     -3.227620    39A     -3.227601
      40A     -3.227308    41A     -3.226705    42A     -3.223300
      43A     -3.223294    44A     -3.223289    45A     -3.223283
      46A     -3.223003    47A     -3.222982    48A     -3.222403
      49A     -3.222386    50A     -3.212495    51A     -3.212495
      52A     -3.212489    53A     -3.212489    54A     -3.212197
      55A     -3.212196    56A     -3.211610    57A     -3.211610
      58A     -1.178832    59A     -1.035178    60A     -1.034508
      61A     -1.033414    62A     -0.795725    63A     -0.596359
      64A     -0.595788    65A     -0.594990    66A     -0.479507
      67A     -0.478105    68A     -0.439737    69A     -0.439368
      70A     -0.438211    71A     -0.414847    72A     -0.414321
      73A     -0.413787

  @DF-RHF Final Energy: -10327.67952422541020

   => Energetics <=

    Nuclear Repulsion Energy =           1451.5162688665482165
    One-Electron Energy =              -17280.1649418827837508
    Two-Electron Energy =                5500.9691487908248746
    Total Energy =                     -10327.6795242254120240
  Basis Set: (AUG-CC-PVTZ AUX)
    Blend: AUG-CC-PVTZ-RI
    Molecular point group: c1

    Geometry (in Angstrom), charge = 0, multiplicity = 1:

       Center              X                  Y                   Z               Mass
    ------------   -----------------  -----------------  -----------------  -----------------
         BR           1.860401589578    -0.363541116779    -0.445027380612    78.918337600000
         BR          -0.546233210422     1.636109383221    -0.886678480612    78.918337600000
         BR          -0.189911210422     0.205922383221     1.930803519388    78.918337600000
         BR          -1.124218210422    -1.477459616779    -0.599792480612    78.918337600000
         C           -0.000256210422    -0.006780616779     0.004569519388    12.000000000000

  Basis Set: AUG-CC-PVTZ
    Blend: AUG-CC-PVTZ
  Basis Set: (AUG-CC-PVTZ AUX)
    Blend: AUG-CC-PVTZ-JKFIT
	 Reference Energy          =  -10327.6795242254102050 [Eh]
	 Singles Energy            =      -0.0000000000000000 [Eh]
	 Same-Spin Energy          =      -0.4065738297359730 [Eh]
	 Opposite-Spin Energy      =      -0.9405052259090001 [Eh]
	 Correlation Energy        =      -1.3470790556449730 [Eh]
	 Total Energy              =  -10329.0266032810559409 [Eh]

	 ================> DF-SCS-MP2 Energies <==================
	-----------------------------------------------------------
	 SCS Same-Spin Scale       =       0.3333333333333333 [-]
	 SCS Opposite-Spin Scale   =       1.2000000000000000 [-]
	 SCS Same-Spin Energy      =      -0.1355246099119910 [Eh]
	 SCS Opposite-Spin Energy  =      -1.1286062710908000 [Eh]
	 SCS Correlation Energy    =      -1.2641308810027909 [Eh]
	 SCS Total Energy          =  -10328.9436551064136438 [Eh]
	-----------------------------------------------------------

  Dipole Moment: [D]
     X:    -0.0004      Y:    -0.0082      Z:     0.0055     Total:     0.0099

*** Psi4 exiting successfully. Buy a developer a beer!
