                               Psi4 1.4a3.dev225

  ==> Input File <==

--------------------------------------------------------------------------
#psi4
#
memory 32 gb

molecule  {
0 1
 Br        1.8595780    -0.3848700    -0.4305360
 Br       -0.5459720     1.6428760    -0.8912760
 Br       -0.1896500     0.2126890     1.9262060
 Br       -1.1239570    -1.4706930    -0.6043900
  C       -0.0477457     0.0098685     0.0110267
units angstrom
no_reorient  #important for SAPT in psi4, default
symmetry c1  #important for SAPT in psi4, default
}

set PROPERTIES_ORIGIN ["COM"]
properties('MP2/aug-cc-pvtz', properties = ['dipole'])
--------------------------------------------------------------------------

    Molecular point group: c1
  Charge       = 0
  Multiplicity = 1
  Basis Set: AUG-CC-PVTZ
    Blend: AUG-CC-PVTZ
  Basis Set: (AUG-CC-PVTZ AUX)
    Blend: AUG-CC-PVTZ-JKFIT

    Orbital Energies [Eh]
    ---------------------

    Doubly Occupied:

       1A   -490.059942     2A   -490.059940     3A   -490.059937
       4A   -490.053422     5A    -65.199698     6A    -65.199697
       7A    -65.199694     8A    -65.192976     9A    -58.555164
      10A    -58.555162    11A    -58.555159    12A    -58.553359
      13A    -58.553358    14A    -58.553357    15A    -58.553355
      16A    -58.553355    17A    -58.553353    18A    -58.548473
      19A    -58.546635    20A    -58.546635    21A    -11.472907
      22A     -9.872603    23A     -9.872600    24A     -9.872594
      25A     -9.865523    26A     -7.484961    27A     -7.484958
      28A     -7.484954    29A     -7.477779    30A     -7.476584
      31A     -7.476581    32A     -7.476580    33A     -7.476578
      34A     -7.476577    35A     -7.476574    36A     -7.469475
      37A     -7.469475    38A     -3.229143    39A     -3.229116
      40A     -3.229113    41A     -3.224774    42A     -3.224772
      43A     -3.224768    44A     -3.224761    45A     -3.224759
      46A     -3.224755    47A     -3.221864    48A     -3.217676
      49A     -3.217676    50A     -3.213982    51A     -3.213982
      52A     -3.213980    53A     -3.213977    54A     -3.213974
      55A     -3.213974    56A     -3.206885    57A     -3.206885
      58A     -1.179482    59A     -1.038181    60A     -1.038175
      61A     -1.026613    62A     -0.795797    63A     -0.598064
      64A     -0.598060    65A     -0.591799    66A     -0.478755
      67A     -0.478755    68A     -0.441939    69A     -0.441934
      70A     -0.433054    71A     -0.416057    72A     -0.413244
      73A     -0.413242

  @DF-RHF Final Energy: -10327.67857490881215

   => Energetics <=

    Nuclear Repulsion Energy =           1451.4849733949813526
    One-Electron Energy =              -17280.0992165965762979
    Two-Electron Energy =                5500.9356682927818838
    Total Energy =                     -10327.6785749088121520
  Basis Set: (AUG-CC-PVTZ AUX)
    Blend: AUG-CC-PVTZ-RI
    Molecular point group: c1

    Geometry (in Angstrom), charge = 0, multiplicity = 1:

       Center              X                  Y                   Z               Mass
    ------------   -----------------  -----------------  -----------------  -----------------
         BR           1.861326776083    -0.385231884287    -0.430940781387    78.918337600000
         BR          -0.544223223917     1.642514115713    -0.891680781387    78.918337600000
         BR          -0.187901223917     0.212327115713     1.925801218613    78.918337600000
         BR          -1.122208223917    -1.471054884287    -0.604794781387    78.918337600000
         C           -0.045996923917     0.009506615713     0.010621918613    12.000000000000

  Basis Set: AUG-CC-PVTZ
    Blend: AUG-CC-PVTZ
  Basis Set: (AUG-CC-PVTZ AUX)
    Blend: AUG-CC-PVTZ-JKFIT
	 Reference Energy          =  -10327.6785749088121520 [Eh]
	 Singles Energy            =      -0.0000000000000000 [Eh]
	 Same-Spin Energy          =      -0.4066459043682747 [Eh]
	 Opposite-Spin Energy      =      -0.9406184750833818 [Eh]
	 Correlation Energy        =      -1.3472643794516566 [Eh]
	 Total Energy              =  -10329.0258392882642511 [Eh]

	 ================> DF-SCS-MP2 Energies <==================
	-----------------------------------------------------------
	 SCS Same-Spin Scale       =       0.3333333333333333 [-]
	 SCS Opposite-Spin Scale   =       1.2000000000000000 [-]
	 SCS Same-Spin Energy      =      -0.1355486347894249 [Eh]
	 SCS Opposite-Spin Energy  =      -1.1287421701000582 [Eh]
	 SCS Correlation Energy    =      -1.2642908048894830 [Eh]
	 SCS Total Energy          =  -10328.9428657137013943 [Eh]
	-----------------------------------------------------------

  Dipole Moment: [D]
     X:    -0.2108      Y:     0.0436      Z:     0.0487     Total:     0.2207

*** Psi4 exiting successfully. Buy a developer a beer!
