                               Psi4 1.3.2 release

  ==> Input File <==

--------------------------------------------------------------------------
#psi4
#
memory 32 gb

molecule  {
0 1
 Br        1.8579267    -0.4128482    -0.4113160
 Br       -0.5459720     1.6428760    -0.8912760
 Br       -0.1896500     0.2126890     1.9262060
 Br       -1.1239570    -1.4706930    -0.6043900
  C        0.0000050    -0.0000140    -0.0000280
units angstrom
no_reorient  #important for SAPT in psi4, default
symmetry c1  #important for SAPT in psi4, default
}

set PROPERTIES_ORIGIN ["COM"]
properties('MP2/aug-cc-pvtz', properties = ['dipole'])
--------------------------------------------------------------------------

    Molecular point group: c1
  Charge       = 0
  Multiplicity = 1
  Basis Set: AUG-CC-PVTZ
    Blend: AUG-CC-PVTZ
  Basis Set: (AUG-CC-PVTZ AUX)
    Blend: AUG-CC-PVTZ-JKFIT

    Orbital Energies [Eh]
    ---------------------

    Doubly Occupied:

       1A   -490.058962     2A   -490.058321     3A   -490.058005
       4A   -490.058000     5A    -65.198641     6A    -65.198021
       7A    -65.197715     8A    -65.197711     9A    -58.554120
      10A    -58.553497    11A    -58.553189    12A    -58.553185
      13A    -58.552303    14A    -58.552300    15A    -58.551683
      16A    -58.551679    17A    -58.551376    18A    -58.551374
      19A    -58.551371    20A    -58.551369    21A    -11.472719
      22A     -9.871424    23A     -9.870827    24A     -9.870533
      25A     -9.870527    26A     -7.483760    27A     -7.483161
      28A     -7.482865    29A     -7.482860    30A     -7.475396
      31A     -7.475383    32A     -7.474807    33A     -7.474790
      34A     -7.474510    35A     -7.474505    36A     -7.474503
      37A     -7.474498    38A     -3.227912    39A     -3.227309
      40A     -3.227015    41A     -3.226997    42A     -3.223600
      43A     -3.223583    44A     -3.223003    45A     -3.222982
      46A     -3.222702    47A     -3.222695    48A     -3.222691
      49A     -3.222685    50A     -3.212786    51A     -3.212786
      52A     -3.212197    53A     -3.212196    54A     -3.211907
      55A     -3.211907    56A     -3.211901    57A     -3.211901
      58A     -1.178832    59A     -1.035309    60A     -1.034228
      61A     -1.033563    62A     -0.795725    63A     -0.596431
      64A     -0.595640    65A     -0.595066    66A     -0.479500
      67A     -0.478111    68A     -0.440014    69A     -0.438830
      70A     -0.438471    71A     -0.414777    72A     -0.414358
      73A     -0.413820

  @DF-RHF Final Energy: -10327.67952497490478

   => Energetics <=

    Nuclear Repulsion Energy =           1451.5161204017058481
    One-Electron Energy =              -17280.1646473493638041
    Two-Electron Energy =                5500.9690019727531762
    Total Energy =                     -10327.6795249749047798
  Basis Set: (AUG-CC-PVTZ AUX)
    Blend: AUG-CC-PVTZ-RI
    Molecular point group: c1

    Geometry (in Angstrom), charge = 0, multiplicity = 1:

       Center              X                  Y                   Z               Mass
    ------------   -----------------  -----------------  -----------------  -----------------
         BR           1.858324464326    -0.406109772253    -0.415944970040    78.918337600000
         BR          -0.545574235674     1.649614427747    -0.895904970040    78.918337600000
         BR          -0.189252235674     0.219427427747     1.921577029960    78.918337600000
         BR          -1.123559235674    -1.463954572253    -0.609018970040    78.918337600000
         C            0.000402764326     0.006724427747    -0.004656970040    12.000000000000

  Basis Set: AUG-CC-PVTZ
    Blend: AUG-CC-PVTZ
  Basis Set: (AUG-CC-PVTZ AUX)
    Blend: AUG-CC-PVTZ-JKFIT
	 Reference Energy          =  -10327.6795249749047798 [Eh]
	 Singles Energy            =      -0.0000000000000000 [Eh]
	 Same-Spin Energy          =      -0.4065737938295118 [Eh]
	 Opposite-Spin Energy      =      -0.9405051685385153 [Eh]
	 Correlation Energy        =      -1.3470789623680270 [Eh]
	 Total Energy              =  -10329.0266039372727391 [Eh]

	 ================> DF-SCS-MP2 Energies <==================
	-----------------------------------------------------------
	 SCS Same-Spin Scale       =       0.3333333333333333 [-]
	 SCS Opposite-Spin Scale   =       1.2000000000000000 [-]
	 SCS Same-Spin Energy      =      -0.1355245979431706 [Eh]
	 SCS Opposite-Spin Energy  =      -1.1286062022462182 [Eh]
	 SCS Correlation Energy    =      -1.2641308001893887 [Eh]
	 SCS Total Energy          =  -10328.9436557750941574 [Eh]
	-----------------------------------------------------------

  Dipole Moment: [D]
     X:     0.0004      Y:     0.0081      Z:    -0.0057     Total:     0.0099

*** Psi4 exiting successfully. Buy a developer a beer!
