                               Psi4 1.3.2 release

  ==> Input File <==

--------------------------------------------------------------------------
#psi4
#
memory 32 gb

molecule  {
0 1
 Br        1.8411973    -0.5506840    -0.3134551
 Br       -0.5459720     1.6428760    -0.8912760
 Br       -0.1896500     0.2126890     1.9262060
 Br       -1.1239570    -1.4706930    -0.6043900
  C        0.0000050    -0.0000140    -0.0000280
units angstrom
no_reorient  #important for SAPT in psi4, default
symmetry c1  #important for SAPT in psi4, default
}

set PROPERTIES_ORIGIN ["COM"]
properties('MP2/aug-cc-pvtz', properties = ['dipole'])
--------------------------------------------------------------------------

    Molecular point group: c1
  Charge       = 0
  Multiplicity = 1
  Basis Set: AUG-CC-PVTZ
    Blend: AUG-CC-PVTZ
  Basis Set: (AUG-CC-PVTZ AUX)
    Blend: AUG-CC-PVTZ-JKFIT

    Orbital Energies [Eh]
    ---------------------

    Doubly Occupied:

       1A   -490.062093     2A   -490.058173     3A   -490.056374
       4A   -490.056370     5A    -65.201675     6A    -65.197890
       7A    -65.196142     8A    -65.196137     9A    -58.557172
      10A    -58.555346    11A    -58.555327    12A    -58.553366
      13A    -58.551606    14A    -58.551602    15A    -58.551555
      16A    -58.551531    17A    -58.549804    18A    -58.549800
      19A    -58.549791    20A    -58.549787    21A    -11.472563
      22A     -9.874359    23A     -9.870722    24A     -9.869023
      25A     -9.869016    26A     -7.486713    27A     -7.483071
      28A     -7.481350    29A     -7.481345    30A     -7.478329
      31A     -7.478255    32A     -7.474729    33A     -7.474630
      34A     -7.473031    35A     -7.473026    36A     -7.472984
      37A     -7.472979    38A     -3.230894    39A     -3.227225
      40A     -3.226595    41A     -3.226498    42A     -3.225489
      43A     -3.225469    44A     -3.222959    45A     -3.222836
      46A     -3.221213    47A     -3.221207    48A     -3.221145
      49A     -3.221140    50A     -3.215669    51A     -3.215667
      52A     -3.212064    53A     -3.212058    54A     -3.210413
      55A     -3.210411    56A     -3.210408    57A     -3.210405
      58A     -1.179154    59A     -1.039794    60A     -1.033562
      61A     -1.029546    62A     -0.795788    63A     -0.599917
      64A     -0.595311    65A     -0.591801    66A     -0.483177
      67A     -0.474968    68A     -0.445069    69A     -0.437777
      70A     -0.435828    71A     -0.415200    72A     -0.414322
      73A     -0.410841

  @DF-RHF Final Energy: -10327.67734504894361

   => Energetics <=

    Nuclear Repulsion Energy =           1452.5174388662117053
    One-Electron Energy =              -17282.1705953144701198
    Two-Electron Energy =                5501.9758113993138977
    Total Energy =                     -10327.6773450489436073
  Basis Set: (AUG-CC-PVTZ AUX)
    Blend: AUG-CC-PVTZ-RI
    Molecular point group: c1

    Geometry (in Angstrom), charge = 0, multiplicity = 1:

       Center              X                  Y                   Z               Mass
    ------------   -----------------  -----------------  -----------------  -----------------
         BR           1.845624248986    -0.510748572300    -0.341653333560    78.918337600000
         BR          -0.541545051014     1.682811427700    -0.919474233560    78.918337600000
         BR          -0.185223051014     0.252624427700     1.898007766440    78.918337600000
         BR          -1.119530051014    -1.430757572300    -0.632588233560    78.918337600000
         C            0.004431948986     0.039921427700    -0.028226233560    12.000000000000

  Basis Set: AUG-CC-PVTZ
    Blend: AUG-CC-PVTZ
  Basis Set: (AUG-CC-PVTZ AUX)
    Blend: AUG-CC-PVTZ-JKFIT
	 Reference Energy          =  -10327.6773450489436073 [Eh]
	 Singles Energy            =      -0.0000000000000000 [Eh]
	 Same-Spin Energy          =      -0.4066915911359369 [Eh]
	 Opposite-Spin Energy      =      -0.9407027263706444 [Eh]
	 Correlation Energy        =      -1.3473943175065815 [Eh]
	 Total Energy              =  -10329.0247393664503761 [Eh]

	 ================> DF-SCS-MP2 Energies <==================
	-----------------------------------------------------------
	 SCS Same-Spin Scale       =       0.3333333333333333 [-]
	 SCS Opposite-Spin Scale   =       1.2000000000000000 [-]
	 SCS Same-Spin Energy      =      -0.1355638637119790 [Eh]
	 SCS Opposite-Spin Energy  =      -1.1288432716447734 [Eh]
	 SCS Correlation Energy    =      -1.2644071353567523 [Eh]
	 SCS Total Energy          =  -10328.9417521843006398 [Eh]
	-----------------------------------------------------------

  Dipole Moment: [D]
     X:     0.0004      Y:     0.0495      Z:    -0.0332     Total:     0.0596

*** Psi4 exiting successfully. Buy a developer a beer!
