                               Psi4 1.3.2 release

  ==> Input File <==

--------------------------------------------------------------------------
#psi4
#
memory 32 gb

molecule  {
0 1
 Br        1.8557095    -0.4407007    -0.3919707
 Br       -0.5459720     1.6428760    -0.8912760
 Br       -0.1896500     0.2126890     1.9262060
 Br       -1.1239570    -1.4706930    -0.6043900
  C        0.0000050    -0.0000140    -0.0000280
units angstrom
no_reorient  #important for SAPT in psi4, default
symmetry c1  #important for SAPT in psi4, default
}

set PROPERTIES_ORIGIN ["COM"]
properties('MP2/aug-cc-pvtz', properties = ['dipole'])
--------------------------------------------------------------------------

    Molecular point group: c1
  Charge       = 0
  Multiplicity = 1
  Basis Set: AUG-CC-PVTZ
    Blend: AUG-CC-PVTZ
  Basis Set: (AUG-CC-PVTZ AUX)
    Blend: AUG-CC-PVTZ-JKFIT

    Orbital Energies [Eh]
    ---------------------

    Doubly Occupied:

       1A   -490.059596     2A   -490.058308     3A   -490.057682
       4A   -490.057678     5A    -65.199255     6A    -65.198010
       7A    -65.197404     8A    -65.197399     9A    -58.554737
      10A    -58.553486    11A    -58.552919    12A    -58.552912
      13A    -58.552875    14A    -58.552871    15A    -58.551673
      16A    -58.551665    17A    -58.551064    18A    -58.551060
      19A    -58.551060    20A    -58.551056    21A    -11.472705
      22A     -9.872016    23A     -9.870818    24A     -9.870233
      25A     -9.870227    26A     -7.484355    27A     -7.483154
      28A     -7.482564    29A     -7.482559    30A     -7.475989
      31A     -7.475963    32A     -7.474805    33A     -7.474771
      34A     -7.474217    35A     -7.474212    36A     -7.474202
      37A     -7.474196    38A     -3.228513    39A     -3.227302
      40A     -3.226712    41A     -3.226694    42A     -3.224204
      43A     -3.224171    44A     -3.223006    45A     -3.222963
      46A     -3.222406    47A     -3.222400    48A     -3.222384
      49A     -3.222378    50A     -3.213369    51A     -3.213369
      52A     -3.212186    53A     -3.212184    54A     -3.211611
      55A     -3.211610    56A     -3.211605    57A     -3.211604
      58A     -1.178860    59A     -1.036234    60A     -1.034091
      61A     -1.032760    62A     -0.795731    63A     -0.597142
      64A     -0.595570    65A     -0.594416    66A     -0.480214
      67A     -0.477446    68A     -0.440972    69A     -0.438586
      70A     -0.437879    71A     -0.415088    72A     -0.414365
      73A     -0.413273

  @DF-RHF Final Energy: -10327.67933483150409

   => Energetics <=

    Nuclear Repulsion Energy =           1451.6028543336462917
    One-Electron Energy =              -17280.3383950210481999
    Two-Electron Energy =                5501.0562058558953140
    Total Energy =                     -10327.6793348315059120
  Basis Set: (AUG-CC-PVTZ AUX)
    Blend: AUG-CC-PVTZ-RI
    Molecular point group: c1

    Geometry (in Angstrom), charge = 0, multiplicity = 1:

       Center              X                  Y                   Z               Mass
    ------------   -----------------  -----------------  -----------------  -----------------
         BR           1.856641264841    -0.427254149681    -0.401258879935    78.918337600000
         BR          -0.545040235159     1.656322550319    -0.900564179935    78.918337600000
         BR          -0.188718235159     0.226135550319     1.916917820065    78.918337600000
         BR          -1.123025235159    -1.457246449681    -0.613678179935    78.918337600000
         C            0.000936764841     0.013432550319    -0.009316179935    12.000000000000

  Basis Set: AUG-CC-PVTZ
    Blend: AUG-CC-PVTZ
  Basis Set: (AUG-CC-PVTZ AUX)
    Blend: AUG-CC-PVTZ-JKFIT
	 Reference Energy          =  -10327.6793348315040930 [Eh]
	 Singles Energy            =      -0.0000000000000000 [Eh]
	 Same-Spin Energy          =      -0.4065839981850572 [Eh]
	 Opposite-Spin Energy      =      -0.9405222909936234 [Eh]
	 Correlation Energy        =      -1.3471062891786807 [Eh]
	 Total Energy              =  -10329.0264411206826480 [Eh]

	 ================> DF-SCS-MP2 Energies <==================
	-----------------------------------------------------------
	 SCS Same-Spin Scale       =       0.3333333333333333 [-]
	 SCS Opposite-Spin Scale   =       1.2000000000000000 [-]
	 SCS Same-Spin Energy      =      -0.1355279993950191 [Eh]
	 SCS Opposite-Spin Energy  =      -1.1286267491923481 [Eh]
	 SCS Correlation Energy    =      -1.2641547485873672 [Eh]
	 SCS Total Energy          =  -10328.9434895800914092 [Eh]
	-----------------------------------------------------------

  Dipole Moment: [D]
     X:     0.0006      Y:     0.0164      Z:    -0.0113     Total:     0.0199

*** Psi4 exiting successfully. Buy a developer a beer!
