                               Psi4 1.3.2 release

  ==> Input File <==

--------------------------------------------------------------------------
#psi4
#
memory 32 gb

molecule  {
0 1
 Br        1.8595780    -0.3848700    -0.4305360
 Br       -0.5459720     1.6428760    -0.8912760
 Br       -0.1896500     0.2126890     1.9262060
 Br       -1.1239570    -1.4706930    -0.6043900
  C        0.0955064    -0.0197789    -0.0221374
units angstrom
no_reorient  #important for SAPT in psi4, default
symmetry c1  #important for SAPT in psi4, default
}

set PROPERTIES_ORIGIN ["COM"]
properties('MP2/aug-cc-pvtz', properties = ['dipole'])
--------------------------------------------------------------------------

    Molecular point group: c1
  Charge       = 0
  Multiplicity = 1
  Basis Set: AUG-CC-PVTZ
    Blend: AUG-CC-PVTZ
  Basis Set: (AUG-CC-PVTZ AUX)
    Blend: AUG-CC-PVTZ-JKFIT

    Orbital Energies [Eh]
    ---------------------

    Doubly Occupied:

       1A   -490.067391     2A   -490.055206     3A   -490.055205
       4A   -490.055202     5A    -65.207567     6A    -65.194788
       7A    -65.194786     8A    -65.194784     9A    -58.562947
      10A    -58.561235    11A    -58.561235    12A    -58.550283
      13A    -58.550282    14A    -58.550279    15A    -58.548445
      16A    -58.548443    17A    -58.548443    18A    -58.548442
      19A    -58.548441    20A    -58.548439    21A    -11.473311
      22A     -9.881139    23A     -9.867398    24A     -9.867396
      25A     -9.867389    26A     -7.493601    27A     -7.485216
      28A     -7.485216    29A     -7.479685    30A     -7.479683
      31A     -7.479678    32A     -7.471342    33A     -7.471340
      34A     -7.471340    35A     -7.471337    36A     -7.471336
      37A     -7.471334    38A     -3.237838    39A     -3.233265
      40A     -3.233265    41A     -3.223809    42A     -3.223787
      43A     -3.223784    44A     -3.222677    45A     -3.222677
      46A     -3.219567    47A     -3.219565    48A     -3.219561
      49A     -3.219555    50A     -3.219553    51A     -3.219551
      52A     -3.208738    53A     -3.208735    54A     -3.208734
      55A     -3.208732    56A     -3.208731    57A     -3.208727
      58A     -1.182433    59A     -1.048329    60A     -1.026777
      61A     -1.026772    62A     -0.795950    63A     -0.604494
      64A     -0.593070    65A     -0.593067    66A     -0.478513
      67A     -0.478513    68A     -0.448967    69A     -0.433385
      70A     -0.433380    71A     -0.415004    72A     -0.415002
      73A     -0.410954

  @DF-RHF Final Energy: -10327.67479651663416

   => Energetics <=

    Nuclear Repulsion Energy =           1451.5046451770740532
    One-Electron Energy =              -17280.1287894074230280
    Two-Electron Energy =                5500.9493477137148147
    Total Energy =                     -10327.6747965166341601
  Basis Set: (AUG-CC-PVTZ AUX)
    Blend: AUG-CC-PVTZ-RI
    Molecular point group: c1

    Geometry (in Angstrom), charge = 0, multiplicity = 1:

       Center              X                  Y                   Z               Mass
    ------------   -----------------  -----------------  -----------------  -----------------
         BR           1.856080621039    -0.384146142039    -0.429726251126    78.918337600000
         BR          -0.549469378961     1.643599857961    -0.890466251126    78.918337600000
         BR          -0.193147378961     0.213412857961     1.927015748874    78.918337600000
         BR          -1.127454378961    -1.469969142039    -0.603580251126    78.918337600000
         C            0.092009021039    -0.019055042039    -0.021327651126    12.000000000000

  Basis Set: AUG-CC-PVTZ
    Blend: AUG-CC-PVTZ
  Basis Set: (AUG-CC-PVTZ AUX)
    Blend: AUG-CC-PVTZ-JKFIT
	 Reference Energy          =  -10327.6747965166341601 [Eh]
	 Singles Energy            =      -0.0000000000000000 [Eh]
	 Same-Spin Energy          =      -0.4069225599518427 [Eh]
	 Opposite-Spin Energy      =      -0.9410550614596038 [Eh]
	 Correlation Energy        =      -1.3479776214114465 [Eh]
	 Total Energy              =  -10329.0227741380458610 [Eh]

	 ================> DF-SCS-MP2 Energies <==================
	-----------------------------------------------------------
	 SCS Same-Spin Scale       =       0.3333333333333333 [-]
	 SCS Opposite-Spin Scale   =       1.2000000000000000 [-]
	 SCS Same-Spin Energy      =      -0.1356408533172809 [Eh]
	 SCS Opposite-Spin Energy  =      -1.1292660737515245 [Eh]
	 SCS Correlation Energy    =      -1.2649069270688054 [Eh]
	 SCS Total Energy          =  -10328.9397034437024558 [Eh]
	-----------------------------------------------------------

  Dipole Moment: [D]
     X:     0.4464      Y:    -0.0924      Z:    -0.1034     Total:     0.4675

*** Psi4 exiting successfully. Buy a developer a beer!
