                               Psi4 1.3.2 release

  ==> Input File <==

--------------------------------------------------------------------------
#psi4
#
memory 32 gb

molecule  {
0 1
 Br        1.8595780    -0.3848700    -0.4305360
 Br       -0.5459720     1.6428760    -0.8912760
 Br       -0.1896500     0.2126890     1.9262060
 Br       -1.1239570    -1.4706930    -0.6043900
  C        0.0000050    -0.0000140    -0.0000280
units angstrom
no_reorient  #important for SAPT in psi4, default
symmetry c1  #important for SAPT in psi4, default
}

set PROPERTIES_ORIGIN ["COM"]
properties('MP2/aug-cc-pvtz', properties = ['dipole'])
--------------------------------------------------------------------------

    Molecular point group: c1
  Charge       = 0
  Multiplicity = 1
  Basis Set: AUG-CC-PVTZ
    Blend: AUG-CC-PVTZ
  Basis Set: (AUG-CC-PVTZ AUX)
    Blend: AUG-CC-PVTZ-JKFIT

    Orbital Energies [Eh]
    ---------------------

    Doubly Occupied:

       1A   -490.058326     2A   -490.058325     3A   -490.058324
       4A   -490.058321     5A    -65.198026     6A    -65.198025
       7A    -65.198024     8A    -65.198021     9A    -58.553501
      10A    -58.553501    11A    -58.553499    12A    -58.553496
      13A    -58.551685    14A    -58.551685    15A    -58.551685
      16A    -58.551685    17A    -58.551684    18A    -58.551684
      19A    -58.551681    20A    -58.551681    21A    -11.472724
      22A     -9.870833    23A     -9.870832    24A     -9.870830
      25A     -9.870822    26A     -7.483166    27A     -7.483165
      28A     -7.483163    29A     -7.483157    30A     -7.474804
      31A     -7.474803    32A     -7.474803    33A     -7.474801
      34A     -7.474800    35A     -7.474799    36A     -7.474797
      37A     -7.474797    38A     -3.227337    39A     -3.227302
      40A     -3.227301    41A     -3.227299    42A     -3.223000
      43A     -3.223000    44A     -3.222993    45A     -3.222993
      46A     -3.222992    47A     -3.222992    48A     -3.222989
      49A     -3.222989    50A     -3.212204    51A     -3.212204
      52A     -3.212203    53A     -3.212200    54A     -3.212200
      55A     -3.212196    56A     -3.212194    57A     -3.212194
      58A     -1.178823    59A     -1.034372    60A     -1.034370
      61A     -1.034365    62A     -0.795723    63A     -0.595715
      64A     -0.595714    65A     -0.595711    66A     -0.478797
      67A     -0.478797    68A     -0.439094    69A     -0.439092
      70A     -0.439088    71A     -0.414346    72A     -0.414344
      73A     -0.414343

  @DF-RHF Final Energy: -10327.67958885263761

   => Energetics <=

    Nuclear Repulsion Energy =           1451.4870778427002733
    One-Electron Energy =              -17280.1064701187970059
    Two-Electron Energy =                5500.9398034234600345
    Total Energy =                     -10327.6795888526376075
  Basis Set: (AUG-CC-PVTZ AUX)
    Blend: AUG-CC-PVTZ-RI
    Molecular point group: c1

    Geometry (in Angstrom), charge = 0, multiplicity = 1:

       Center              X                  Y                   Z               Mass
    ------------   -----------------  -----------------  -----------------  -----------------
         BR           1.859578057735    -0.384869968983    -0.430535937967    78.918337600000
         BR          -0.545971942265     1.642876031017    -0.891275937967    78.918337600000
         BR          -0.189649942265     0.212689031017     1.926206062033    78.918337600000
         BR          -1.123956942265    -1.470692968983    -0.604389937967    78.918337600000
         C            0.000005057735    -0.000013968983    -0.000027937967    12.000000000000

  Basis Set: AUG-CC-PVTZ
    Blend: AUG-CC-PVTZ
  Basis Set: (AUG-CC-PVTZ AUX)
    Blend: AUG-CC-PVTZ-JKFIT
	 Reference Energy          =  -10327.6795888526376075 [Eh]
	 Singles Energy            =      -0.0000000000000000 [Eh]
	 Same-Spin Energy          =      -0.4065703697905113 [Eh]
	 Opposite-Spin Energy      =      -0.9404994244959767 [Eh]
	 Correlation Energy        =      -1.3470697942864880 [Eh]
	 Total Energy              =  -10329.0266586469242611 [Eh]

	 ================> DF-SCS-MP2 Energies <==================
	-----------------------------------------------------------
	 SCS Same-Spin Scale       =       0.3333333333333333 [-]
	 SCS Opposite-Spin Scale   =       1.2000000000000000 [-]
	 SCS Same-Spin Energy      =      -0.1355234565968371 [Eh]
	 SCS Opposite-Spin Energy  =      -1.1285993093951721 [Eh]
	 SCS Correlation Energy    =      -1.2641227659920091 [Eh]
	 SCS Total Energy          =  -10328.9437116186290950 [Eh]
	-----------------------------------------------------------

  Dipole Moment: [D]
     X:     0.0000      Y:    -0.0001      Z:    -0.0001     Total:     0.0001

*** Psi4 exiting successfully. Buy a developer a beer!
