                               Psi4 1.3.2 release

  ==> Input File <==

--------------------------------------------------------------------------
#psi4
#
memory 32 gb

molecule  {
0 1
 Br        1.8595780    -0.3848700    -0.4305360
 Br       -0.5459720     1.6428760    -0.8912760
 Br       -0.1896500     0.2126890     1.9262060
 Br       -1.1239570    -1.4706930    -0.6043900
  C        0.1910078    -0.0395438    -0.0442469
units angstrom
no_reorient  #important for SAPT in psi4, default
symmetry c1  #important for SAPT in psi4, default
}

set PROPERTIES_ORIGIN ["COM"]
properties('MP2/aug-cc-pvtz', properties = ['dipole'])
--------------------------------------------------------------------------

    Molecular point group: c1
  Charge       = 0
  Multiplicity = 1
  Basis Set: AUG-CC-PVTZ
    Blend: AUG-CC-PVTZ
  Basis Set: (AUG-CC-PVTZ AUX)
    Blend: AUG-CC-PVTZ-JKFIT

    Orbital Energies [Eh]
    ---------------------

    Doubly Occupied:

       1A   -490.076531     2A   -490.051806     3A   -490.051804
       4A   -490.051802     5A    -65.217479     6A    -65.191277
       7A    -65.191276     8A    -65.191273     9A    -58.572681
      10A    -58.571159    11A    -58.571159    12A    -58.546790
      13A    -58.546788    14A    -58.546785    15A    -58.544928
      16A    -58.544927    17A    -58.544926    18A    -58.544925
      19A    -58.544924    20A    -58.544922    21A    -11.474635
      22A     -9.892243    23A     -9.863703    24A     -9.863701
      25A     -9.863694    26A     -7.504828    27A     -7.496490
      28A     -7.496490    29A     -7.475945    30A     -7.475943
      31A     -7.475938    32A     -7.467619    33A     -7.467617
      34A     -7.467613    35A     -7.467607    36A     -7.467604
      37A     -7.467601    38A     -3.249122    39A     -3.244247
      40A     -3.244247    41A     -3.234124    42A     -3.234124
      43A     -3.220028    44A     -3.220011    45A     -3.220008
      46A     -3.215867    47A     -3.215865    48A     -3.215862
      49A     -3.215858    50A     -3.215856    51A     -3.215854
      52A     -3.205009    53A     -3.205005    54A     -3.205004
      55A     -3.205002    56A     -3.205001    57A     -3.204996
      58A     -1.196253    59A     -1.057733    60A     -1.019036
      61A     -1.019032    62A     -0.796587    63A     -0.613703
      64A     -0.594305    65A     -0.594303    66A     -0.477321
      67A     -0.477321    68A     -0.455751    69A     -0.427761
      70A     -0.427757    71A     -0.413250    72A     -0.413248
      73A     -0.407311

  @DF-RHF Final Energy: -10327.65812010767877

   => Energetics <=

    Nuclear Repulsion Energy =           1451.6311742732482344
    One-Electron Energy =              -17280.3401958908798406
    Two-Electron Energy =                5501.0509015099514727
    Total Energy =                     -10327.6581201076805883
  Basis Set: (AUG-CC-PVTZ AUX)
    Blend: AUG-CC-PVTZ-RI
    Molecular point group: c1

    Geometry (in Angstrom), charge = 0, multiplicity = 1:

       Center              X                  Y                   Z               Mass
    ------------   -----------------  -----------------  -----------------  -----------------
         BR           1.852583184343    -0.383422315094    -0.428916560622    78.918337600000
         BR          -0.552966815657     1.644323684906    -0.889656560622    78.918337600000
         BR          -0.196644815657     0.214136684906     1.927825439378    78.918337600000
         BR          -1.130951815657    -1.469245315094    -0.602770560622    78.918337600000
         C            0.184012984343    -0.038096115094    -0.042627460622    12.000000000000

  Basis Set: AUG-CC-PVTZ
    Blend: AUG-CC-PVTZ
  Basis Set: (AUG-CC-PVTZ AUX)
    Blend: AUG-CC-PVTZ-JKFIT
	 Reference Energy          =  -10327.6581201076787693 [Eh]
	 Singles Energy            =      -0.0000000000000000 [Eh]
	 Same-Spin Energy          =      -0.4080955154616904 [Eh]
	 Opposite-Spin Energy      =      -0.9429004196788900 [Eh]
	 Correlation Energy        =      -1.3509959351405805 [Eh]
	 Total Energy              =  -10329.0091160428200965 [Eh]

	 ================> DF-SCS-MP2 Energies <==================
	-----------------------------------------------------------
	 SCS Same-Spin Scale       =       0.3333333333333333 [-]
	 SCS Opposite-Spin Scale   =       1.2000000000000000 [-]
	 SCS Same-Spin Energy      =      -0.1360318384872301 [Eh]
	 SCS Opposite-Spin Energy  =      -1.1314805036146680 [Eh]
	 SCS Correlation Energy    =      -1.2675123421018981 [Eh]
	 SCS Total Energy          =  -10328.9256324497800961 [Eh]
	-----------------------------------------------------------

  Dipole Moment: [D]
     X:     0.9631      Y:    -0.1994      Z:    -0.2231     Total:     1.0085

*** Psi4 exiting successfully. Buy a developer a beer!
