                               Psi4 1.4a3.dev225

  ==> Input File <==

--------------------------------------------------------------------------
#psi4
#
memory 32 gb

molecule  {
0 1
 Br        1.8595780    -0.3848700    -0.4305360
 Br       -0.5459720     1.6428760    -0.8912760
 Br       -0.1896500     0.2126890     1.9262060
 Br       -1.1239570    -1.4706930    -0.6043900
  C        0.0477557    -0.0098965    -0.0110827
units angstrom
no_reorient  #important for SAPT in psi4, default
symmetry c1  #important for SAPT in psi4, default
}

set PROPERTIES_ORIGIN ["COM"]
properties('MP2/aug-cc-pvtz', properties = ['dipole'])
--------------------------------------------------------------------------

    Molecular point group: c1
  Charge       = 0
  Multiplicity = 1
  Basis Set: AUG-CC-PVTZ
    Blend: AUG-CC-PVTZ
  Basis Set: (AUG-CC-PVTZ AUX)
    Blend: AUG-CC-PVTZ-JKFIT

    Orbital Energies [Eh]
    ---------------------

    Doubly Occupied:

       1A   -490.062933     2A   -490.056768     3A   -490.056766
       4A   -490.056763     5A    -65.202838     6A    -65.196408
       7A    -65.196407     8A    -65.196404     9A    -58.558275
      10A    -58.556501    11A    -58.556501    12A    -58.551894
      13A    -58.551892    14A    -58.551889    15A    -58.550067
      16A    -58.550066    17A    -58.550066    18A    -58.550064
      19A    -58.550063    20A    -58.550062    21A    -11.472884
      22A     -9.875981    23A     -9.869116    24A     -9.869114
      25A     -9.869107    26A     -7.488382    27A     -7.481426
      28A     -7.481424    29A     -7.481419    30A     -7.479995
      31A     -7.479995    32A     -7.473075    33A     -7.473074
      34A     -7.473072    35A     -7.473072    36A     -7.473069
      37A     -7.473068    38A     -3.232579    39A     -3.228137
      40A     -3.228137    41A     -3.225569    42A     -3.225545
      43A     -3.225542    44A     -3.221284    45A     -3.221282
      46A     -3.221278    47A     -3.221274    48A     -3.221273
      49A     -3.221270    50A     -3.217411    51A     -3.217411
      52A     -3.210473    53A     -3.210472    54A     -3.210469
      55A     -3.210469    56A     -3.210466    57A     -3.210464
      58A     -1.179636    59A     -1.041717    60A     -1.030577
      61A     -1.030572    62A     -0.795784    63A     -0.599983
      64A     -0.594001    65A     -0.593997    66A     -0.478736
      67A     -0.478736    68A     -0.444410    69A     -0.436245
      70A     -0.436241    71A     -0.414938    72A     -0.414936
      73A     -0.412657

  @DF-RHF Final Energy: -10327.67845521046365

   => Energetics <=

    Nuclear Repulsion Energy =           1451.4892369544070334
    One-Electron Energy =              -17280.1076505548953719
    Two-Electron Energy =                5500.9399583900249127
    Total Energy =                     -10327.6784552104636532
  Basis Set: (AUG-CC-PVTZ AUX)
    Blend: AUG-CC-PVTZ-RI
    Molecular point group: c1

    Geometry (in Angstrom), charge = 0, multiplicity = 1:

       Center              X                  Y                   Z               Mass
    ------------   -----------------  -----------------  -----------------  -----------------
         BR           1.857829339387    -0.384508053680    -0.430131094546    78.918337600000
         BR          -0.547720660613     1.643237946320    -0.890871094546    78.918337600000
         BR          -0.191398660613     0.213050946320     1.926610905454    78.918337600000
         BR          -1.125705660613    -1.470331053680    -0.603985094546    78.918337600000
         C            0.046007039387    -0.009534553680    -0.010677794546    12.000000000000

  Basis Set: AUG-CC-PVTZ
    Blend: AUG-CC-PVTZ
  Basis Set: (AUG-CC-PVTZ AUX)
    Blend: AUG-CC-PVTZ-JKFIT
	 Reference Energy          =  -10327.6784552104636532 [Eh]
	 Singles Energy            =      -0.0000000000000000 [Eh]
	 Same-Spin Energy          =      -0.4066543968470279 [Eh]
	 Opposite-Spin Energy      =      -0.9406320982073992 [Eh]
	 Correlation Energy        =      -1.3472864950544272 [Eh]
	 Total Energy              =  -10329.0257417055181577 [Eh]

	 ================> DF-SCS-MP2 Energies <==================
	-----------------------------------------------------------
	 SCS Same-Spin Scale       =       0.3333333333333333 [-]
	 SCS Opposite-Spin Scale   =       1.2000000000000000 [-]
	 SCS Same-Spin Energy      =      -0.1355514656156759 [Eh]
	 SCS Opposite-Spin Energy  =      -1.1287585178488790 [Eh]
	 SCS Correlation Energy    =      -1.2643099834645550 [Eh]
	 SCS Total Energy          =  -10328.9427651939276984 [Eh]
	-----------------------------------------------------------

  Dipole Moment: [D]
     X:     0.2174      Y:    -0.0450      Z:    -0.0504     Total:     0.2276

*** Psi4 exiting successfully. Buy a developer a beer!
