                               Psi4 1.3.2 release

  ==> Input File <==

--------------------------------------------------------------------------
#psi4
#
memory 32 gb

molecule  {
0 1
 Br        1.8575849    -0.2148394    -0.5429001
 Br       -0.5459720     1.6428760    -0.8912760
 Br       -0.1896500     0.2126890     1.9262060
 Br       -1.1239570    -1.4706930    -0.6043900
  C        0.0000050    -0.0000140    -0.0000280
units angstrom
no_reorient  #important for SAPT in psi4, default
symmetry c1  #important for SAPT in psi4, default
}

set PROPERTIES_ORIGIN ["COM"]
properties('MP2/aug-cc-pvtz', properties = ['dipole'])
--------------------------------------------------------------------------

    Molecular point group: c1
  Charge       = 0
  Multiplicity = 1
  Basis Set: AUG-CC-PVTZ
    Blend: AUG-CC-PVTZ
  Basis Set: (AUG-CC-PVTZ AUX)
    Blend: AUG-CC-PVTZ-JKFIT

    Orbital Energies [Eh]
    ---------------------

    Doubly Occupied:

       1A   -490.060207     2A   -490.060203     3A   -490.058173
       4A   -490.054427     5A    -65.199847     6A    -65.199842
       7A    -65.197891     8A    -65.194267     9A    -58.555333
      10A    -58.555328    11A    -58.553514    12A    -58.553509
      13A    -58.553502    14A    -58.553498    15A    -58.553367
      16A    -58.551557    17A    -58.551530    18A    -58.549720
      19A    -58.547927    20A    -58.547907    21A    -11.472540
      22A     -9.872589    23A     -9.872583    24A     -9.870726
      25A     -9.867229    26A     -7.484931    27A     -7.484926
      28A     -7.483074    29A     -7.479555    30A     -7.476563
      31A     -7.476558    32A     -7.476522    33A     -7.476517
      34A     -7.474734    35A     -7.474631    36A     -7.471263
      37A     -7.471186    38A     -3.229101    39A     -3.229083
      40A     -3.227228    41A     -3.224794    42A     -3.224788
      43A     -3.224735    44A     -3.224729    45A     -3.223673
      46A     -3.222967    47A     -3.222834    48A     -3.219432
      49A     -3.219328    50A     -3.213934    51A     -3.213932
      52A     -3.213927    53A     -3.213925    54A     -3.212066
      55A     -3.212061    56A     -3.208632    57A     -3.208628
      58A     -1.179186    59A     -1.039314    60A     -1.035226
      61A     -1.028366    62A     -0.795802    63A     -0.599540
      64A     -0.596208    65A     -0.591274    66A     -0.483476
      67A     -0.474787    68A     -0.443250    69A     -0.441007
      70A     -0.434538    71A     -0.417076    72A     -0.414049
      73A     -0.408999

  @DF-RHF Final Energy: -10327.67716974729774

   => Energetics <=

    Nuclear Repulsion Energy =           1452.5562107422078952
    One-Electron Energy =              -17282.2476208643565769
    Two-Electron Energy =                5502.0142403748504876
    Total Energy =                     -10327.6771697472977394
  Basis Set: (AUG-CC-PVTZ AUX)
    Blend: AUG-CC-PVTZ-RI
    Molecular point group: c1

    Geometry (in Angstrom), charge = 0, multiplicity = 1:

       Center              X                  Y                   Z               Mass
    ------------   -----------------  -----------------  -----------------  -----------------
         BR           1.858064984990    -0.255790310757    -0.515837757903    78.918337600000
         BR          -0.545491915010     1.601925089243    -0.864213657903    78.918337600000
         BR          -0.189169915010     0.171738089243     1.953268342097    78.918337600000
         BR          -1.123476915010    -1.511643910757    -0.577327657903    78.918337600000
         C            0.000485084990    -0.040964910757     0.027034342097    12.000000000000

  Basis Set: AUG-CC-PVTZ
    Blend: AUG-CC-PVTZ
  Basis Set: (AUG-CC-PVTZ AUX)
    Blend: AUG-CC-PVTZ-JKFIT
	 Reference Energy          =  -10327.6771697472977394 [Eh]
	 Singles Energy            =      -0.0000000000000000 [Eh]
	 Same-Spin Energy          =      -0.4067001541805952 [Eh]
	 Opposite-Spin Energy      =      -0.9407163814755906 [Eh]
	 Correlation Energy        =      -1.3474165356561858 [Eh]
	 Total Energy              =  -10329.0245862829542602 [Eh]

	 ================> DF-SCS-MP2 Energies <==================
	-----------------------------------------------------------
	 SCS Same-Spin Scale       =       0.3333333333333333 [-]
	 SCS Opposite-Spin Scale   =       1.2000000000000000 [-]
	 SCS Same-Spin Energy      =      -0.1355667180601984 [Eh]
	 SCS Opposite-Spin Energy  =      -1.1288596577707086 [Eh]
	 SCS Correlation Energy    =      -1.2644263758309071 [Eh]
	 SCS Total Energy          =  -10328.9415961231279653 [Eh]
	-----------------------------------------------------------

  Dipole Moment: [D]
     X:    -0.0042      Y:    -0.0477      Z:     0.0332     Total:     0.0583

*** Psi4 exiting successfully. Buy a developer a beer!
