                               Psi4 1.3.2 release

  ==> Input File <==

--------------------------------------------------------------------------
#psi4
#
memory 32 gb

molecule  {
0 1
 Br        1.8605163    -0.2718705    -0.5060467
 Br       -0.5459720     1.6428760    -0.8912760
 Br       -0.1896500     0.2126890     1.9262060
 Br       -1.1239570    -1.4706930    -0.6043900
  C        0.0000050    -0.0000140    -0.0000280
units angstrom
no_reorient  #important for SAPT in psi4, default
symmetry c1  #important for SAPT in psi4, default
}

set PROPERTIES_ORIGIN ["COM"]
properties('MP2/aug-cc-pvtz', properties = ['dipole'])
--------------------------------------------------------------------------

    Molecular point group: c1
  Charge       = 0
  Multiplicity = 1
  Basis Set: AUG-CC-PVTZ
    Blend: AUG-CC-PVTZ
  Basis Set: (AUG-CC-PVTZ AUX)
    Blend: AUG-CC-PVTZ-JKFIT

    Orbital Energies [Eh]
    ---------------------

    Doubly Occupied:

       1A   -490.059589     2A   -490.059584     3A   -490.058257
       4A   -490.055738     5A    -65.199248     6A    -65.199243
       7A    -65.197965     8A    -65.195528     9A    -58.554730
      10A    -58.554726    11A    -58.553441    12A    -58.552913
      13A    -58.552908    14A    -58.552905    15A    -58.552900
      16A    -58.551631    17A    -58.551613    18A    -58.550989
      19A    -58.549189    20A    -58.549176    21A    -11.472644
      22A     -9.872011    23A     -9.872004    24A     -9.870783
      25A     -9.868433    26A     -7.484349    27A     -7.484343
      28A     -7.483123    29A     -7.480760    30A     -7.475984
      31A     -7.475979    32A     -7.475956    33A     -7.475950
      34A     -7.474783    35A     -7.474714    36A     -7.472448
      37A     -7.472397    38A     -3.228513    39A     -3.228495
      40A     -3.227274    41A     -3.224888    42A     -3.224202
      43A     -3.224196    44A     -3.224161    45A     -3.224155
      46A     -3.222997    47A     -3.222909    48A     -3.220622
      49A     -3.220553    50A     -3.213364    51A     -3.213363
      52A     -3.213358    53A     -3.213357    54A     -3.212141
      55A     -3.212137    56A     -3.209829    57A     -3.209827
      58A     -1.178981    59A     -1.037637    60A     -1.034937
      61A     -1.030443    62A     -0.795757    63A     -0.598277
      64A     -0.596031    65A     -0.592780    66A     -0.481795
      67A     -0.476085    68A     -0.441798    69A     -0.440300
      70A     -0.435853    71A     -0.416237    72A     -0.414192
      73A     -0.411321

  @DF-RHF Final Energy: -10327.67853166745954

   => Energetics <=

    Nuclear Repulsion Energy =           1451.9588744891016177
    One-Electron Energy =              -17281.0514205433610186
    Two-Electron Energy =                5501.4140143868016821
    Total Energy =                     -10327.6785316674577189
  Basis Set: (AUG-CC-PVTZ AUX)
    Blend: AUG-CC-PVTZ-RI
    Molecular point group: c1

    Geometry (in Angstrom), charge = 0, multiplicity = 1:

       Center              X                  Y                   Z               Mass
    ------------   -----------------  -----------------  -----------------  -----------------
         BR           1.860290373303    -0.299085781668    -0.487860298102    78.918337600000
         BR          -0.546197926697     1.615660718332    -0.873089598102    78.918337600000
         BR          -0.189875926697     0.185473718332     1.944392401898    78.918337600000
         BR          -1.124182926697    -1.497908281668    -0.586203598102    78.918337600000
         C           -0.000220926697    -0.027229281668     0.018158401898    12.000000000000

  Basis Set: AUG-CC-PVTZ
    Blend: AUG-CC-PVTZ
  Basis Set: (AUG-CC-PVTZ AUX)
    Blend: AUG-CC-PVTZ-JKFIT
	 Reference Energy          =  -10327.6785316674595379 [Eh]
	 Singles Energy            =      -0.0000000000000000 [Eh]
	 Same-Spin Energy          =      -0.4066269940862883 [Eh]
	 Opposite-Spin Energy      =      -0.9405942355454773 [Eh]
	 Correlation Energy        =      -1.3472212296317656 [Eh]
	 Total Energy              =  -10329.0257528970905696 [Eh]

	 ================> DF-SCS-MP2 Energies <==================
	-----------------------------------------------------------
	 SCS Same-Spin Scale       =       0.3333333333333333 [-]
	 SCS Opposite-Spin Scale   =       1.2000000000000000 [-]
	 SCS Same-Spin Energy      =      -0.1355423313620961 [Eh]
	 SCS Opposite-Spin Energy  =      -1.1287130826545726 [Eh]
	 SCS Correlation Energy    =      -1.2642554140166686 [Eh]
	 SCS Total Energy          =  -10328.9427870814761263 [Eh]
	-----------------------------------------------------------

  Dipole Moment: [D]
     X:    -0.0024      Y:    -0.0322      Z:     0.0222     Total:     0.0392

*** Psi4 exiting successfully. Buy a developer a beer!
