                               Psi4 1.3.2 release

  ==> Input File <==

--------------------------------------------------------------------------
#psi4
#
memory 32 gb

molecule  {
0 1
 Br        1.8611809    -0.3285704    -0.4685768
 Br       -0.5459720     1.6428760    -0.8912760
 Br       -0.1896500     0.2126890     1.9262060
 Br       -1.1239570    -1.4706930    -0.6043900
  C        0.0000050    -0.0000140    -0.0000280
units angstrom
no_reorient  #important for SAPT in psi4, default
symmetry c1  #important for SAPT in psi4, default
}

set PROPERTIES_ORIGIN ["COM"]
properties('MP2/aug-cc-pvtz', properties = ['dipole'])
--------------------------------------------------------------------------

    Molecular point group: c1
  Charge       = 0
  Multiplicity = 1
  Basis Set: AUG-CC-PVTZ
    Blend: AUG-CC-PVTZ
  Basis Set: (AUG-CC-PVTZ AUX)
    Blend: AUG-CC-PVTZ-JKFIT

    Orbital Energies [Eh]
    ---------------------

    Doubly Occupied:

       1A   -490.058961     2A   -490.058957     3A   -490.058308
       4A   -490.057037     5A    -65.198640     6A    -65.198636
       7A    -65.198010     8A    -65.196781     9A    -58.554119
      10A    -58.554115    11A    -58.553486    12A    -58.552303
      13A    -58.552299    14A    -58.552298    15A    -58.552294
      16A    -58.552249    17A    -58.551673    18A    -58.551665
      19A    -58.550442    20A    -58.550435    21A    -11.472705
      22A     -9.871424    23A     -9.871418    24A     -9.870818
      25A     -9.869634    26A     -7.483760    27A     -7.483754
      28A     -7.483154    29A     -7.481964    30A     -7.475397
      31A     -7.475392    32A     -7.475382    33A     -7.475377
      34A     -7.474805    35A     -7.474771    36A     -7.473628
      37A     -7.473602    38A     -3.227919    39A     -3.227900
      40A     -3.227301    41A     -3.226100    42A     -3.223602
      43A     -3.223596    44A     -3.223582    45A     -3.223575
      46A     -3.223006    47A     -3.222963    48A     -3.221810
      49A     -3.221776    50A     -3.212787    51A     -3.212786
      52A     -3.212781    53A     -3.212780    54A     -3.212186
      55A     -3.212184    56A     -3.211019    57A     -3.211018
      58A     -1.178862    59A     -1.035992    60A     -1.034650
      61A     -1.032442    62A     -0.795731    63A     -0.597001
      64A     -0.595866    65A     -0.594260    66A     -0.480242
      67A     -0.477422    68A     -0.440405    69A     -0.439662
      70A     -0.437375    71A     -0.415329    72A     -0.414288
      73A     -0.413098

  @DF-RHF Final Energy: -10327.67932852320337

   => Energetics <=

    Nuclear Repulsion Energy =           1451.6042244801137713
    One-Electron Energy =              -17280.3411169405953842
    Two-Electron Energy =                5501.0575639372782462
    Total Energy =                     -10327.6793285232033668
  Basis Set: (AUG-CC-PVTZ AUX)
    Blend: AUG-CC-PVTZ-RI
    Molecular point group: c1

    Geometry (in Angstrom), charge = 0, multiplicity = 1:

       Center              X                  Y                   Z               Mass
    ------------   -----------------  -----------------  -----------------  -----------------
         BR           1.860794908021    -0.342129820291    -0.459414818960    78.918337600000
         BR          -0.546357991979     1.629316579709    -0.882114018960    78.918337600000
         BR          -0.190035991979     0.199129579709     1.935367981040    78.918337600000
         BR          -1.124342991979    -1.484252420291    -0.595228018960    78.918337600000
         C           -0.000380991979    -0.013573420291     0.009133981040    12.000000000000

  Basis Set: AUG-CC-PVTZ
    Blend: AUG-CC-PVTZ
  Basis Set: (AUG-CC-PVTZ AUX)
    Blend: AUG-CC-PVTZ-JKFIT
	 Reference Energy          =  -10327.6793285232033668 [Eh]
	 Singles Energy            =      -0.0000000000000000 [Eh]
	 Same-Spin Energy          =      -0.4065843046708050 [Eh]
	 Opposite-Spin Energy      =      -0.9405227829056264 [Eh]
	 Correlation Energy        =      -1.3471070875764313 [Eh]
	 Total Energy              =  -10329.0264356107800268 [Eh]

	 ================> DF-SCS-MP2 Energies <==================
	-----------------------------------------------------------
	 SCS Same-Spin Scale       =       0.3333333333333333 [-]
	 SCS Opposite-Spin Scale   =       1.2000000000000000 [-]
	 SCS Same-Spin Energy      =      -0.1355281015569350 [Eh]
	 SCS Opposite-Spin Energy  =      -1.1286273394867516 [Eh]
	 SCS Correlation Energy    =      -1.2641554410436866 [Eh]
	 SCS Total Energy          =  -10328.9434839642472070 [Eh]
	-----------------------------------------------------------

  Dipole Moment: [D]
     X:    -0.0010      Y:    -0.0163      Z:     0.0111     Total:     0.0197

*** Psi4 exiting successfully. Buy a developer a beer!
