                               Psi4 1.3.2 release

  ==> Input File <==

--------------------------------------------------------------------------
#psi4
#
memory 32 gb

molecule  {
0 1
 Br        1.8495801    -0.4959945    -0.3529279
 Br       -0.5459720     1.6428760    -0.8912760
 Br       -0.1896500     0.2126890     1.9262060
 Br       -1.1239570    -1.4706930    -0.6043900
  C        0.0000050    -0.0000140    -0.0000280
units angstrom
no_reorient  #important for SAPT in psi4, default
symmetry c1  #important for SAPT in psi4, default
}

set PROPERTIES_ORIGIN ["COM"]
properties('MP2/aug-cc-pvtz', properties = ['dipole'])
--------------------------------------------------------------------------

    Molecular point group: c1
  Charge       = 0
  Multiplicity = 1
  Basis Set: AUG-CC-PVTZ
    Blend: AUG-CC-PVTZ
  Basis Set: (AUG-CC-PVTZ AUX)
    Blend: AUG-CC-PVTZ-JKFIT

    Orbital Energies [Eh]
    ---------------------

    Doubly Occupied:

       1A   -490.060852     2A   -490.058257     3A   -490.057031
       4A   -490.057027     5A    -65.200472     6A    -65.197965
       7A    -65.196775     8A    -65.196771     9A    -58.555962
      10A    -58.554140    11A    -58.554127    12A    -58.553440
      13A    -58.552243    14A    -58.552239    15A    -58.551630
      16A    -58.551613    17A    -58.550437    18A    -58.550433
      19A    -58.550429    20A    -58.550424    21A    -11.472651
      22A     -9.873193    23A     -9.870782    24A     -9.869630
      25A     -9.869623    26A     -7.485539    27A     -7.483123
      28A     -7.481959    29A     -7.481954    30A     -7.477165
      31A     -7.477115    32A     -7.474781    33A     -7.474714
      34A     -7.473626    35A     -7.473621    36A     -7.473595
      37A     -7.473590    38A     -3.229708    39A     -3.227273
      40A     -3.226103    41A     -3.226084    42A     -3.225405
      43A     -3.225339    44A     -3.222994    45A     -3.222910
      46A     -3.221811    47A     -3.221805    48A     -3.221767
      49A     -3.221761    50A     -3.214526    51A     -3.214525
      52A     -3.212140    53A     -3.212137    54A     -3.211015
      55A     -3.211013    56A     -3.211009    57A     -3.211007
      58A     -1.178971    59A     -1.038040    60A     -1.033821
      61A     -1.031154    62A     -0.795753    63A     -0.598543
      64A     -0.595436    65A     -0.593111    66A     -0.481673
      67A     -0.476173    68A     -0.442978    69A     -0.438148
      70A     -0.436786    71A     -0.415361    72A     -0.414356
      73A     -0.412108

  @DF-RHF Final Energy: -10327.67858304204856

   => Energetics <=

    Nuclear Repulsion Energy =           1451.9474982884607925
    One-Electron Energy =              -17281.0288165501406183
    Two-Electron Energy =                5501.4027352196326319
    Total Energy =                     -10327.6785830420485581
  Basis Set: (AUG-CC-PVTZ AUX)
    Blend: AUG-CC-PVTZ-RI
    Molecular point group: c1

    Geometry (in Angstrom), charge = 0, multiplicity = 1:

       Center              X                  Y                   Z               Mass
    ------------   -----------------  -----------------  -----------------  -----------------
         BR           1.851988097370    -0.469230739812    -0.371619325171    78.918337600000
         BR          -0.543564002630     1.669639760188    -0.909967425171    78.918337600000
         BR          -0.187242002630     0.239452760188     1.907514574829    78.918337600000
         BR          -1.121549002630    -1.443929239812    -0.623081425171    78.918337600000
         C            0.002412997370     0.026749760188    -0.018719425171    12.000000000000

  Basis Set: AUG-CC-PVTZ
    Blend: AUG-CC-PVTZ
  Basis Set: (AUG-CC-PVTZ AUX)
    Blend: AUG-CC-PVTZ-JKFIT
	 Reference Energy          =  -10327.6785830420485581 [Eh]
	 Singles Energy            =      -0.0000000000000000 [Eh]
	 Same-Spin Energy          =      -0.4066244883222855 [Eh]
	 Opposite-Spin Energy      =      -0.9405902221215888 [Eh]
	 Correlation Energy        =      -1.3472147104438743 [Eh]
	 Total Energy              =  -10329.0257977524925082 [Eh]

	 ================> DF-SCS-MP2 Energies <==================
	-----------------------------------------------------------
	 SCS Same-Spin Scale       =       0.3333333333333333 [-]
	 SCS Opposite-Spin Scale   =       1.2000000000000000 [-]
	 SCS Same-Spin Energy      =      -0.1355414961074285 [Eh]
	 SCS Opposite-Spin Energy  =      -1.1287082665459065 [Eh]
	 SCS Correlation Energy    =      -1.2642497626533351 [Eh]
	 SCS Total Energy          =  -10328.9428328047015384 [Eh]
	-----------------------------------------------------------

  Dipole Moment: [D]
     X:     0.0007      Y:     0.0329      Z:    -0.0223     Total:     0.0398

*** Psi4 exiting successfully. Buy a developer a beer!
