                               Psi4 1.3.2 release

  ==> Input File <==

--------------------------------------------------------------------------
#psi4
#
memory 32 gb

molecule  {
0 1
 Br        1.8595780    -0.3848700    -0.4305360
 Br       -0.5459720     1.6428760    -0.8912760
 Br       -0.1896500     0.2126890     1.9262060
 Br       -1.1239570    -1.4706930    -0.6043900
  C       -0.1909978     0.0395158     0.0441909
units angstrom
no_reorient  #important for SAPT in psi4, default
symmetry c1  #important for SAPT in psi4, default
}

set PROPERTIES_ORIGIN ["COM"]
properties('MP2/aug-cc-pvtz', properties = ['dipole'])
--------------------------------------------------------------------------

    Molecular point group: c1
  Charge       = 0
  Multiplicity = 1
  Basis Set: AUG-CC-PVTZ
    Blend: AUG-CC-PVTZ
  Basis Set: (AUG-CC-PVTZ AUX)
    Blend: AUG-CC-PVTZ-JKFIT

    Orbital Energies [Eh]
    ---------------------

    Doubly Occupied:

       1A   -490.065639     2A   -490.065637     3A   -490.065634
       4A   -490.035803     5A    -65.205531     6A    -65.205529
       7A    -65.205526     8A    -65.175218     9A    -58.560973
      10A    -58.560971    11A    -58.560968    12A    -58.559193
      13A    -58.559191    14A    -58.559188    15A    -58.559178
      16A    -58.559176    17A    -58.559173    18A    -58.530695
      19A    -58.528896    20A    -58.528896    21A    -11.476117
      22A     -9.878700    23A     -9.878697    24A     -9.878690
      25A     -9.847378    26A     -7.491140    27A     -7.491138
      28A     -7.491133    29A     -7.482697    30A     -7.482695
      31A     -7.482691    32A     -7.482654    33A     -7.482651
      34A     -7.482647    35A     -7.459304    36A     -7.451422
      37A     -7.451422    38A     -3.235395    39A     -3.235366
      40A     -3.235363    41A     -3.230920    42A     -3.230918
      43A     -3.230914    44A     -3.230837    45A     -3.230834
      46A     -3.230828    47A     -3.220063    48A     -3.220061
      49A     -3.220059    50A     -3.220054    51A     -3.220053
      52A     -3.220050    53A     -3.203127    54A     -3.199365
      55A     -3.199365    56A     -3.189032    57A     -3.189032
      58A     -1.186742    59A     -1.049864    60A     -1.049856
      61A     -1.002480    62A     -0.797242    63A     -0.607814
      64A     -0.607810    65A     -0.582864    66A     -0.478506
      67A     -0.478505    68A     -0.450771    69A     -0.450766
      70A     -0.421707    71A     -0.411330    72A     -0.406678
      73A     -0.406677

  @DF-RHF Final Energy: -10327.66589082433347

   => Energetics <=

    Nuclear Repulsion Energy =           1451.3564182388336121
    One-Electron Energy =              -17279.7977352112247900
    Two-Electron Energy =                5500.7754261480577043
    Total Energy =                     -10327.6658908243334736
  Basis Set: (AUG-CC-PVTZ AUX)
    Blend: AUG-CC-PVTZ-RI
    Molecular point group: c1

    Geometry (in Angstrom), charge = 0, multiplicity = 1:

       Center              X                  Y                   Z               Mass
    ------------   -----------------  -----------------  -----------------  -----------------
         BR           1.866572931127    -0.386317622872    -0.432155315311    78.918337600000
         BR          -0.538977068873     1.641428377128    -0.892895315311    78.918337600000
         BR          -0.182655068873     0.211241377128     1.924586684689    78.918337600000
         BR          -1.116962068873    -1.472140622872    -0.606009315311    78.918337600000
         C           -0.184002868873     0.038068177128     0.042571584689    12.000000000000

  Basis Set: AUG-CC-PVTZ
    Blend: AUG-CC-PVTZ
  Basis Set: (AUG-CC-PVTZ AUX)
    Blend: AUG-CC-PVTZ-JKFIT
	 Reference Energy          =  -10327.6658908243334736 [Eh]
	 Singles Energy            =      -0.0000000000000000 [Eh]
	 Same-Spin Energy          =      -0.4075728507925095 [Eh]
	 Opposite-Spin Energy      =      -0.9420492874012047 [Eh]
	 Correlation Energy        =      -1.3496221381937143 [Eh]
	 Total Energy              =  -10329.0155129625272821 [Eh]

	 ================> DF-SCS-MP2 Energies <==================
	-----------------------------------------------------------
	 SCS Same-Spin Scale       =       0.3333333333333333 [-]
	 SCS Opposite-Spin Scale   =       1.2000000000000000 [-]
	 SCS Same-Spin Energy      =      -0.1358576169308365 [Eh]
	 SCS Opposite-Spin Energy  =      -1.1304591448814456 [Eh]
	 SCS Correlation Energy    =      -1.2663167618122821 [Eh]
	 SCS Total Energy          =  -10328.9322075861455232 [Eh]
	-----------------------------------------------------------

  Dipole Moment: [D]
     X:    -0.8386      Y:     0.1735      Z:     0.1940     Total:     0.8781

*** Psi4 exiting successfully. Buy a developer a beer!
