                               Psi4 1.4a3.dev225

  ==> Input File <==

--------------------------------------------------------------------------
#psi4
#
memory 32 gb

molecule  {
0 1
 Br        1.8595780    -0.3848700    -0.4305360
 Br       -0.5459720     1.6428760    -0.8912760
 Br       -0.1896500     0.2126890     1.9262060
 Br       -1.1239570    -1.4706930    -0.6043900
  C        0.0191053    -0.0039670    -0.0044499
units angstrom
no_reorient  #important for SAPT in psi4, default
symmetry c1  #important for SAPT in psi4, default
}

set PROPERTIES_ORIGIN ["COM"]
properties('MP2/aug-cc-pvtz', properties = ['dipole'])
--------------------------------------------------------------------------

    Molecular point group: c1
  Charge       = 0
  Multiplicity = 1
  Basis Set: AUG-CC-PVTZ
    Blend: AUG-CC-PVTZ
  Basis Set: (AUG-CC-PVTZ AUX)
    Blend: AUG-CC-PVTZ-JKFIT

    Orbital Energies [Eh]
    ---------------------

    Doubly Occupied:

       1A   -490.060196     2A   -490.057699     3A   -490.057697
       4A   -490.057694     5A    -65.199970     6A    -65.197375
       7A    -65.197374     8A    -65.197371     9A    -58.555433
      10A    -58.553631    11A    -58.553631    12A    -58.552855
      13A    -58.552853    14A    -58.552850    15A    -58.551035
      16A    -58.551034    17A    -58.551033    18A    -58.551032
      19A    -58.551030    20A    -58.551030    21A    -11.472751
      22A     -9.872901    23A     -9.870142    24A     -9.870140
      25A     -9.870133    26A     -7.485262    27A     -7.482466
      28A     -7.482464    29A     -7.482459    30A     -7.476886
      31A     -7.476886    32A     -7.474109    33A     -7.474108
      34A     -7.474106    35A     -7.474106    36A     -7.474103
      37A     -7.474102    38A     -3.229431    39A     -3.226620
      40A     -3.226595    41A     -3.226592    42A     -3.225064
      43A     -3.225064    44A     -3.222309    45A     -3.222308
      46A     -3.222303    47A     -3.222302    48A     -3.222300
      49A     -3.222298    50A     -3.214289    51A     -3.214289
      52A     -3.211508    53A     -3.211507    54A     -3.211505
      55A     -3.211504    56A     -3.211501    57A     -3.211499
      58A     -1.178945    59A     -1.037374    60A     -1.032853
      61A     -1.032847    62A     -0.795733    63A     -0.597385
      64A     -0.594945    65A     -0.594942    66A     -0.478789
      67A     -0.478788    68A     -0.441309    69A     -0.437955
      70A     -0.437951    71A     -0.414644    72A     -0.414642
      73A     -0.413668

  @DF-RHF Final Energy: -10327.67941326639084

   => Energetics <=

    Nuclear Repulsion Energy =           1451.4872099587337289
    One-Electron Energy =              -17280.1062371677144256
    Two-Electron Energy =                5500.9396139425889487
    Total Energy =                     -10327.6794132663926575
  Basis Set: (AUG-CC-PVTZ AUX)
    Blend: AUG-CC-PVTZ-RI
    Molecular point group: c1

    Geometry (in Angstrom), charge = 0, multiplicity = 1:

       Center              X                  Y                   Z               Mass
    ------------   -----------------  -----------------  -----------------  -----------------
         BR           1.858878569664    -0.384725202862    -0.430373999866    78.918337600000
         BR          -0.546671430336     1.643020797138    -0.891113999866    78.918337600000
         BR          -0.190349430336     0.212833797138     1.926368000134    78.918337600000
         BR          -1.124656430336    -1.470548202862    -0.604227999866    78.918337600000
         C            0.018405869664    -0.003822202862    -0.004287899866    12.000000000000

  Basis Set: AUG-CC-PVTZ
    Blend: AUG-CC-PVTZ
  Basis Set: (AUG-CC-PVTZ AUX)
    Blend: AUG-CC-PVTZ-JKFIT
	 Reference Energy          =  -10327.6794132663908385 [Eh]
	 Singles Energy            =      -0.0000000000000000 [Eh]
	 Same-Spin Energy          =      -0.4065834228540506 [Eh]
	 Opposite-Spin Energy      =      -0.9405200377540355 [Eh]
	 Correlation Energy        =      -1.3471034606080861 [Eh]
	 Total Energy              =  -10329.0265167269990343 [Eh]

	 ================> DF-SCS-MP2 Energies <==================
	-----------------------------------------------------------
	 SCS Same-Spin Scale       =       0.3333333333333333 [-]
	 SCS Opposite-Spin Scale   =       1.2000000000000000 [-]
	 SCS Same-Spin Energy      =      -0.1355278076180169 [Eh]
	 SCS Opposite-Spin Energy  =      -1.1286240453048426 [Eh]
	 SCS Correlation Energy    =      -1.2641518529228595 [Eh]
	 SCS Total Energy          =  -10328.9435651193143713 [Eh]
	-----------------------------------------------------------

  Dipole Moment: [D]
     X:     0.0859      Y:    -0.0178      Z:    -0.0200     Total:     0.0900

*** Psi4 exiting successfully. Buy a developer a beer!
