                               Psi4 1.3.2 release

  ==> Input File <==

--------------------------------------------------------------------------
#psi4
#
memory 32 gb

molecule  {
0 1
 Br        1.8595780    -0.3848700    -0.4305360
 Br       -0.5459720     1.6428760    -0.8912760
 Br       -0.1896500     0.2126890     1.9262060
 Br       -1.1239570    -1.4706930    -0.6043900
  C       -0.0954964     0.0197509     0.0220814
units angstrom
no_reorient  #important for SAPT in psi4, default
symmetry c1  #important for SAPT in psi4, default
}

set PROPERTIES_ORIGIN ["COM"]
properties('MP2/aug-cc-pvtz', properties = ['dipole'])
--------------------------------------------------------------------------

    Molecular point group: c1
  Charge       = 0
  Multiplicity = 1
  Basis Set: AUG-CC-PVTZ
    Blend: AUG-CC-PVTZ
  Basis Set: (AUG-CC-PVTZ AUX)
    Blend: AUG-CC-PVTZ-JKFIT

    Orbital Energies [Eh]
    ---------------------

    Doubly Occupied:

       1A   -490.061670     2A   -490.061668     3A   -490.061665
       4A   -490.048098     5A    -65.201479     6A    -65.201477
       7A    -65.201474     8A    -65.187559     9A    -58.556935
      10A    -58.556933    11A    -58.556931    12A    -58.555140
      13A    -58.555139    14A    -58.555136    15A    -58.555135
      16A    -58.555133    17A    -58.555131    18A    -58.543063
      19A    -58.541220    20A    -58.541220    21A    -11.473499
      22A     -9.874478    23A     -9.874475    24A     -9.874468
      25A     -9.859918    26A     -7.486862    27A     -7.486859
      28A     -7.486855    29A     -7.478466    30A     -7.478464
      31A     -7.478460    32A     -7.478455    33A     -7.478452
      34A     -7.478448    35A     -7.472082    36A     -7.463875
      37A     -7.463875    38A     -3.231066    39A     -3.231038
      40A     -3.231035    41A     -3.226660    42A     -3.226658
      43A     -3.226654    44A     -3.226631    45A     -3.226629
      46A     -3.226624    47A     -3.216093    48A     -3.215859
      49A     -3.215858    50A     -3.215857    51A     -3.215852
      52A     -3.215851    53A     -3.215849    54A     -3.212037
      55A     -3.212037    56A     -3.201323    57A     -3.201323
      58A     -1.181207    59A     -1.042027    60A     -1.042020
      61A     -1.018653    62A     -0.796045    63A     -0.600927
      64A     -0.600923    65A     -0.588320    66A     -0.478662
      67A     -0.478661    68A     -0.444811    69A     -0.444807
      70A     -0.426354    71A     -0.417836    72A     -0.411620
      73A     -0.411618

  @DF-RHF Final Energy: -10327.67575231415685

   => Energetics <=

    Nuclear Repulsion Energy =           1451.4703498146898255
    One-Electron Energy =              -17280.0609634284191998
    Two-Electron Energy =                5500.9148612995741132
    Total Energy =                     -10327.6757523141550337
  Basis Set: (AUG-CC-PVTZ AUX)
    Blend: AUG-CC-PVTZ-RI
    Molecular point group: c1

    Geometry (in Angstrom), charge = 0, multiplicity = 1:

       Center              X                  Y                   Z               Mass
    ------------   -----------------  -----------------  -----------------  -----------------
         BR           1.863075494431    -0.385593795928    -0.431345624808    78.918337600000
         BR          -0.542474505569     1.642152204072    -0.892085624808    78.918337600000
         BR          -0.186152505569     0.211965204072     1.925396375192    78.918337600000
         BR          -1.120459505569    -1.471416795928    -0.605199624808    78.918337600000
         C           -0.091998905569     0.019027104072     0.021271775192    12.000000000000

  Basis Set: AUG-CC-PVTZ
    Blend: AUG-CC-PVTZ
  Basis Set: (AUG-CC-PVTZ AUX)
    Blend: AUG-CC-PVTZ-JKFIT
	 Reference Energy          =  -10327.6757523141568527 [Eh]
	 Singles Energy            =      -0.0000000000000000 [Eh]
	 Same-Spin Energy          =      -0.4068554099694208 [Eh]
	 Opposite-Spin Energy      =      -0.9409470944946648 [Eh]
	 Correlation Energy        =      -1.3478025044640858 [Eh]
	 Total Energy              =  -10329.0235548186210508 [Eh]

	 ================> DF-SCS-MP2 Energies <==================
	-----------------------------------------------------------
	 SCS Same-Spin Scale       =       0.3333333333333333 [-]
	 SCS Opposite-Spin Scale   =       1.2000000000000000 [-]
	 SCS Same-Spin Energy      =      -0.1356184699898069 [Eh]
	 SCS Opposite-Spin Energy  =      -1.1291365133935978 [Eh]
	 SCS Correlation Energy    =      -1.2647549833834046 [Eh]
	 SCS Total Energy          =  -10328.9405072975405346 [Eh]
	-----------------------------------------------------------

  Dipole Moment: [D]
     X:    -0.4193      Y:     0.0867      Z:     0.0970     Total:     0.4390

*** Psi4 exiting successfully. Buy a developer a beer!
