                               Psi4 1.3.2 release

  ==> Input File <==

--------------------------------------------------------------------------
#psi4
#
memory 32 gb

molecule  {
0 1
  O        0.3083183     1.3565801     0.0000010
  N        1.4348200    -0.6488910    -0.0000020
  C       -0.9749590    -0.6428430     0.0000000
  C       -2.1282420    -0.0114780     0.7458050
  C       -2.1282420    -0.0114760    -0.7458050
  C        0.3065510     0.1203640     0.0000000
  C        2.7647980    -0.0711410     0.0000010
  H       -0.9168040    -1.7286440    -0.0000010
  H       -1.9064930     0.9268970     1.2416810
  H       -2.8082510    -0.6753610     1.2689740
  H       -2.8082510    -0.6753540    -1.2689790
  H       -1.9064880     0.9269020    -1.2416750
  H        1.3354930    -1.6544500     0.0000010
  H        3.3241450    -0.3701690    -0.8913010
  H        3.3241380    -0.3701570     0.8913110
  H        2.6401830     1.0111360    -0.0000070
units angstrom
no_reorient  #important for SAPT in psi4, default
symmetry c1  #important for SAPT in psi4, default
}

set PROPERTIES_ORIGIN ["COM"]
properties('MP2/aug-cc-pvtz', properties = ['dipole'])
--------------------------------------------------------------------------

    Molecular point group: c1
  Charge       = 0
  Multiplicity = 1
  Basis Set: AUG-CC-PVTZ
    Blend: AUG-CC-PVTZ
  Basis Set: (AUG-CC-PVTZ AUX)
    Blend: AUG-CC-PVTZ-JKFIT

    Orbital Energies [Eh]
    ---------------------

    Doubly Occupied:

       1A    -20.508223     2A    -15.587314     3A    -11.347785
       4A    -11.257678     5A    -11.243257     6A    -11.233886
       7A    -11.233180     8A     -1.366332     9A     -1.227002
      10A     -1.149984    11A     -0.968438    12A     -0.859350
      13A     -0.825942    14A     -0.777741    15A     -0.715507
      16A     -0.663840    17A     -0.624469    18A     -0.621181
      19A     -0.606570    20A     -0.545585    21A     -0.544963
      22A     -0.543417    23A     -0.512014    24A     -0.440347
      25A     -0.419002    26A     -0.417076    27A     -0.390206

  @DF-RHF Final Energy:  -323.99587876362801

   => Energetics <=

    Nuclear Repulsion Energy =            303.0723294604025000
    One-Electron Energy =               -1040.8758340955102994
    Two-Electron Energy =                 413.8076258714798428
    Total Energy =                       -323.9958787636280135
  Basis Set: (AUG-CC-PVTZ AUX)
    Blend: AUG-CC-PVTZ-RI
    Molecular point group: c1

    Geometry (in Angstrom), charge = 0, multiplicity = 1:

       Center              X                  Y                   Z               Mass
    ------------   -----------------  -----------------  -----------------  -----------------
         O            0.314555077758     1.330503079039     0.000000959421    15.994914619570
         N            1.441056777758    -0.674968020961    -0.000002040579    14.003074004430
         C           -0.968722222242    -0.668920020961    -0.000000040579    12.000000000000
         C           -2.122005222242    -0.037555020961     0.745804959421    12.000000000000
         C           -2.122005222242    -0.037553020961    -0.745805040579    12.000000000000
         C            0.312787777758     0.094286979039    -0.000000040579    12.000000000000
         C            2.771034777758    -0.097218020961     0.000000959421    12.000000000000
         H           -0.910567222242    -1.754721020961    -0.000001040579     1.007825032230
         H           -1.900256222242     0.900819979039     1.241680959421     1.007825032230
         H           -2.802014222242    -0.701438020961     1.268973959421     1.007825032230
         H           -2.802014222242    -0.701431020961    -1.268979040579     1.007825032230
         H           -1.900251222242     0.900824979039    -1.241675040579     1.007825032230
         H            1.341729777758    -1.680527020961     0.000000959421     1.007825032230
         H            3.330381777758    -0.396246020961    -0.891301040579     1.007825032230
         H            3.330374777758    -0.396234020961     0.891310959421     1.007825032230
         H            2.646419777758     0.985058979039    -0.000007040579     1.007825032230

  Basis Set: AUG-CC-PVTZ
    Blend: AUG-CC-PVTZ
  Basis Set: (AUG-CC-PVTZ AUX)
    Blend: AUG-CC-PVTZ-JKFIT
	 Reference Energy          =    -323.9958787636280135 [Eh]
	 Singles Energy            =      -0.0000000000000000 [Eh]
	 Same-Spin Energy          =      -0.3346391259597678 [Eh]
	 Opposite-Spin Energy      =      -1.0891400488465650 [Eh]
	 Correlation Energy        =      -1.4237791748063329 [Eh]
	 Total Energy              =    -325.4196579384343408 [Eh]

	 ================> DF-SCS-MP2 Energies <==================
	-----------------------------------------------------------
	 SCS Same-Spin Scale       =       0.3333333333333333 [-]
	 SCS Opposite-Spin Scale   =       1.2000000000000000 [-]
	 SCS Same-Spin Energy      =      -0.1115463753199226 [Eh]
	 SCS Opposite-Spin Energy  =      -1.3069680586158781 [Eh]
	 SCS Correlation Energy    =      -1.4185144339358007 [Eh]
	 SCS Total Energy          =    -325.4143931975638111 [Eh]
	-----------------------------------------------------------

  Dipole Moment: [D]
     X:     0.7281      Y:    -3.5001      Z:     0.0000     Total:     3.5750

*** Psi4 exiting successfully. Buy a developer a beer!
