                               Psi4 1.3.2 release

  ==> Input File <==

--------------------------------------------------------------------------
#psi4
#
memory 32 gb

molecule  {
0 1
  O        0.3298930     1.3563610     0.0000010
  N        1.4348200    -0.6488910    -0.0000020
  C       -0.9749590    -0.6428430     0.0000000
  C       -2.2138794    -0.1375569     0.7033283
  C       -2.1282420    -0.0114760    -0.7458050
  C        0.3065510     0.1203640     0.0000000
  C        2.7647980    -0.0711410     0.0000010
  H       -0.9168040    -1.7286440    -0.0000010
  H       -1.9064930     0.9268970     1.2416810
  H       -2.8082510    -0.6753610     1.2689740
  H       -2.8082510    -0.6753540    -1.2689790
  H       -1.9064880     0.9269020    -1.2416750
  H        1.3354930    -1.6544500     0.0000010
  H        3.3241450    -0.3701690    -0.8913010
  H        3.3241380    -0.3701570     0.8913110
  H        2.6401830     1.0111360    -0.0000070
units angstrom
no_reorient  #important for SAPT in psi4, default
symmetry c1  #important for SAPT in psi4, default
}

set PROPERTIES_ORIGIN ["COM"]
properties('MP2/aug-cc-pvtz', properties = ['dipole'])
--------------------------------------------------------------------------

    Molecular point group: c1
  Charge       = 0
  Multiplicity = 1
  Basis Set: AUG-CC-PVTZ
    Blend: AUG-CC-PVTZ
  Basis Set: (AUG-CC-PVTZ AUX)
    Blend: AUG-CC-PVTZ-JKFIT

    Orbital Energies [Eh]
    ---------------------

    Doubly Occupied:

       1A    -20.509182     2A    -15.586831     3A    -11.349513
       4A    -11.257250     5A    -11.244094     6A    -11.237203
       7A    -11.235639     8A     -1.366957     9A     -1.226165
      10A     -1.157661    11A     -0.969647    12A     -0.863475
      13A     -0.831977    14A     -0.778164    15A     -0.709727
      16A     -0.679883    17A     -0.628259    18A     -0.621043
      19A     -0.608243    20A     -0.547117    21A     -0.543772
      22A     -0.542645    23A     -0.493003    24A     -0.445534
      25A     -0.422057    26A     -0.411830    27A     -0.388601

  @DF-RHF Final Energy:  -323.96746634881322

   => Energetics <=

    Nuclear Repulsion Energy =            302.6156009139083949
    One-Electron Energy =               -1039.8551938903617611
    Two-Electron Energy =                 413.2721266276402048
    Total Energy =                       -323.9674663488132182
  Basis Set: (AUG-CC-PVTZ AUX)
    Blend: AUG-CC-PVTZ-RI
    Molecular point group: c1

    Geometry (in Angstrom), charge = 0, multiplicity = 1:

       Center              X                  Y                   Z               Mass
    ------------   -----------------  -----------------  -----------------  -----------------
         O            0.343019595497     1.345591090821     0.005146094786    15.994914619570
         N            1.447946595497    -0.659660909179     0.005143094786    14.003074004430
         C           -0.961832404503    -0.653612909179     0.005145094786    12.000000000000
         C           -2.200752804503    -0.148326809179     0.708473394786    12.000000000000
         C           -2.115115404503    -0.022245909179    -0.740659905214    12.000000000000
         C            0.319677595497     0.109594090821     0.005145094786    12.000000000000
         C            2.777924595497    -0.081910909179     0.005146094786    12.000000000000
         H           -0.903677404503    -1.739413909179     0.005144094786     1.007825032230
         H           -1.893366404503     0.916127090821     1.246826094786     1.007825032230
         H           -2.795124404503    -0.686130909179     1.274119094786     1.007825032230
         H           -2.795124404503    -0.686123909179    -1.263833905214     1.007825032230
         H           -1.893361404503     0.916132090821    -1.236529905214     1.007825032230
         H            1.348619595497    -1.665219909179     0.005146094786     1.007825032230
         H            3.337271595497    -0.380938909179    -0.886155905214     1.007825032230
         H            3.337264595497    -0.380926909179     0.896456094786     1.007825032230
         H            2.653309595497     1.000366090821     0.005138094786     1.007825032230

  Basis Set: AUG-CC-PVTZ
    Blend: AUG-CC-PVTZ
  Basis Set: (AUG-CC-PVTZ AUX)
    Blend: AUG-CC-PVTZ-JKFIT
	 Reference Energy          =    -323.9674663488132182 [Eh]
	 Singles Energy            =      -0.0000000000000000 [Eh]
	 Same-Spin Energy          =      -0.3352940852766102 [Eh]
	 Opposite-Spin Energy      =      -1.0906143614757173 [Eh]
	 Correlation Energy        =      -1.4259084467523275 [Eh]
	 Total Energy              =    -325.3933747955655349 [Eh]

	 ================> DF-SCS-MP2 Energies <==================
	-----------------------------------------------------------
	 SCS Same-Spin Scale       =       0.3333333333333333 [-]
	 SCS Opposite-Spin Scale   =       1.2000000000000000 [-]
	 SCS Same-Spin Energy      =      -0.1117646950922034 [Eh]
	 SCS Opposite-Spin Energy  =      -1.3087372337708607 [Eh]
	 SCS Correlation Energy    =      -1.4205019288630640 [Eh]
	 SCS Total Energy          =    -325.3879682776762934 [Eh]
	-----------------------------------------------------------

  Dipole Moment: [D]
     X:     0.6493      Y:    -3.5357      Z:    -0.0170     Total:     3.5948

*** Psi4 exiting successfully. Buy a developer a beer!
