                               Psi4 1.4a3.dev225

  ==> Input File <==

--------------------------------------------------------------------------
#psi4
#
memory 32 gb

molecule  {
0 1
  O        0.3298930     1.3563610     0.0000010
  N        1.4348200    -0.6488910    -0.0000020
  C       -0.9749590    -0.6428430     0.0000000
  C       -2.1282420    -0.0114780     0.7458050
  C       -2.1282420    -0.0114760    -0.7458050
  C        0.3237345     0.1305977     0.0000000
  C        2.7647980    -0.0711410     0.0000010
  H       -0.9168040    -1.7286440    -0.0000010
  H       -1.9064930     0.9268970     1.2416810
  H       -2.8082510    -0.6753610     1.2689740
  H       -2.8082510    -0.6753540    -1.2689790
  H       -1.9064880     0.9269020    -1.2416750
  H        1.3354930    -1.6544500     0.0000010
  H        3.3241450    -0.3701690    -0.8913010
  H        3.3241380    -0.3701570     0.8913110
  H        2.6401830     1.0111360    -0.0000070
units angstrom
no_reorient  #important for SAPT in psi4, default
symmetry c1  #important for SAPT in psi4, default
}

set PROPERTIES_ORIGIN ["COM"]
properties('MP2/aug-cc-pvtz', properties = ['dipole'])
--------------------------------------------------------------------------

    Molecular point group: c1
  Charge       = 0
  Multiplicity = 1
  Basis Set: AUG-CC-PVTZ
    Blend: AUG-CC-PVTZ
  Basis Set: (AUG-CC-PVTZ AUX)
    Blend: AUG-CC-PVTZ-JKFIT

    Orbital Energies [Eh]
    ---------------------

    Doubly Occupied:

       1A    -20.509345     2A    -15.587001     3A    -11.346824
       4A    -11.257383     5A    -11.243245     6A    -11.232809
       7A    -11.232101     8A     -1.372993     9A     -1.229910
      10A     -1.148227    11A     -0.967558    12A     -0.855062
      13A     -0.824951    14A     -0.780802    15A     -0.714310
      16A     -0.663057    17A     -0.627487    18A     -0.622540
      19A     -0.605634    20A     -0.547100    21A     -0.545865
      22A     -0.542880    23A     -0.512095    24A     -0.440594
      25A     -0.419143    26A     -0.415241    27A     -0.391489

  @DF-RHF Final Energy:  -323.99664630673965

   => Energetics <=

    Nuclear Repulsion Energy =            303.0730212085591688
    One-Electron Energy =               -1040.8680402307279564
    Two-Electron Energy =                 413.7983727154291955
    Total Energy =                       -323.9966463067396489
  Basis Set: (AUG-CC-PVTZ AUX)
    Blend: AUG-CC-PVTZ-RI
    Molecular point group: c1

    Geometry (in Angstrom), charge = 0, multiplicity = 1:

       Center              X                  Y                   Z               Mass
    ------------   -----------------  -----------------  -----------------  -----------------
         O            0.330565062804     1.329079761575     0.000000959421    15.994914619570
         N            1.435492062804    -0.676172238425    -0.000002040579    14.003074004430
         C           -0.974286937196    -0.670124238425    -0.000000040579    12.000000000000
         C           -2.127569937196    -0.038759238425     0.745804959421    12.000000000000
         C           -2.127569937196    -0.038757238425    -0.745805040579    12.000000000000
         C            0.324406562804     0.103316461575    -0.000000040579    12.000000000000
         C            2.765470062804    -0.098422238425     0.000000959421    12.000000000000
         H           -0.916131937196    -1.755925238425    -0.000001040579     1.007825032230
         H           -1.905820937196     0.899615761575     1.241680959421     1.007825032230
         H           -2.807578937196    -0.702642238425     1.268973959421     1.007825032230
         H           -2.807578937196    -0.702635238425    -1.268979040579     1.007825032230
         H           -1.905815937196     0.899620761575    -1.241675040579     1.007825032230
         H            1.336165062804    -1.681731238425     0.000000959421     1.007825032230
         H            3.324817062804    -0.397450238425    -0.891301040579     1.007825032230
         H            3.324810062804    -0.397438238425     0.891310959421     1.007825032230
         H            2.640855062804     0.983854761575    -0.000007040579     1.007825032230

  Basis Set: AUG-CC-PVTZ
    Blend: AUG-CC-PVTZ
  Basis Set: (AUG-CC-PVTZ AUX)
    Blend: AUG-CC-PVTZ-JKFIT
	 Reference Energy          =    -323.9966463067396489 [Eh]
	 Singles Energy            =      -0.0000000000000000 [Eh]
	 Same-Spin Energy          =      -0.3343078653024081 [Eh]
	 Opposite-Spin Energy      =      -1.0884984296077977 [Eh]
	 Correlation Energy        =      -1.4228062949102058 [Eh]
	 Total Energy              =    -325.4194526016498799 [Eh]

	 ================> DF-SCS-MP2 Energies <==================
	-----------------------------------------------------------
	 SCS Same-Spin Scale       =       0.3333333333333333 [-]
	 SCS Opposite-Spin Scale   =       1.2000000000000000 [-]
	 SCS Same-Spin Energy      =      -0.1114359551008027 [Eh]
	 SCS Opposite-Spin Energy  =      -1.3061981155293572 [Eh]
	 SCS Correlation Energy    =      -1.4176340706301598 [Eh]
	 SCS Total Energy          =    -325.4142803773698347 [Eh]
	-----------------------------------------------------------

  Dipole Moment: [D]
     X:     0.7801      Y:    -3.4678      Z:     0.0000     Total:     3.5545

*** Psi4 exiting successfully. Buy a developer a beer!
