                               Psi4 1.3.2 release

  ==> Input File <==

--------------------------------------------------------------------------
#psi4
#
memory 32 gb

molecule  {
0 1
  O        0.3298930     1.3563610     0.0000010
  N        1.4348200    -0.6488910    -0.0000020
  C       -0.9749590    -0.6428430     0.0000000
  C       -2.1282420    -0.0114780     0.7458050
  C       -2.1282420    -0.0114760    -0.7458050
  C        0.3196756     0.0978823    -0.0000000
  C        2.7647980    -0.0711410     0.0000010
  H       -0.9168040    -1.7286440    -0.0000010
  H       -1.9064930     0.9268970     1.2416810
  H       -2.8082510    -0.6753610     1.2689740
  H       -2.8082510    -0.6753540    -1.2689790
  H       -1.9064880     0.9269020    -1.2416750
  H        1.3354930    -1.6544500     0.0000010
  H        3.3241450    -0.3701690    -0.8913010
  H        3.3241380    -0.3701570     0.8913110
  H        2.6401830     1.0111360    -0.0000070
units angstrom
no_reorient  #important for SAPT in psi4, default
symmetry c1  #important for SAPT in psi4, default
}

set PROPERTIES_ORIGIN ["COM"]
properties('MP2/aug-cc-pvtz', properties = ['dipole'])
--------------------------------------------------------------------------

    Molecular point group: c1
  Charge       = 0
  Multiplicity = 1
  Basis Set: AUG-CC-PVTZ
    Blend: AUG-CC-PVTZ
  Basis Set: (AUG-CC-PVTZ AUX)
    Blend: AUG-CC-PVTZ-JKFIT

    Orbital Energies [Eh]
    ---------------------

    Doubly Occupied:

       1A    -20.502100     2A    -15.591420     3A    -11.346926
       4A    -11.259505     5A    -11.244252     6A    -11.234137
       7A    -11.233429     8A     -1.354260     9A     -1.230890
      10A     -1.149670    11A     -0.973353    12A     -0.860583
      13A     -0.825811    14A     -0.782853    15A     -0.713991
      16A     -0.666076    17A     -0.623881    18A     -0.620258
      19A     -0.606914    20A     -0.545141    21A     -0.541367
      22A     -0.539427    23A     -0.511756    24A     -0.438846
      25A     -0.418202    26A     -0.415165    27A     -0.389950

  @DF-RHF Final Energy:  -323.99390973442530

   => Energetics <=

    Nuclear Repulsion Energy =            302.9464235282057416
    One-Electron Energy =               -1040.6403413477935374
    Two-Electron Energy =                 413.7000080851624944
    Total Energy =                       -323.9939097344253014
  Basis Set: (AUG-CC-PVTZ AUX)
    Blend: AUG-CC-PVTZ-RI
    Molecular point group: c1

    Geometry (in Angstrom), charge = 0, multiplicity = 1:

       Center              X                  Y                   Z               Mass
    ------------   -----------------  -----------------  -----------------  -----------------
         O            0.331056710929     1.333042526138     0.000000959421    15.994914619570
         N            1.435983710929    -0.672209473862    -0.000002040579    14.003074004430
         C           -0.973795289071    -0.666161473862    -0.000000040579    12.000000000000
         C           -2.127078289071    -0.034796473862     0.745804959421    12.000000000000
         C           -2.127078289071    -0.034794473862    -0.745805040579    12.000000000000
         C            0.320839310929     0.074563826138    -0.000000040579    12.000000000000
         C            2.765961710929    -0.094459473862     0.000000959421    12.000000000000
         H           -0.915640289071    -1.751962473862    -0.000001040579     1.007825032230
         H           -1.905329289071     0.903578526138     1.241680959421     1.007825032230
         H           -2.807087289071    -0.698679473862     1.268973959421     1.007825032230
         H           -2.807087289071    -0.698672473862    -1.268979040579     1.007825032230
         H           -1.905324289071     0.903583526138    -1.241675040579     1.007825032230
         H            1.336656710929    -1.677768473862     0.000000959421     1.007825032230
         H            3.325308710929    -0.393487473862    -0.891301040579     1.007825032230
         H            3.325301710929    -0.393475473862     0.891310959421     1.007825032230
         H            2.641346710929     0.987817526138    -0.000007040579     1.007825032230

  Basis Set: AUG-CC-PVTZ
    Blend: AUG-CC-PVTZ
  Basis Set: (AUG-CC-PVTZ AUX)
    Blend: AUG-CC-PVTZ-JKFIT
	 Reference Energy          =    -323.9939097344253014 [Eh]
	 Singles Energy            =      -0.0000000000000000 [Eh]
	 Same-Spin Energy          =      -0.3349091440230483 [Eh]
	 Opposite-Spin Energy      =      -1.0896599932359972 [Eh]
	 Correlation Energy        =      -1.4245691372590454 [Eh]
	 Total Energy              =    -325.4184788716843286 [Eh]

	 ================> DF-SCS-MP2 Energies <==================
	-----------------------------------------------------------
	 SCS Same-Spin Scale       =       0.3333333333333333 [-]
	 SCS Opposite-Spin Scale   =       1.2000000000000000 [-]
	 SCS Same-Spin Energy      =      -0.1116363813410161 [Eh]
	 SCS Opposite-Spin Energy  =      -1.3075919918831966 [Eh]
	 SCS Correlation Energy    =      -1.4192283732242128 [Eh]
	 SCS Total Energy          =    -325.4131381076495018 [Eh]
	-----------------------------------------------------------

  Dipole Moment: [D]
     X:     0.8043      Y:    -3.6647      Z:     0.0000     Total:     3.7519

*** Psi4 exiting successfully. Buy a developer a beer!
