                               Psi4 1.3.2 release

  ==> Input File <==

--------------------------------------------------------------------------
#psi4
#
memory 32 gb

molecule  {
0 1
  O        0.3298930     1.3563610     0.0000010
  N        1.4348200    -0.6488910    -0.0000020
  C       -0.9749590    -0.6428430     0.0000000
  C       -2.1127132     0.0088989     0.7521013
  C       -2.1282420    -0.0114760    -0.7458050
  C        0.3065510     0.1203640     0.0000000
  C        2.7647980    -0.0711410     0.0000010
  H       -0.9168040    -1.7286440    -0.0000010
  H       -1.9064930     0.9268970     1.2416810
  H       -2.8082510    -0.6753610     1.2689740
  H       -2.8082510    -0.6753540    -1.2689790
  H       -1.9064880     0.9269020    -1.2416750
  H        1.3354930    -1.6544500     0.0000010
  H        3.3241450    -0.3701690    -0.8913010
  H        3.3241380    -0.3701570     0.8913110
  H        2.6401830     1.0111360    -0.0000070
units angstrom
no_reorient  #important for SAPT in psi4, default
symmetry c1  #important for SAPT in psi4, default
}

set PROPERTIES_ORIGIN ["COM"]
properties('MP2/aug-cc-pvtz', properties = ['dipole'])
--------------------------------------------------------------------------

    Molecular point group: c1
  Charge       = 0
  Multiplicity = 1
  Basis Set: AUG-CC-PVTZ
    Blend: AUG-CC-PVTZ
  Basis Set: (AUG-CC-PVTZ AUX)
    Blend: AUG-CC-PVTZ-JKFIT

    Orbital Energies [Eh]
    ---------------------

    Doubly Occupied:

       1A    -20.507857     2A    -15.586211     3A    -11.347524
       4A    -11.256756     5A    -11.244749     6A    -11.234797
       7A    -11.234108     8A     -1.366480     9A     -1.225617
      10A     -1.150065    11A     -0.967858    12A     -0.859298
      13A     -0.827503    14A     -0.777068    15A     -0.717205
      16A     -0.662626    17A     -0.623410    18A     -0.620515
      19A     -0.607449    20A     -0.546584    21A     -0.544075
      22A     -0.542519    23A     -0.514716    24A     -0.439680
      25A     -0.420548    26A     -0.416483    27A     -0.389408

  @DF-RHF Final Energy:  -323.99524033115654

   => Energetics <=

    Nuclear Repulsion Energy =            303.1093270065368301
    One-Electron Energy =               -1040.9469165860900830
    Two-Electron Energy =                 413.8423492483966584
    Total Energy =                       -323.9952403311565376
  Basis Set: (AUG-CC-PVTZ AUX)
    Blend: AUG-CC-PVTZ-RI
    Molecular point group: c1

    Geometry (in Angstrom), charge = 0, multiplicity = 1:

       Center              X                  Y                   Z               Mass
    ------------   -----------------  -----------------  -----------------  -----------------
         O            0.330765493993     1.327851131831    -0.000761701421    15.994914619570
         N            1.435692493993    -0.677400868169    -0.000764701421    14.003074004430
         C           -0.974086506007    -0.671352868169    -0.000762701421    12.000000000000
         C           -2.111840706007    -0.019610968169     0.751338598579    12.000000000000
         C           -2.127369506007    -0.039985868169    -0.746567701421    12.000000000000
         C            0.307423493993     0.091854131831    -0.000762701421    12.000000000000
         C            2.765670493993    -0.099650868169    -0.000761701421    12.000000000000
         H           -0.915931506007    -1.757153868169    -0.000763701421     1.007825032230
         H           -1.905620506007     0.898387131831     1.240918298579     1.007825032230
         H           -2.807378506007    -0.703870868169     1.268211298579     1.007825032230
         H           -2.807378506007    -0.703863868169    -1.269741701421     1.007825032230
         H           -1.905615506007     0.898392131831    -1.242437701421     1.007825032230
         H            1.336365493993    -1.682959868169    -0.000761701421     1.007825032230
         H            3.325017493993    -0.398678868169    -0.892063701421     1.007825032230
         H            3.325010493993    -0.398666868169     0.890548298579     1.007825032230
         H            2.641055493993     0.982626131831    -0.000769701421     1.007825032230

  Basis Set: AUG-CC-PVTZ
    Blend: AUG-CC-PVTZ
  Basis Set: (AUG-CC-PVTZ AUX)
    Blend: AUG-CC-PVTZ-JKFIT
	 Reference Energy          =    -323.9952403311565376 [Eh]
	 Singles Energy            =      -0.0000000000000000 [Eh]
	 Same-Spin Energy          =      -0.3346100145587541 [Eh]
	 Opposite-Spin Energy      =      -1.0891495827498261 [Eh]
	 Correlation Energy        =      -1.4237595973085801 [Eh]
	 Total Energy              =    -325.4189999284650980 [Eh]

	 ================> DF-SCS-MP2 Energies <==================
	-----------------------------------------------------------
	 SCS Same-Spin Scale       =       0.3333333333333333 [-]
	 SCS Opposite-Spin Scale   =       1.2000000000000000 [-]
	 SCS Same-Spin Energy      =      -0.1115366715195847 [Eh]
	 SCS Opposite-Spin Energy  =      -1.3069794992997912 [Eh]
	 SCS Correlation Energy    =      -1.4185161708193759 [Eh]
	 SCS Total Energy          =    -325.4137565019759109 [Eh]
	-----------------------------------------------------------

  Dipole Moment: [D]
     X:     0.6592      Y:    -3.5018      Z:    -0.0071     Total:     3.5633

*** Psi4 exiting successfully. Buy a developer a beer!
