                               Psi4 1.3.2 release

  ==> Input File <==

--------------------------------------------------------------------------
#psi4
#
memory 32 gb

molecule  {
0 1
  O        0.3298930     1.3563610     0.0000010
  N        1.4348200    -0.6488910    -0.0000020
  C       -0.9749590    -0.6428430     0.0000000
  C       -2.0299690     0.1076836     0.7801105
  C       -2.1282420    -0.0114760    -0.7458050
  C        0.3065510     0.1203640     0.0000000
  C        2.7647980    -0.0711410     0.0000010
  H       -0.9168040    -1.7286440    -0.0000010
  H       -1.9064930     0.9268970     1.2416810
  H       -2.8082510    -0.6753610     1.2689740
  H       -2.8082510    -0.6753540    -1.2689790
  H       -1.9064880     0.9269020    -1.2416750
  H        1.3354930    -1.6544500     0.0000010
  H        3.3241450    -0.3701690    -0.8913010
  H        3.3241380    -0.3701570     0.8913110
  H        2.6401830     1.0111360    -0.0000070
units angstrom
no_reorient  #important for SAPT in psi4, default
symmetry c1  #important for SAPT in psi4, default
}

set PROPERTIES_ORIGIN ["COM"]
properties('MP2/aug-cc-pvtz', properties = ['dipole'])
--------------------------------------------------------------------------

    Molecular point group: c1
  Charge       = 0
  Multiplicity = 1
  Basis Set: AUG-CC-PVTZ
    Blend: AUG-CC-PVTZ
  Basis Set: (AUG-CC-PVTZ AUX)
    Blend: AUG-CC-PVTZ-JKFIT

    Orbital Energies [Eh]
    ---------------------

    Doubly Occupied:

       1A    -20.507902     2A    -15.586691     3A    -11.347440
       4A    -11.256985     5A    -11.248745     6A    -11.237453
       7A    -11.236645     8A     -1.367342     9A     -1.226135
      10A     -1.146401    11A     -0.967562    12A     -0.860073
      13A     -0.839627    14A     -0.778212    15A     -0.720532
      16A     -0.664393    17A     -0.621835    18A     -0.617436
      19A     -0.616085    20A     -0.549658    21A     -0.543467
      22A     -0.536714    23A     -0.517606    24A     -0.435547
      25A     -0.419763    26A     -0.410407    27A     -0.390320

  @DF-RHF Final Energy:  -323.96389389883950

   => Energetics <=

    Nuclear Repulsion Energy =            303.6003790664655071
    One-Electron Energy =               -1041.8265953152854308
    Two-Electron Energy =                 414.2623223499804226
    Total Energy =                       -323.9638938988395012
  Basis Set: (AUG-CC-PVTZ AUX)
    Blend: AUG-CC-PVTZ-RI
    Molecular point group: c1

    Geometry (in Angstrom), charge = 0, multiplicity = 1:

       Center              X                  Y                   Z               Mass
    ------------   -----------------  -----------------  -----------------  -----------------
         O            0.320742820158     1.315885497648    -0.004154411435    15.994914619570
         N            1.425669820158    -0.689366502352    -0.004157411435    14.003074004430
         C           -0.984109179842    -0.683318502352    -0.004155411435    12.000000000000
         C           -2.039119179842     0.067208097648     0.775955088565    12.000000000000
         C           -2.137392179842    -0.051951502352    -0.749960411435    12.000000000000
         C            0.297400820158     0.079888497648    -0.004155411435    12.000000000000
         C            2.755647820158    -0.111616502352    -0.004154411435    12.000000000000
         H           -0.925954179842    -1.769119502352    -0.004156411435     1.007825032230
         H           -1.915643179842     0.886421497648     1.237525588565     1.007825032230
         H           -2.817401179842    -0.715836502352     1.264818588565     1.007825032230
         H           -2.817401179842    -0.715829502352    -1.273134411435     1.007825032230
         H           -1.915638179842     0.886426497648    -1.245830411435     1.007825032230
         H            1.326342820158    -1.694925502352    -0.004154411435     1.007825032230
         H            3.314994820158    -0.410644502352    -0.895456411435     1.007825032230
         H            3.314987820158    -0.410632502352     0.887155588565     1.007825032230
         H            2.631032820158     0.970660497648    -0.004162411435     1.007825032230

  Basis Set: AUG-CC-PVTZ
    Blend: AUG-CC-PVTZ
  Basis Set: (AUG-CC-PVTZ AUX)
    Blend: AUG-CC-PVTZ-JKFIT
	 Reference Energy          =    -323.9638938988395012 [Eh]
	 Singles Energy            =      -0.0000000000000000 [Eh]
	 Same-Spin Energy          =      -0.3349009547425539 [Eh]
	 Opposite-Spin Energy      =      -1.0907692152342396 [Eh]
	 Correlation Energy        =      -1.4256701699767935 [Eh]
	 Total Energy              =    -325.3895640688162985 [Eh]

	 ================> DF-SCS-MP2 Energies <==================
	-----------------------------------------------------------
	 SCS Same-Spin Scale       =       0.3333333333333333 [-]
	 SCS Opposite-Spin Scale   =       1.2000000000000000 [-]
	 SCS Same-Spin Energy      =      -0.1116336515808513 [Eh]
	 SCS Opposite-Spin Energy  =      -1.3089230582810876 [Eh]
	 SCS Correlation Energy    =      -1.4205567098619389 [Eh]
	 SCS Total Energy          =    -325.3844506087014565 [Eh]
	-----------------------------------------------------------

  Dipole Moment: [D]
     X:     0.7365      Y:    -3.4995      Z:    -0.0865     Total:     3.5772

*** Psi4 exiting successfully. Buy a developer a beer!
