                               Psi4 1.3.2 release

  ==> Input File <==

--------------------------------------------------------------------------
#psi4
#
memory 32 gb

molecule  {
0 1
  O        0.3298930     1.3563610     0.0000010
  N        1.4348200    -0.6488910    -0.0000020
  C       -0.9749590    -0.6428430     0.0000000
  C       -2.1282420    -0.0114780     0.7458050
  C       -2.1282420    -0.0114760    -0.7458050
  C        0.1347162     0.0180273     0.0000000
  C        2.7647980    -0.0711410     0.0000010
  H       -0.9168040    -1.7286440    -0.0000010
  H       -1.9064930     0.9268970     1.2416810
  H       -2.8082510    -0.6753610     1.2689740
  H       -2.8082510    -0.6753540    -1.2689790
  H       -1.9064880     0.9269020    -1.2416750
  H        1.3354930    -1.6544500     0.0000010
  H        3.3241450    -0.3701690    -0.8913010
  H        3.3241380    -0.3701570     0.8913110
  H        2.6401830     1.0111360    -0.0000070
units angstrom
no_reorient  #important for SAPT in psi4, default
symmetry c1  #important for SAPT in psi4, default
}

set PROPERTIES_ORIGIN ["COM"]
properties('MP2/aug-cc-pvtz', properties = ['dipole'])
--------------------------------------------------------------------------

    Molecular point group: c1
  Charge       = 0
  Multiplicity = 1
  Basis Set: AUG-CC-PVTZ
    Blend: AUG-CC-PVTZ
  Basis Set: (AUG-CC-PVTZ AUX)
    Blend: AUG-CC-PVTZ-JKFIT

    Orbital Energies [Eh]
    ---------------------

    Doubly Occupied:

       1A    -20.492049     2A    -15.577076     3A    -11.355223
       4A    -11.257630     5A    -11.256862     6A    -11.249481
       7A    -11.248850     8A     -1.305949     9A     -1.182439
      10A     -1.181631    11A     -0.990806    12A     -0.894061
      13A     -0.846859    14A     -0.751308    15A     -0.724672
      16A     -0.676277    17A     -0.610785    18A     -0.603569
      19A     -0.602843    20A     -0.552763    21A     -0.549181
      22A     -0.520068    23A     -0.514339    24A     -0.452778
      25A     -0.415383    26A     -0.407569    27A     -0.366292

  @DF-RHF Final Energy:  -323.92377563537661

   => Energetics <=

    Nuclear Repulsion Energy =            302.8685602290901784
    One-Electron Energy =               -1040.4111834629079567
    Two-Electron Energy =                 413.6188475984411070
    Total Energy =                       -323.9237756353766144
  Basis Set: (AUG-CC-PVTZ AUX)
    Blend: AUG-CC-PVTZ-RI
    Molecular point group: c1

    Geometry (in Angstrom), charge = 0, multiplicity = 1:

       Center              X                  Y                   Z               Mass
    ------------   -----------------  -----------------  -----------------  -----------------
         O            0.353460549977     1.342715235755     0.000000959421    15.994914619570
         N            1.458387549977    -0.662536764245    -0.000002040579    14.003074004430
         C           -0.951391450023    -0.656488764245    -0.000000040579    12.000000000000
         C           -2.104674450023    -0.025123764245     0.745804959421    12.000000000000
         C           -2.104674450023    -0.025121764245    -0.745805040579    12.000000000000
         C            0.158283749977     0.004381535755    -0.000000040579    12.000000000000
         C            2.788365549977    -0.084786764245     0.000000959421    12.000000000000
         H           -0.893236450023    -1.742289764245    -0.000001040579     1.007825032230
         H           -1.882925450023     0.913251235755     1.241680959421     1.007825032230
         H           -2.784683450023    -0.689006764245     1.268973959421     1.007825032230
         H           -2.784683450023    -0.688999764245    -1.268979040579     1.007825032230
         H           -1.882920450023     0.913256235755    -1.241675040579     1.007825032230
         H            1.359060549977    -1.668095764245     0.000000959421     1.007825032230
         H            3.347712549977    -0.383814764245    -0.891301040579     1.007825032230
         H            3.347705549977    -0.383802764245     0.891310959421     1.007825032230
         H            2.663750549977     0.997490235755    -0.000007040579     1.007825032230

  Basis Set: AUG-CC-PVTZ
    Blend: AUG-CC-PVTZ
  Basis Set: (AUG-CC-PVTZ AUX)
    Blend: AUG-CC-PVTZ-JKFIT
	 Reference Energy          =    -323.9237756353766144 [Eh]
	 Singles Energy            =      -0.0000000000000000 [Eh]
	 Same-Spin Energy          =      -0.3400969855169131 [Eh]
	 Opposite-Spin Energy      =      -1.0991605759663927 [Eh]
	 Correlation Energy        =      -1.4392575614833059 [Eh]
	 Total Energy              =    -325.3630331968599307 [Eh]

	 ================> DF-SCS-MP2 Energies <==================
	-----------------------------------------------------------
	 SCS Same-Spin Scale       =       0.3333333333333333 [-]
	 SCS Opposite-Spin Scale   =       1.2000000000000000 [-]
	 SCS Same-Spin Energy      =      -0.1133656618389710 [Eh]
	 SCS Opposite-Spin Energy  =      -1.3189926911596712 [Eh]
	 SCS Correlation Energy    =      -1.4323583529986423 [Eh]
	 SCS Total Energy          =    -325.3561339883752339 [Eh]
	-----------------------------------------------------------

  Dipole Moment: [D]
     X:    -0.7398      Y:    -3.8439      Z:     0.0000     Total:     3.9144

*** Psi4 exiting successfully. Buy a developer a beer!
