                               Psi4 1.3.2 release

  ==> Input File <==

--------------------------------------------------------------------------
#psi4
#
memory 32 gb

molecule  {
0 1
  O        0.2436173     1.3549784     0.0000010
  N        1.4348200    -0.6488910    -0.0000020
  C       -0.9749590    -0.6428430     0.0000000
  C       -2.1282420    -0.0114780     0.7458050
  C       -2.1282420    -0.0114760    -0.7458050
  C        0.3065510     0.1203640     0.0000000
  C        2.7647980    -0.0711410     0.0000010
  H       -0.9168040    -1.7286440    -0.0000010
  H       -1.9064930     0.9268970     1.2416810
  H       -2.8082510    -0.6753610     1.2689740
  H       -2.8082510    -0.6753540    -1.2689790
  H       -1.9064880     0.9269020    -1.2416750
  H        1.3354930    -1.6544500     0.0000010
  H        3.3241450    -0.3701690    -0.8913010
  H        3.3241380    -0.3701570     0.8913110
  H        2.6401830     1.0111360    -0.0000070
units angstrom
no_reorient  #important for SAPT in psi4, default
symmetry c1  #important for SAPT in psi4, default
}

set PROPERTIES_ORIGIN ["COM"]
properties('MP2/aug-cc-pvtz', properties = ['dipole'])
--------------------------------------------------------------------------

    Molecular point group: c1
  Charge       = 0
  Multiplicity = 1
  Basis Set: AUG-CC-PVTZ
    Blend: AUG-CC-PVTZ
  Basis Set: (AUG-CC-PVTZ AUX)
    Blend: AUG-CC-PVTZ-JKFIT

    Orbital Energies [Eh]
    ---------------------

    Doubly Occupied:

       1A    -20.508903     2A    -15.590570     3A    -11.348130
       4A    -11.260297     5A    -11.240080     6A    -11.231480
       7A    -11.230776     8A     -1.366254     9A     -1.231035
      10A     -1.146912    11A     -0.969700    12A     -0.858541
      13A     -0.823756    14A     -0.779812    15A     -0.713471
      16A     -0.663440    17A     -0.625221    18A     -0.622983
      19A     -0.606707    20A     -0.547734    21A     -0.546003
      22A     -0.542100    23A     -0.509782    24A     -0.437972
      25A     -0.416438    26A     -0.416131    27A     -0.392865

  @DF-RHF Final Energy:  -323.99416354695461

   => Energetics <=

    Nuclear Repulsion Energy =            303.2548743591146945
    One-Electron Energy =               -1041.2438925373369329
    Two-Electron Energy =                 413.9948546312676854
    Total Energy =                       -323.9941635469546100
  Basis Set: (AUG-CC-PVTZ AUX)
    Blend: AUG-CC-PVTZ-RI
    Molecular point group: c1

    Geometry (in Angstrom), charge = 0, multiplicity = 1:

       Center              X                  Y                   Z               Mass
    ------------   -----------------  -----------------  -----------------  -----------------
         O            0.260300262672     1.329159978665     0.000000959421    15.994914619570
         N            1.451502962672    -0.674709421335    -0.000002040579    14.003074004430
         C           -0.958276037328    -0.668661421335    -0.000000040579    12.000000000000
         C           -2.111559037328    -0.037296421335     0.745804959421    12.000000000000
         C           -2.111559037328    -0.037294421335    -0.745805040579    12.000000000000
         C            0.323233962672     0.094545578665    -0.000000040579    12.000000000000
         C            2.781480962672    -0.096959421335     0.000000959421    12.000000000000
         H           -0.900121037328    -1.754462421335    -0.000001040579     1.007825032230
         H           -1.889810037328     0.901078578665     1.241680959421     1.007825032230
         H           -2.791568037328    -0.701179421335     1.268973959421     1.007825032230
         H           -2.791568037328    -0.701172421335    -1.268979040579     1.007825032230
         H           -1.889805037328     0.901083578665    -1.241675040579     1.007825032230
         H            1.352175962672    -1.680268421335     0.000000959421     1.007825032230
         H            3.340827962672    -0.395987421335    -0.891301040579     1.007825032230
         H            3.340820962672    -0.395975421335     0.891310959421     1.007825032230
         H            2.656865962672     0.985317578665    -0.000007040579     1.007825032230

  Basis Set: AUG-CC-PVTZ
    Blend: AUG-CC-PVTZ
  Basis Set: (AUG-CC-PVTZ AUX)
    Blend: AUG-CC-PVTZ-JKFIT
	 Reference Energy          =    -323.9941635469546100 [Eh]
	 Singles Energy            =      -0.0000000000000000 [Eh]
	 Same-Spin Energy          =      -0.3347203414853993 [Eh]
	 Opposite-Spin Energy      =      -1.0893601189743949 [Eh]
	 Correlation Energy        =      -1.4240804604597941 [Eh]
	 Total Energy              =    -325.4182440074143869 [Eh]

	 ================> DF-SCS-MP2 Energies <==================
	-----------------------------------------------------------
	 SCS Same-Spin Scale       =       0.3333333333333333 [-]
	 SCS Opposite-Spin Scale   =       1.2000000000000000 [-]
	 SCS Same-Spin Energy      =      -0.1115734471617997 [Eh]
	 SCS Opposite-Spin Energy  =      -1.3072321427692739 [Eh]
	 SCS Correlation Energy    =      -1.4188055899310736 [Eh]
	 SCS Total Energy          =    -325.4129691368856925 [Eh]
	-----------------------------------------------------------

  Dipole Moment: [D]
     X:     0.9576      Y:    -3.4797      Z:     0.0000     Total:     3.6091

*** Psi4 exiting successfully. Buy a developer a beer!
