                               Psi4 1.3.2 release

  ==> Input File <==

--------------------------------------------------------------------------
#psi4
#
memory 32 gb

molecule  {
0 1
  O        0.3298930     1.3563610     0.0000010
  N        1.4480735    -0.6290828    -0.0000020
  C       -0.9749590    -0.6428430     0.0000000
  C       -2.1282420    -0.0114780     0.7458050
  C       -2.1282420    -0.0114760    -0.7458050
  C        0.3065510     0.1203640     0.0000000
  C        2.7647980    -0.0711410     0.0000010
  H       -0.9168040    -1.7286440    -0.0000010
  H       -1.9064930     0.9268970     1.2416810
  H       -2.8082510    -0.6753610     1.2689740
  H       -2.8082510    -0.6753540    -1.2689790
  H       -1.9064880     0.9269020    -1.2416750
  H        1.3354930    -1.6544500     0.0000010
  H        3.3241450    -0.3701690    -0.8913010
  H        3.3241380    -0.3701570     0.8913110
  H        2.6401830     1.0111360    -0.0000070
units angstrom
no_reorient  #important for SAPT in psi4, default
symmetry c1  #important for SAPT in psi4, default
}

set PROPERTIES_ORIGIN ["COM"]
properties('MP2/aug-cc-pvtz', properties = ['dipole'])
--------------------------------------------------------------------------

    Molecular point group: c1
  Charge       = 0
  Multiplicity = 1
  Basis Set: AUG-CC-PVTZ
    Blend: AUG-CC-PVTZ
  Basis Set: (AUG-CC-PVTZ AUX)
    Blend: AUG-CC-PVTZ-JKFIT

    Orbital Energies [Eh]
    ---------------------

    Doubly Occupied:

       1A    -20.506990     2A    -15.587055     3A    -11.347569
       4A    -11.255043     5A    -11.245493     6A    -11.235344
       7A    -11.234636     8A     -1.366741     9A     -1.226362
      10A     -1.151816    11A     -0.969837    12A     -0.858663
      13A     -0.827246    14A     -0.772084    15A     -0.716688
      16A     -0.665987    17A     -0.624357    18A     -0.622657
      19A     -0.609905    20A     -0.546259    21A     -0.544343
      22A     -0.538901    23A     -0.512940    24A     -0.441359
      25A     -0.420398    26A     -0.417880    27A     -0.387347

  @DF-RHF Final Energy:  -323.99486006280296

   => Energetics <=

    Nuclear Repulsion Energy =            303.1741569342063372
    One-Electron Energy =               -1041.0702319970439476
    Two-Electron Energy =                 413.9012150000345969
    Total Energy =                       -323.9948600628029567
  Basis Set: (AUG-CC-PVTZ AUX)
    Blend: AUG-CC-PVTZ-RI
    Molecular point group: c1

    Geometry (in Angstrom), charge = 0, multiplicity = 1:

       Center              X                  Y                   Z               Mass
    ------------   -----------------  -----------------  -----------------  -----------------
         O            0.330773123657     1.327519513617     0.000000959421    15.994914619570
         N            1.448953623657    -0.657924286383    -0.000002040579    14.003074004430
         C           -0.974078876343    -0.671684486383    -0.000000040579    12.000000000000
         C           -2.127361876343    -0.040319486383     0.745804959421    12.000000000000
         C           -2.127361876343    -0.040317486383    -0.745805040579    12.000000000000
         C            0.307431123657     0.091522513617    -0.000000040579    12.000000000000
         C            2.765678123657    -0.099982486383     0.000000959421    12.000000000000
         H           -0.915923876343    -1.757485486383    -0.000001040579     1.007825032230
         H           -1.905612876343     0.898055513617     1.241680959421     1.007825032230
         H           -2.807370876343    -0.704202486383     1.268973959421     1.007825032230
         H           -2.807370876343    -0.704195486383    -1.268979040579     1.007825032230
         H           -1.905607876343     0.898060513617    -1.241675040579     1.007825032230
         H            1.336373123657    -1.683291486383     0.000000959421     1.007825032230
         H            3.325025123657    -0.399010486383    -0.891301040579     1.007825032230
         H            3.325018123657    -0.398998486383     0.891310959421     1.007825032230
         H            2.641063123657     0.982294513617    -0.000007040579     1.007825032230

  Basis Set: AUG-CC-PVTZ
    Blend: AUG-CC-PVTZ
  Basis Set: (AUG-CC-PVTZ AUX)
    Blend: AUG-CC-PVTZ-JKFIT
	 Reference Energy          =    -323.9948600628029567 [Eh]
	 Singles Energy            =      -0.0000000000000000 [Eh]
	 Same-Spin Energy          =      -0.3348373500174032 [Eh]
	 Opposite-Spin Energy      =      -1.0893147219476933 [Eh]
	 Correlation Energy        =      -1.4241520719650964 [Eh]
	 Total Energy              =    -325.4190121347680815 [Eh]

	 ================> DF-SCS-MP2 Energies <==================
	-----------------------------------------------------------
	 SCS Same-Spin Scale       =       0.3333333333333333 [-]
	 SCS Opposite-Spin Scale   =       1.2000000000000000 [-]
	 SCS Same-Spin Energy      =      -0.1116124500058011 [Eh]
	 SCS Opposite-Spin Energy  =      -1.3071776663372319 [Eh]
	 SCS Correlation Energy    =      -1.4187901163430330 [Eh]
	 SCS Total Energy          =    -325.4136501791459750 [Eh]
	-----------------------------------------------------------

  Dipole Moment: [D]
     X:     0.5971      Y:    -3.5277      Z:     0.0000     Total:     3.5778

*** Psi4 exiting successfully. Buy a developer a beer!
