                               Psi4 1.4a3.dev225

  ==> Input File <==

--------------------------------------------------------------------------
#psi4
#
memory 32 gb

molecule  {
0 1
  O        0.3298930     1.3563610     0.0000010
  N        1.4348200    -0.6488910    -0.0000020
  C       -0.9749590    -0.6428430     0.0000000
  C       -2.1282420    -0.0114780     0.7458050
  C       -2.1282420    -0.0114760    -0.7458050
  C        0.3495097     0.1459482     0.0000000
  C        2.7647980    -0.0711410     0.0000010
  H       -0.9168040    -1.7286440    -0.0000010
  H       -1.9064930     0.9268970     1.2416810
  H       -2.8082510    -0.6753610     1.2689740
  H       -2.8082510    -0.6753540    -1.2689790
  H       -1.9064880     0.9269020    -1.2416750
  H        1.3354930    -1.6544500     0.0000010
  H        3.3241450    -0.3701690    -0.8913010
  H        3.3241380    -0.3701570     0.8913110
  H        2.6401830     1.0111360    -0.0000070
units angstrom
no_reorient  #important for SAPT in psi4, default
symmetry c1  #important for SAPT in psi4, default
}

set PROPERTIES_ORIGIN ["COM"]
properties('MP2/aug-cc-pvtz', properties = ['dipole'])
--------------------------------------------------------------------------

    Molecular point group: c1
  Charge       = 0
  Multiplicity = 1
  Basis Set: AUG-CC-PVTZ
    Blend: AUG-CC-PVTZ
  Basis Set: (AUG-CC-PVTZ AUX)
    Blend: AUG-CC-PVTZ-JKFIT

    Orbital Energies [Eh]
    ---------------------

    Doubly Occupied:

       1A    -20.511488     2A    -15.588227     3A    -11.345710
       4A    -11.258306     5A    -11.241361     6A    -11.230085
       7A    -11.229377     8A     -1.382890     9A     -1.236374
      10A     -1.144213    11A     -0.967179    12A     -0.848362
      13A     -0.822426    14A     -0.786438    15A     -0.711585
      16A     -0.661782    17A     -0.632340    18A     -0.625620
      19A     -0.604241    20A     -0.550212    21A     -0.548230
      22A     -0.542001    23A     -0.510973    24A     -0.439839
      25A     -0.417870    26A     -0.411194    27A     -0.394725

  @DF-RHF Final Energy:  -323.99553966451987

   => Energetics <=

    Nuclear Repulsion Energy =            303.1488908343214916
    One-Electron Energy =               -1041.0027675204032676
    Two-Electron Energy =                 413.8583370215619084
    Total Energy =                       -323.9955396645198675
  Basis Set: (AUG-CC-PVTZ AUX)
    Blend: AUG-CC-PVTZ-RI
    Molecular point group: c1

    Geometry (in Angstrom), charge = 0, multiplicity = 1:

       Center              X                  Y                   Z               Mass
    ------------   -----------------  -----------------  -----------------  -----------------
         O            0.327442953669     1.327220379833     0.000000959421    15.994914619570
         N            1.432369953669    -0.678031620167    -0.000002040579    14.003074004430
         C           -0.977409046331    -0.671983620167    -0.000000040579    12.000000000000
         C           -2.130692046331    -0.040618620167     0.745804959421    12.000000000000
         C           -2.130692046331    -0.040616620167    -0.745805040579    12.000000000000
         C            0.347059653669     0.116807579833    -0.000000040579    12.000000000000
         C            2.762347953669    -0.100281620167     0.000000959421    12.000000000000
         H           -0.919254046331    -1.757784620167    -0.000001040579     1.007825032230
         H           -1.908943046331     0.897756379833     1.241680959421     1.007825032230
         H           -2.810701046331    -0.704501620167     1.268973959421     1.007825032230
         H           -2.810701046331    -0.704494620167    -1.268979040579     1.007825032230
         H           -1.908938046331     0.897761379833    -1.241675040579     1.007825032230
         H            1.333042953669    -1.683590620167     0.000000959421     1.007825032230
         H            3.321694953669    -0.399309620167    -0.891301040579     1.007825032230
         H            3.321687953669    -0.399297620167     0.891310959421     1.007825032230
         H            2.637732953669     0.981995379833    -0.000007040579     1.007825032230

  Basis Set: AUG-CC-PVTZ
    Blend: AUG-CC-PVTZ
  Basis Set: (AUG-CC-PVTZ AUX)
    Blend: AUG-CC-PVTZ-JKFIT
	 Reference Energy          =    -323.9955396645198675 [Eh]
	 Singles Energy            =      -0.0000000000000000 [Eh]
	 Same-Spin Energy          =      -0.3339112075454508 [Eh]
	 Opposite-Spin Energy      =      -1.0877620797982841 [Eh]
	 Correlation Energy        =      -1.4216732873437348 [Eh]
	 Total Energy              =    -325.4172129518635757 [Eh]

	 ================> DF-SCS-MP2 Energies <==================
	-----------------------------------------------------------
	 SCS Same-Spin Scale       =       0.3333333333333333 [-]
	 SCS Opposite-Spin Scale   =       1.2000000000000000 [-]
	 SCS Same-Spin Energy      =      -0.1113037358484836 [Eh]
	 SCS Opposite-Spin Energy  =      -1.3053144957579408 [Eh]
	 SCS Correlation Energy    =      -1.4166182316064244 [Eh]
	 SCS Total Energy          =    -325.4121578961263026 [Eh]
	-----------------------------------------------------------

  Dipole Moment: [D]
     X:     0.9734      Y:    -3.4107      Z:     0.0000     Total:     3.5469

*** Psi4 exiting successfully. Buy a developer a beer!
