                               Psi4 1.3.2 release

  ==> Input File <==

--------------------------------------------------------------------------
#psi4
#
memory 32 gb

molecule  {
0 1
  O        0.3298930     1.3563610     0.0000010
  N        1.4609793    -0.6090464    -0.0000020
  C       -0.9749590    -0.6428430     0.0000000
  C       -2.1282420    -0.0114780     0.7458050
  C       -2.1282420    -0.0114760    -0.7458050
  C        0.3065510     0.1203640     0.0000000
  C        2.7647980    -0.0711410     0.0000010
  H       -0.9168040    -1.7286440    -0.0000010
  H       -1.9064930     0.9268970     1.2416810
  H       -2.8082510    -0.6753610     1.2689740
  H       -2.8082510    -0.6753540    -1.2689790
  H       -1.9064880     0.9269020    -1.2416750
  H        1.3354930    -1.6544500     0.0000010
  H        3.3241450    -0.3701690    -0.8913010
  H        3.3241380    -0.3701570     0.8913110
  H        2.6401830     1.0111360    -0.0000070
units angstrom
no_reorient  #important for SAPT in psi4, default
symmetry c1  #important for SAPT in psi4, default
}

set PROPERTIES_ORIGIN ["COM"]
properties('MP2/aug-cc-pvtz', properties = ['dipole'])
--------------------------------------------------------------------------

    Molecular point group: c1
  Charge       = 0
  Multiplicity = 1
  Basis Set: AUG-CC-PVTZ
    Blend: AUG-CC-PVTZ
  Basis Set: (AUG-CC-PVTZ AUX)
    Blend: AUG-CC-PVTZ-JKFIT

    Orbital Energies [Eh]
    ---------------------

    Doubly Occupied:

       1A    -20.506080     2A    -15.587891     3A    -11.347590
       4A    -11.253352     5A    -11.246688     6A    -11.236024
       7A    -11.235314     8A     -1.367154     9A     -1.227497
      10A     -1.152653    11A     -0.971669    12A     -0.858063
      13A     -0.827836    14A     -0.767291    15A     -0.717209
      16A     -0.668027    17A     -0.624858    18A     -0.624789
      19A     -0.612800    20A     -0.546930    21A     -0.544121
      22A     -0.534357    23A     -0.513152    24A     -0.441686
      25A     -0.420975    26A     -0.418386    27A     -0.385386

  @DF-RHF Final Energy:  -323.99203778675360

   => Energetics <=

    Nuclear Repulsion Energy =            303.3301463994053506
    One-Electron Energy =               -1041.3688118586910605
    Two-Electron Energy =                 414.0466276725321677
    Total Energy =                       -323.9920377867535990
  Basis Set: (AUG-CC-PVTZ AUX)
    Blend: AUG-CC-PVTZ-RI
    Molecular point group: c1

    Geometry (in Angstrom), charge = 0, multiplicity = 1:

       Center              X                  Y                   Z               Mass
    ------------   -----------------  -----------------  -----------------  -----------------
         O            0.328948920913     1.324687418291     0.000000959421    15.994914619570
         N            1.460035220913    -0.640719981709    -0.000002040579    14.003074004430
         C           -0.975903079087    -0.674516581709    -0.000000040579    12.000000000000
         C           -2.129186079087    -0.043151581709     0.745804959421    12.000000000000
         C           -2.129186079087    -0.043149581709    -0.745805040579    12.000000000000
         C            0.305606920913     0.088690418291    -0.000000040579    12.000000000000
         C            2.763853920913    -0.102814581709     0.000000959421    12.000000000000
         H           -0.917748079087    -1.760317581709    -0.000001040579     1.007825032230
         H           -1.907437079087     0.895223418291     1.241680959421     1.007825032230
         H           -2.809195079087    -0.707034581709     1.268973959421     1.007825032230
         H           -2.809195079087    -0.707027581709    -1.268979040579     1.007825032230
         H           -1.907432079087     0.895228418291    -1.241675040579     1.007825032230
         H            1.334548920913    -1.686123581709     0.000000959421     1.007825032230
         H            3.323200920913    -0.401842581709    -0.891301040579     1.007825032230
         H            3.323193920913    -0.401830581709     0.891310959421     1.007825032230
         H            2.639238920913     0.979462418291    -0.000007040579     1.007825032230

  Basis Set: AUG-CC-PVTZ
    Blend: AUG-CC-PVTZ
  Basis Set: (AUG-CC-PVTZ AUX)
    Blend: AUG-CC-PVTZ-JKFIT
	 Reference Energy          =    -323.9920377867535990 [Eh]
	 Singles Energy            =      -0.0000000000000000 [Eh]
	 Same-Spin Energy          =      -0.3350810882433936 [Eh]
	 Opposite-Spin Energy      =      -1.0896322489651693 [Eh]
	 Correlation Energy        =      -1.4247133372085630 [Eh]
	 Total Energy              =    -325.4167511239621717 [Eh]

	 ================> DF-SCS-MP2 Energies <==================
	-----------------------------------------------------------
	 SCS Same-Spin Scale       =       0.3333333333333333 [-]
	 SCS Opposite-Spin Scale   =       1.2000000000000000 [-]
	 SCS Same-Spin Energy      =      -0.1116936960811312 [Eh]
	 SCS Opposite-Spin Energy  =      -1.3075586987582031 [Eh]
	 SCS Correlation Energy    =      -1.4192523948393343 [Eh]
	 SCS Total Energy          =    -325.4112901815929604 [Eh]
	-----------------------------------------------------------

  Dipole Moment: [D]
     X:     0.5417      Y:    -3.5484      Z:     0.0000     Total:     3.5895

*** Psi4 exiting successfully. Buy a developer a beer!
