                               Psi4 1.3.2 release

  ==> Input File <==

--------------------------------------------------------------------------
#psi4
#
memory 32 gb

molecule  {
0 1
  O        0.3298930     1.3563610     0.0000010
  N        1.4348200    -0.6488910    -0.0000020
  C       -0.9749590    -0.6428430     0.0000000
  C       -2.1282420    -0.0114780     0.7458050
  C       -2.1282420    -0.0114760    -0.7458050
  C        0.3793076    -0.0177712    -0.0000002
  C        2.7647980    -0.0711410     0.0000010
  H       -0.9168040    -1.7286440    -0.0000010
  H       -1.9064930     0.9268970     1.2416810
  H       -2.8082510    -0.6753610     1.2689740
  H       -2.8082510    -0.6753540    -1.2689790
  H       -1.9064880     0.9269020    -1.2416750
  H        1.3354930    -1.6544500     0.0000010
  H        3.3241450    -0.3701690    -0.8913010
  H        3.3241380    -0.3701570     0.8913110
  H        2.6401830     1.0111360    -0.0000070
units angstrom
no_reorient  #important for SAPT in psi4, default
symmetry c1  #important for SAPT in psi4, default
}

set PROPERTIES_ORIGIN ["COM"]
properties('MP2/aug-cc-pvtz', properties = ['dipole'])
--------------------------------------------------------------------------

    Molecular point group: c1
  Charge       = 0
  Multiplicity = 1
  Basis Set: AUG-CC-PVTZ
    Blend: AUG-CC-PVTZ
  Basis Set: (AUG-CC-PVTZ AUX)
    Blend: AUG-CC-PVTZ-JKFIT

    Orbital Energies [Eh]
    ---------------------

    Doubly Occupied:

       1A    -20.473019     2A    -15.615306     3A    -11.339438
       4A    -11.272923     5A    -11.245386     6A    -11.232012
       7A    -11.231299     8A     -1.345433     9A     -1.217534
      10A     -1.142442    11A     -1.000817    12A     -0.865761
      13A     -0.822160    14A     -0.813091    15A     -0.706490
      16A     -0.677977    17A     -0.644089    18A     -0.628596
      19A     -0.589202    20A     -0.555890    21A     -0.536228
      22A     -0.511163    23A     -0.494923    24A     -0.436915
      25A     -0.419328    26A     -0.390455    27A     -0.375379

  @DF-RHF Final Energy:  -323.95383922218940

   => Energetics <=

    Nuclear Repulsion Energy =            302.7565991144643363
    One-Electron Energy =               -1040.2543611939343009
    Two-Electron Energy =                 413.5439228572806201
    Total Energy =                       -323.9538392221894014
  Basis Set: (AUG-CC-PVTZ AUX)
    Blend: AUG-CC-PVTZ-RI
    Molecular point group: c1

    Geometry (in Angstrom), charge = 0, multiplicity = 1:

       Center              X                  Y                   Z               Mass
    ------------   -----------------  -----------------  -----------------  -----------------
         O            0.323833581258     1.347051451336     0.000000983647    15.994914619570
         N            1.428760581258    -0.658200548664    -0.000002016353    14.003074004430
         C           -0.981018418742    -0.652152548664    -0.000000016353    12.000000000000
         C           -2.134301418742    -0.020787548664     0.745804983647    12.000000000000
         C           -2.134301418742    -0.020785548664    -0.745805016353    12.000000000000
         C            0.373248181258    -0.027080748664    -0.000000216353    12.000000000000
         C            2.758738581258    -0.080450548664     0.000000983647    12.000000000000
         H           -0.922863418742    -1.737953548664    -0.000001016353     1.007825032230
         H           -1.912552418742     0.917587451336     1.241680983647     1.007825032230
         H           -2.814310418742    -0.684670548664     1.268973983647     1.007825032230
         H           -2.814310418742    -0.684663548664    -1.268979016353     1.007825032230
         H           -1.912547418742     0.917592451336    -1.241675016353     1.007825032230
         H            1.329433581258    -1.663759548664     0.000000983647     1.007825032230
         H            3.318085581258    -0.379478548664    -0.891301016353     1.007825032230
         H            3.318078581258    -0.379466548664     0.891310983647     1.007825032230
         H            2.634123581258     1.001826451336    -0.000007016353     1.007825032230

  Basis Set: AUG-CC-PVTZ
    Blend: AUG-CC-PVTZ
  Basis Set: (AUG-CC-PVTZ AUX)
    Blend: AUG-CC-PVTZ-JKFIT
	 Reference Energy          =    -323.9538392221894014 [Eh]
	 Singles Energy            =      -0.0000000000000000 [Eh]
	 Same-Spin Energy          =      -0.3360981582303051 [Eh]
	 Opposite-Spin Energy      =      -1.0923158047085386 [Eh]
	 Correlation Energy        =      -1.4284139629388437 [Eh]
	 Total Energy              =    -325.3822531851282633 [Eh]

	 ================> DF-SCS-MP2 Energies <==================
	-----------------------------------------------------------
	 SCS Same-Spin Scale       =       0.3333333333333333 [-]
	 SCS Opposite-Spin Scale   =       1.2000000000000000 [-]
	 SCS Same-Spin Energy      =      -0.1120327194101017 [Eh]
	 SCS Opposite-Spin Energy  =      -1.3107789656502462 [Eh]
	 SCS Correlation Energy    =      -1.4228116850603478 [Eh]
	 SCS Total Energy          =    -325.3766509072497684 [Eh]
	-----------------------------------------------------------

  Dipole Moment: [D]
     X:     1.4701      Y:    -4.4504      Z:     0.0000     Total:     4.6869

*** Psi4 exiting successfully. Buy a developer a beer!
