                               Psi4 1.3.2 release

  ==> Input File <==

--------------------------------------------------------------------------
#psi4
#
memory 32 gb

molecule  {
0 1
  O        0.3298930     1.3563610     0.0000010
  N        1.5090483    -0.5267407    -0.0000019
  C       -0.9749590    -0.6428430     0.0000000
  C       -2.1282420    -0.0114780     0.7458050
  C       -2.1282420    -0.0114760    -0.7458050
  C        0.3065510     0.1203640     0.0000000
  C        2.7647980    -0.0711410     0.0000010
  H       -0.9168040    -1.7286440    -0.0000010
  H       -1.9064930     0.9268970     1.2416810
  H       -2.8082510    -0.6753610     1.2689740
  H       -2.8082510    -0.6753540    -1.2689790
  H       -1.9064880     0.9269020    -1.2416750
  H        1.3354930    -1.6544500     0.0000010
  H        3.3241450    -0.3701690    -0.8913010
  H        3.3241380    -0.3701570     0.8913110
  H        2.6401830     1.0111360    -0.0000070
units angstrom
no_reorient  #important for SAPT in psi4, default
symmetry c1  #important for SAPT in psi4, default
}

set PROPERTIES_ORIGIN ["COM"]
properties('MP2/aug-cc-pvtz', properties = ['dipole'])
--------------------------------------------------------------------------

    Molecular point group: c1
  Charge       = 0
  Multiplicity = 1
  Basis Set: AUG-CC-PVTZ
    Blend: AUG-CC-PVTZ
  Basis Set: (AUG-CC-PVTZ AUX)
    Blend: AUG-CC-PVTZ-JKFIT

    Orbital Energies [Eh]
    ---------------------

    Doubly Occupied:

       1A    -20.503096     2A    -15.591298     3A    -11.349115
       4A    -11.251586     5A    -11.247287     6A    -11.238836
       7A    -11.238123     8A     -1.370077     9A     -1.235884
      10A     -1.155968    11A     -0.978961    12A     -0.858233
      13A     -0.830308    14A     -0.751398    15A     -0.719324
      16A     -0.676211    17A     -0.634965    18A     -0.630829
      19A     -0.618563    20A     -0.549919    21A     -0.543993
      22A     -0.514149    23A     -0.512098    24A     -0.443403
      25A     -0.423451    26A     -0.419604    27A     -0.377570

  @DF-RHF Final Energy:  -323.96528175849545

   => Energetics <=

    Nuclear Repulsion Energy =            304.0303957168864599
    One-Electron Energy =               -1042.6628615003087361
    Two-Electron Energy =                 414.6671840249268257
    Total Energy =                       -323.9652817584954505
  Basis Set: (AUG-CC-PVTZ AUX)
    Blend: AUG-CC-PVTZ-RI
    Molecular point group: c1

    Geometry (in Angstrom), charge = 0, multiplicity = 1:

       Center              X                  Y                   Z               Mass
    ------------   -----------------  -----------------  -----------------  -----------------
         O            0.322154487271     1.313053712223     0.000000945287    15.994914619570
         N            1.501309787271    -0.570047987777    -0.000001954713    14.003074004430
         C           -0.982697512729    -0.686150287777    -0.000000054713    12.000000000000
         C           -2.135980512729    -0.054785287777     0.745804945287    12.000000000000
         C           -2.135980512729    -0.054783287777    -0.745805054713    12.000000000000
         C            0.298812487271     0.077056712223    -0.000000054713    12.000000000000
         C            2.757059487271    -0.114448287777     0.000000945287    12.000000000000
         H           -0.924542512729    -1.771951287777    -0.000001054713     1.007825032230
         H           -1.914231512729     0.883589712223     1.241680945287     1.007825032230
         H           -2.815989512729    -0.718668287777     1.268973945287     1.007825032230
         H           -2.815989512729    -0.718661287777    -1.268979054713     1.007825032230
         H           -1.914226512729     0.883594712223    -1.241675054713     1.007825032230
         H            1.327754487271    -1.697757287777     0.000000945287     1.007825032230
         H            3.316406487271    -0.413476287777    -0.891301054713     1.007825032230
         H            3.316399487271    -0.413464287777     0.891310945287     1.007825032230
         H            2.632444487271     0.967828712223    -0.000007054713     1.007825032230

  Basis Set: AUG-CC-PVTZ
    Blend: AUG-CC-PVTZ
  Basis Set: (AUG-CC-PVTZ AUX)
    Blend: AUG-CC-PVTZ-JKFIT
	 Reference Energy          =    -323.9652817584954505 [Eh]
	 Singles Energy            =      -0.0000000000000000 [Eh]
	 Same-Spin Energy          =      -0.3364020732032808 [Eh]
	 Opposite-Spin Energy      =      -1.0918582500025038 [Eh]
	 Correlation Energy        =      -1.4282603232057847 [Eh]
	 Total Energy              =    -325.3935420817012414 [Eh]

	 ================> DF-SCS-MP2 Energies <==================
	-----------------------------------------------------------
	 SCS Same-Spin Scale       =       0.3333333333333333 [-]
	 SCS Opposite-Spin Scale   =       1.2000000000000000 [-]
	 SCS Same-Spin Energy      =      -0.1121340244010936 [Eh]
	 SCS Opposite-Spin Energy  =      -1.3102299000030044 [Eh]
	 SCS Correlation Energy    =      -1.4223639244040980 [Eh]
	 SCS Total Energy          =    -325.3876456828995742 [Eh]
	-----------------------------------------------------------

  Dipole Moment: [D]
     X:     0.3131      Y:    -3.5954      Z:     0.0000     Total:     3.6090

*** Psi4 exiting successfully. Buy a developer a beer!
