                               Psi4 1.3.2 release

  ==> Input File <==

--------------------------------------------------------------------------
#psi4
#
memory 32 gb

molecule  {
0 1
  O        0.3298930     1.3563610     0.0000010
  N        1.4348200    -0.6488910    -0.0000020
  C       -0.9749590    -0.6428430     0.0000000
  C       -2.1282420    -0.0114780     0.7458050
  C       -2.1282420    -0.0114760    -0.7458050
  C        0.4783858     0.2227007     0.0000000
  C        2.7647980    -0.0711410     0.0000010
  H       -0.9168040    -1.7286440    -0.0000010
  H       -1.9064930     0.9268970     1.2416810
  H       -2.8082510    -0.6753610     1.2689740
  H       -2.8082510    -0.6753540    -1.2689790
  H       -1.9064880     0.9269020    -1.2416750
  H        1.3354930    -1.6544500     0.0000010
  H        3.3241450    -0.3701690    -0.8913010
  H        3.3241380    -0.3701570     0.8913110
  H        2.6401830     1.0111360    -0.0000070
units angstrom
no_reorient  #important for SAPT in psi4, default
symmetry c1  #important for SAPT in psi4, default
}

set PROPERTIES_ORIGIN ["COM"]
properties('MP2/aug-cc-pvtz', properties = ['dipole'])
--------------------------------------------------------------------------

    Molecular point group: c1
  Charge       = 0
  Multiplicity = 1
  Basis Set: AUG-CC-PVTZ
    Blend: AUG-CC-PVTZ
  Basis Set: (AUG-CC-PVTZ AUX)
    Blend: AUG-CC-PVTZ-JKFIT

    Orbital Energies [Eh]
    ---------------------

    Doubly Occupied:

       1A    -20.525290     2A    -15.596432     3A    -11.346040
       4A    -11.263905     5A    -11.225806     6A    -11.216866
       7A    -11.216169     8A     -1.433466     9A     -1.269341
      10A     -1.125244    11A     -0.968971    12A     -0.827386
      13A     -0.809874    14A     -0.805814    15A     -0.701293
      16A     -0.665209    17A     -0.648246    18A     -0.644613
      19A     -0.596616    20A     -0.567027    21A     -0.566468
      22A     -0.542994    23A     -0.502818    24A     -0.431664
      25A     -0.416895    26A     -0.401702    27A     -0.376860

  @DF-RHF Final Energy:  -323.95804800309725

   => Energetics <=

    Nuclear Repulsion Energy =            303.5766654436960152
    One-Electron Energy =               -1041.6834103213125218
    Two-Electron Energy =                 414.1486968745192598
    Total Energy =                       -323.9580480030972467
  Basis Set: (AUG-CC-PVTZ AUX)
    Blend: AUG-CC-PVTZ-RI
    Molecular point group: c1

    Geometry (in Angstrom), charge = 0, multiplicity = 1:

       Center              X                  Y                   Z               Mass
    ------------   -----------------  -----------------  -----------------  -----------------
         O            0.311832395885     1.317923471125     0.000000959421    15.994914619570
         N            1.416759395885    -0.687328528875    -0.000002040579    14.003074004430
         C           -0.993019604115    -0.681280528875    -0.000000040579    12.000000000000
         C           -2.146302604115    -0.049915528875     0.745804959421    12.000000000000
         C           -2.146302604115    -0.049913528875    -0.745805040579    12.000000000000
         C            0.460325195885     0.184263171125    -0.000000040579    12.000000000000
         C            2.746737395885    -0.109578528875     0.000000959421    12.000000000000
         H           -0.934864604115    -1.767081528875    -0.000001040579     1.007825032230
         H           -1.924553604115     0.888459471125     1.241680959421     1.007825032230
         H           -2.826311604115    -0.713798528875     1.268973959421     1.007825032230
         H           -2.826311604115    -0.713791528875    -1.268979040579     1.007825032230
         H           -1.924548604115     0.888464471125    -1.241675040579     1.007825032230
         H            1.317432395885    -1.692887528875     0.000000959421     1.007825032230
         H            3.306084395885    -0.408606528875    -0.891301040579     1.007825032230
         H            3.306077395885    -0.408594528875     0.891310959421     1.007825032230
         H            2.622122395885     0.972698471125    -0.000007040579     1.007825032230

  Basis Set: AUG-CC-PVTZ
    Blend: AUG-CC-PVTZ
  Basis Set: (AUG-CC-PVTZ AUX)
    Blend: AUG-CC-PVTZ-JKFIT
	 Reference Energy          =    -323.9580480030972467 [Eh]
	 Singles Energy            =      -0.0000000000000000 [Eh]
	 Same-Spin Energy          =      -0.3335194636659191 [Eh]
	 Opposite-Spin Energy      =      -1.0870086703251540 [Eh]
	 Correlation Energy        =      -1.4205281339910731 [Eh]
	 Total Energy              =    -325.3785761370883165 [Eh]

	 ================> DF-SCS-MP2 Energies <==================
	-----------------------------------------------------------
	 SCS Same-Spin Scale       =       0.3333333333333333 [-]
	 SCS Opposite-Spin Scale   =       1.2000000000000000 [-]
	 SCS Same-Spin Energy      =      -0.1111731545553064 [Eh]
	 SCS Opposite-Spin Energy  =      -1.3044104043901847 [Eh]
	 SCS Correlation Energy    =      -1.4155835589454910 [Eh]
	 SCS Total Energy          =    -325.3736315620427604 [Eh]
	-----------------------------------------------------------

  Dipole Moment: [D]
     X:     2.0016      Y:    -3.0582      Z:     0.0000     Total:     3.6550

*** Psi4 exiting successfully. Buy a developer a beer!
