                               Psi4 1.3.2 release

  ==> Input File <==

--------------------------------------------------------------------------
#psi4
#
memory 32 gb

molecule  {
0 1
  O        0.3730145     1.3547934     0.0000010
  N        1.4348200    -0.6488910    -0.0000020
  C       -0.9749590    -0.6428430     0.0000000
  C       -2.1282420    -0.0114780     0.7458050
  C       -2.1282420    -0.0114760    -0.7458050
  C        0.3065510     0.1203640     0.0000000
  C        2.7647980    -0.0711410     0.0000010
  H       -0.9168040    -1.7286440    -0.0000010
  H       -1.9064930     0.9268970     1.2416810
  H       -2.8082510    -0.6753610     1.2689740
  H       -2.8082510    -0.6753540    -1.2689790
  H       -1.9064880     0.9269020    -1.2416750
  H        1.3354930    -1.6544500     0.0000010
  H        3.3241450    -0.3701690    -0.8913010
  H        3.3241380    -0.3701570     0.8913110
  H        2.6401830     1.0111360    -0.0000070
units angstrom
no_reorient  #important for SAPT in psi4, default
symmetry c1  #important for SAPT in psi4, default
}

set PROPERTIES_ORIGIN ["COM"]
properties('MP2/aug-cc-pvtz', properties = ['dipole'])
--------------------------------------------------------------------------

    Molecular point group: c1
  Charge       = 0
  Multiplicity = 1
  Basis Set: AUG-CC-PVTZ
    Blend: AUG-CC-PVTZ
  Basis Set: (AUG-CC-PVTZ AUX)
    Blend: AUG-CC-PVTZ-JKFIT

    Orbital Energies [Eh]
    ---------------------

    Doubly Occupied:

       1A    -20.507357     2A    -15.583990     3A    -11.347515
       4A    -11.254914     5A    -11.246426     6A    -11.236235
       7A    -11.235527     8A     -1.366781     9A     -1.222758
      10A     -1.152940    11A     -0.967217    12A     -0.860074
      13A     -0.828111    14A     -0.775583    15A     -0.717495
      16A     -0.664355    17A     -0.624004    18A     -0.619391
      19A     -0.606315    20A     -0.547492    21A     -0.544026
      22A     -0.540285    23A     -0.514143    24A     -0.442473
      25A     -0.421491    26A     -0.417548    27A     -0.387411

  @DF-RHF Final Energy:  -323.99580919998937

   => Energetics <=

    Nuclear Repulsion Energy =            302.9576907575145697
    One-Electron Energy =               -1040.6432856364945110
    Two-Electron Energy =                 413.6897856789905745
    Total Energy =                       -323.9958091999893668
  Basis Set: (AUG-CC-PVTZ AUX)
    Blend: AUG-CC-PVTZ-RI
    Molecular point group: c1

    Geometry (in Angstrom), charge = 0, multiplicity = 1:

       Center              X                  Y                   Z               Mass
    ------------   -----------------  -----------------  -----------------  -----------------
         O            0.368805867821     1.329004847511     0.000000959421    15.994914619570
         N            1.430611367821    -0.674679552489    -0.000002040579    14.003074004430
         C           -0.979167632179    -0.668631552489    -0.000000040579    12.000000000000
         C           -2.132450632179    -0.037266552489     0.745804959421    12.000000000000
         C           -2.132450632179    -0.037264552489    -0.745805040579    12.000000000000
         C            0.302342367821     0.094575447511    -0.000000040579    12.000000000000
         C            2.760589367821    -0.096929552489     0.000000959421    12.000000000000
         H           -0.921012632179    -1.754432552489    -0.000001040579     1.007825032230
         H           -1.910701632179     0.901108447511     1.241680959421     1.007825032230
         H           -2.812459632179    -0.701149552489     1.268973959421     1.007825032230
         H           -2.812459632179    -0.701142552489    -1.268979040579     1.007825032230
         H           -1.910696632179     0.901113447511    -1.241675040579     1.007825032230
         H            1.331284367821    -1.680238552489     0.000000959421     1.007825032230
         H            3.319936367821    -0.395957552489    -0.891301040579     1.007825032230
         H            3.319929367821    -0.395945552489     0.891310959421     1.007825032230
         H            2.635974367821     0.985347447511    -0.000007040579     1.007825032230

  Basis Set: AUG-CC-PVTZ
    Blend: AUG-CC-PVTZ
  Basis Set: (AUG-CC-PVTZ AUX)
    Blend: AUG-CC-PVTZ-JKFIT
	 Reference Energy          =    -323.9958091999893668 [Eh]
	 Singles Energy            =      -0.0000000000000000 [Eh]
	 Same-Spin Energy          =      -0.3346442226676876 [Eh]
	 Opposite-Spin Energy      =      -1.0890645672451709 [Eh]
	 Correlation Energy        =      -1.4237087899128584 [Eh]
	 Total Energy              =    -325.4195179899022037 [Eh]

	 ================> DF-SCS-MP2 Energies <==================
	-----------------------------------------------------------
	 SCS Same-Spin Scale       =       0.3333333333333333 [-]
	 SCS Opposite-Spin Scale   =       1.2000000000000000 [-]
	 SCS Same-Spin Energy      =      -0.1115480742225625 [Eh]
	 SCS Opposite-Spin Energy  =      -1.3068774806942050 [Eh]
	 SCS Correlation Energy    =      -1.4184255549167675 [Eh]
	 SCS Total Energy          =    -325.4142347549061469 [Eh]
	-----------------------------------------------------------

  Dipole Moment: [D]
     X:     0.4976      Y:    -3.5083      Z:     0.0000     Total:     3.5434

*** Psi4 exiting successfully. Buy a developer a beer!
