                               Psi4 1.3.2 release

  ==> Input File <==

--------------------------------------------------------------------------
#psi4
#
memory 32 gb

molecule  {
0 1
  O        0.4160549     1.3517219     0.0000010
  N        1.4348200    -0.6488910    -0.0000020
  C       -0.9749590    -0.6428430     0.0000000
  C       -2.1282420    -0.0114780     0.7458050
  C       -2.1282420    -0.0114760    -0.7458050
  C        0.3065510     0.1203640     0.0000000
  C        2.7647980    -0.0711410     0.0000010
  H       -0.9168040    -1.7286440    -0.0000010
  H       -1.9064930     0.9268970     1.2416810
  H       -2.8082510    -0.6753610     1.2689740
  H       -2.8082510    -0.6753540    -1.2689790
  H       -1.9064880     0.9269020    -1.2416750
  H        1.3354930    -1.6544500     0.0000010
  H        3.3241450    -0.3701690    -0.8913010
  H        3.3241380    -0.3701570     0.8913110
  H        2.6401830     1.0111360    -0.0000070
units angstrom
no_reorient  #important for SAPT in psi4, default
symmetry c1  #important for SAPT in psi4, default
}

set PROPERTIES_ORIGIN ["COM"]
properties('MP2/aug-cc-pvtz', properties = ['dipole'])
--------------------------------------------------------------------------

    Molecular point group: c1
  Charge       = 0
  Multiplicity = 1
  Basis Set: AUG-CC-PVTZ
    Blend: AUG-CC-PVTZ
  Basis Set: (AUG-CC-PVTZ AUX)
    Blend: AUG-CC-PVTZ-JKFIT

    Orbital Energies [Eh]
    ---------------------

    Doubly Occupied:

       1A    -20.506673     2A    -15.581737     3A    -11.347381
       4A    -11.252990     5A    -11.248528     6A    -11.237768
       7A    -11.237059     8A     -1.367291     9A     -1.219808
      10A     -1.154846    11A     -0.966437    12A     -0.860502
      13A     -0.829542    14A     -0.774097    15A     -0.718795
      16A     -0.664758    17A     -0.623869    18A     -0.618216
      19A     -0.606080    20A     -0.548987    21A     -0.543459
      22A     -0.537753    23A     -0.515491    24A     -0.443755
      25A     -0.423110    26A     -0.417576    27A     -0.385476

  @DF-RHF Final Energy:  -323.99475554370372

   => Energetics <=

    Nuclear Repulsion Energy =            302.9189887451065601
    One-Electron Energy =               -1040.5635195890708928
    Two-Electron Energy =                 413.6497753002605577
    Total Energy =                       -323.9947555437037181
  Basis Set: (AUG-CC-PVTZ AUX)
    Blend: AUG-CC-PVTZ-RI
    Molecular point group: c1

    Geometry (in Angstrom), charge = 0, multiplicity = 1:

       Center              X                  Y                   Z               Mass
    ------------   -----------------  -----------------  -----------------  -----------------
         O            0.404897256567     1.326429251082     0.000000959421    15.994914619570
         N            1.423662356567    -0.674183648918    -0.000002040579    14.003074004430
         C           -0.986116643433    -0.668135648918    -0.000000040579    12.000000000000
         C           -2.139399643433    -0.036770648918     0.745804959421    12.000000000000
         C           -2.139399643433    -0.036768648918    -0.745805040579    12.000000000000
         C            0.295393356567     0.095071351082    -0.000000040579    12.000000000000
         C            2.753640356567    -0.096433648918     0.000000959421    12.000000000000
         H           -0.927961643433    -1.753936648918    -0.000001040579     1.007825032230
         H           -1.917650643433     0.901604351082     1.241680959421     1.007825032230
         H           -2.819408643433    -0.700653648918     1.268973959421     1.007825032230
         H           -2.819408643433    -0.700646648918    -1.268979040579     1.007825032230
         H           -1.917645643433     0.901609351082    -1.241675040579     1.007825032230
         H            1.324335356567    -1.679742648918     0.000000959421     1.007825032230
         H            3.312987356567    -0.395461648918    -0.891301040579     1.007825032230
         H            3.312980356567    -0.395449648918     0.891310959421     1.007825032230
         H            2.629025356567     0.985843351082    -0.000007040579     1.007825032230

  Basis Set: AUG-CC-PVTZ
    Blend: AUG-CC-PVTZ
  Basis Set: (AUG-CC-PVTZ AUX)
    Blend: AUG-CC-PVTZ-JKFIT
	 Reference Energy          =    -323.9947555437037181 [Eh]
	 Singles Energy            =      -0.0000000000000000 [Eh]
	 Same-Spin Energy          =      -0.3346957835513988 [Eh]
	 Opposite-Spin Energy      =      -1.0890973719139621 [Eh]
	 Correlation Energy        =      -1.4237931554653609 [Eh]
	 Total Energy              =    -325.4185486991690937 [Eh]

	 ================> DF-SCS-MP2 Energies <==================
	-----------------------------------------------------------
	 SCS Same-Spin Scale       =       0.3333333333333333 [-]
	 SCS Opposite-Spin Scale   =       1.2000000000000000 [-]
	 SCS Same-Spin Energy      =      -0.1115652611837996 [Eh]
	 SCS Opposite-Spin Energy  =      -1.3069168462967544 [Eh]
	 SCS Correlation Energy    =      -1.4184821074805540 [Eh]
	 SCS Total Energy          =    -325.4132376511842608 [Eh]
	-----------------------------------------------------------

  Dipole Moment: [D]
     X:     0.3436      Y:    -3.5070      Z:     0.0000     Total:     3.5238

*** Psi4 exiting successfully. Buy a developer a beer!
