                               Psi4 1.3.2 release

  ==> Input File <==

--------------------------------------------------------------------------
#psi4
#
memory 32 gb

molecule  {
0 1
  O        0.3298930     1.3563610     0.0000010
  N        1.3482302    -0.7626132    -0.0000021
  C       -0.9749590    -0.6428430     0.0000000
  C       -2.1282420    -0.0114780     0.7458050
  C       -2.1282420    -0.0114760    -0.7458050
  C        0.3065510     0.1203640     0.0000000
  C        2.7647980    -0.0711410     0.0000010
  H       -0.9168040    -1.7286440    -0.0000010
  H       -1.9064930     0.9268970     1.2416810
  H       -2.8082510    -0.6753610     1.2689740
  H       -2.8082510    -0.6753540    -1.2689790
  H       -1.9064880     0.9269020    -1.2416750
  H        1.3354930    -1.6544500     0.0000010
  H        3.3241450    -0.3701690    -0.8913010
  H        3.3241380    -0.3701570     0.8913110
  H        2.6401830     1.0111360    -0.0000070
units angstrom
no_reorient  #important for SAPT in psi4, default
symmetry c1  #important for SAPT in psi4, default
}

set PROPERTIES_ORIGIN ["COM"]
properties('MP2/aug-cc-pvtz', properties = ['dipole'])
--------------------------------------------------------------------------

    Molecular point group: c1
  Charge       = 0
  Multiplicity = 1
  Basis Set: AUG-CC-PVTZ
    Blend: AUG-CC-PVTZ
  Basis Set: (AUG-CC-PVTZ AUX)
    Blend: AUG-CC-PVTZ-JKFIT

    Orbital Energies [Eh]
    ---------------------

    Doubly Occupied:

       1A    -20.514699     2A    -15.581142     3A    -11.351156
       4A    -11.267235     5A    -11.237728     6A    -11.230925
       7A    -11.230228     8A     -1.366608     9A     -1.228517
      10A     -1.146282    11A     -0.958224    12A     -0.875761
      13A     -0.823492    14A     -0.803314    15A     -0.713412
      16A     -0.653928    17A     -0.627731    18A     -0.610641
      19A     -0.580398    20A     -0.562826    21A     -0.547848
      22A     -0.537989    23A     -0.511598    24A     -0.440593
      25A     -0.417208    26A     -0.411741    27A     -0.399987

  @DF-RHF Final Energy:  -323.96724865523970

   => Energetics <=

    Nuclear Repulsion Energy =            302.3298614732825627
    One-Electron Energy =               -1039.3317986093338732
    Two-Electron Energy =                 413.0346884808116101
    Total Energy =                       -323.9672486552397004
  Basis Set: (AUG-CC-PVTZ AUX)
    Blend: AUG-CC-PVTZ-RI
    Molecular point group: c1

    Geometry (in Angstrom), charge = 0, multiplicity = 1:

       Center              X                  Y                   Z               Mass
    ------------   -----------------  -----------------  -----------------  -----------------
         O            0.344885725883     1.346393703676     0.000000973556    15.994914619570
         N            1.363222925883    -0.772580496324    -0.000002126444    14.003074004430
         C           -0.959966274117    -0.652810296324    -0.000000026444    12.000000000000
         C           -2.113249274117    -0.021445296324     0.745804973556    12.000000000000
         C           -2.113249274117    -0.021443296324    -0.745805026444    12.000000000000
         C            0.321543725883     0.110396703676    -0.000000026444    12.000000000000
         C            2.779790725883    -0.081108296324     0.000000973556    12.000000000000
         H           -0.901811274117    -1.738611296324    -0.000001026444     1.007825032230
         H           -1.891500274117     0.916929703676     1.241680973556     1.007825032230
         H           -2.793258274117    -0.685328296324     1.268973973556     1.007825032230
         H           -2.793258274117    -0.685321296324    -1.268979026444     1.007825032230
         H           -1.891495274117     0.916934703676    -1.241675026444     1.007825032230
         H            1.350485725883    -1.664417296324     0.000000973556     1.007825032230
         H            3.339137725883    -0.380136296324    -0.891301026444     1.007825032230
         H            3.339130725883    -0.380124296324     0.891310973556     1.007825032230
         H            2.655175725883     1.001168703676    -0.000007026444     1.007825032230

  Basis Set: AUG-CC-PVTZ
    Blend: AUG-CC-PVTZ
  Basis Set: (AUG-CC-PVTZ AUX)
    Blend: AUG-CC-PVTZ-JKFIT
	 Reference Energy          =    -323.9672486552397004 [Eh]
	 Singles Energy            =      -0.0000000000000000 [Eh]
	 Same-Spin Energy          =      -0.3342545055543793 [Eh]
	 Opposite-Spin Energy      =      -1.0900043005533153 [Eh]
	 Correlation Energy        =      -1.4242588061076946 [Eh]
	 Total Energy              =    -325.3915074613473735 [Eh]

	 ================> DF-SCS-MP2 Energies <==================
	-----------------------------------------------------------
	 SCS Same-Spin Scale       =       0.3333333333333333 [-]
	 SCS Opposite-Spin Scale   =       1.2000000000000000 [-]
	 SCS Same-Spin Energy      =      -0.1114181685181264 [Eh]
	 SCS Opposite-Spin Energy  =      -1.3080051606639784 [Eh]
	 SCS Correlation Energy    =      -1.4194233291821048 [Eh]
	 SCS Total Energy          =    -325.3866719844218096 [Eh]
	-----------------------------------------------------------

  Dipole Moment: [D]
     X:     0.9437      Y:    -3.3230      Z:     0.0000     Total:     3.4544

*** Psi4 exiting successfully. Buy a developer a beer!
