                               Psi4 1.3.2 release

  ==> Input File <==

--------------------------------------------------------------------------
#psi4
#
memory 32 gb

molecule  {
0 1
  O        0.3298930     1.3563610     0.0000010
  N        1.4348200    -0.6488910    -0.0000020
  C       -0.9749590    -0.6428430     0.0000000
  C       -2.1282420    -0.0114780     0.7458050
  C       -2.1282420    -0.0114760    -0.7458050
  C        0.2501907     0.2078985     0.0000001
  C        2.7647980    -0.0711410     0.0000010
  H       -0.9168040    -1.7286440    -0.0000010
  H       -1.9064930     0.9268970     1.2416810
  H       -2.8082510    -0.6753610     1.2689740
  H       -2.8082510    -0.6753540    -1.2689790
  H       -1.9064880     0.9269020    -1.2416750
  H        1.3354930    -1.6544500     0.0000010
  H        3.3241450    -0.3701690    -0.8913010
  H        3.3241380    -0.3701570     0.8913110
  H        2.6401830     1.0111360    -0.0000070
units angstrom
no_reorient  #important for SAPT in psi4, default
symmetry c1  #important for SAPT in psi4, default
}

set PROPERTIES_ORIGIN ["COM"]
properties('MP2/aug-cc-pvtz', properties = ['dipole'])
--------------------------------------------------------------------------

    Molecular point group: c1
  Charge       = 0
  Multiplicity = 1
  Basis Set: AUG-CC-PVTZ
    Blend: AUG-CC-PVTZ
  Basis Set: (AUG-CC-PVTZ AUX)
    Blend: AUG-CC-PVTZ-JKFIT

    Orbital Energies [Eh]
    ---------------------

    Doubly Occupied:

       1A    -20.530844     2A    -15.563872     3A    -11.349280
       4A    -11.246055     5A    -11.245778     6A    -11.237376
       7A    -11.236672     8A     -1.429808     9A     -1.196724
      10A     -1.156028    11A     -0.948032    12A     -0.855675
      13A     -0.830688    14A     -0.757813    15A     -0.725923
      16A     -0.659494    17A     -0.650853    18A     -0.613188
      19A     -0.596108    20A     -0.566516    21A     -0.562846
      22A     -0.533276    23A     -0.518687    24A     -0.453485
      25A     -0.429193    26A     -0.415292    27A     -0.377204

  @DF-RHF Final Energy:  -323.98432236558432

   => Energetics <=

    Nuclear Repulsion Energy =            303.4839629675950619
    One-Electron Energy =               -1041.5631522965311433
    Two-Electron Energy =                 414.0948669633517625
    Total Energy =                       -323.9843223655843190
  Basis Set: (AUG-CC-PVTZ AUX)
    Blend: AUG-CC-PVTZ-RI
    Molecular point group: c1

    Geometry (in Angstrom), charge = 0, multiplicity = 1:

       Center              X                  Y                   Z               Mass
    ------------   -----------------  -----------------  -----------------  -----------------
         O            0.339473306765     1.319716438157     0.000000947308    15.994914619570
         N            1.444400306765    -0.685535561843    -0.000002052692    14.003074004430
         C           -0.965378693235    -0.679487561843    -0.000000052692    12.000000000000
         C           -2.118661693235    -0.048122561843     0.745804947308    12.000000000000
         C           -2.118661693235    -0.048120561843    -0.745805052692    12.000000000000
         C            0.259771006765     0.171253938157     0.000000047308    12.000000000000
         C            2.774378306765    -0.107785561843     0.000000947308    12.000000000000
         H           -0.907223693235    -1.765288561843    -0.000001052692     1.007825032230
         H           -1.896912693235     0.890252438157     1.241680947308     1.007825032230
         H           -2.798670693235    -0.712005561843     1.268973947308     1.007825032230
         H           -2.798670693235    -0.711998561843    -1.268979052692     1.007825032230
         H           -1.896907693235     0.890257438157    -1.241675052692     1.007825032230
         H            1.345073306765    -1.691094561843     0.000000947308     1.007825032230
         H            3.333725306765    -0.406813561843    -0.891301052692     1.007825032230
         H            3.333718306765    -0.406801561843     0.891310947308     1.007825032230
         H            2.649763306765     0.974491438157    -0.000007052692     1.007825032230

  Basis Set: AUG-CC-PVTZ
    Blend: AUG-CC-PVTZ
  Basis Set: (AUG-CC-PVTZ AUX)
    Blend: AUG-CC-PVTZ-JKFIT
	 Reference Energy          =    -323.9843223655843190 [Eh]
	 Singles Energy            =      -0.0000000000000000 [Eh]
	 Same-Spin Energy          =      -0.3336294382612557 [Eh]
	 Opposite-Spin Energy      =      -1.0871278484842630 [Eh]
	 Correlation Energy        =      -1.4207572867455187 [Eh]
	 Total Energy              =    -325.4050796523298459 [Eh]

	 ================> DF-SCS-MP2 Energies <==================
	-----------------------------------------------------------
	 SCS Same-Spin Scale       =       0.3333333333333333 [-]
	 SCS Opposite-Spin Scale   =       1.2000000000000000 [-]
	 SCS Same-Spin Energy      =      -0.1112098127537519 [Eh]
	 SCS Opposite-Spin Energy  =      -1.3045534181811156 [Eh]
	 SCS Correlation Energy    =      -1.4157632309348676 [Eh]
	 SCS Total Energy          =    -325.4000855965192045 [Eh]
	-----------------------------------------------------------

  Dipole Moment: [D]
     X:    -0.0338      Y:    -2.8385      Z:     0.0000     Total:     2.8387

*** Psi4 exiting successfully. Buy a developer a beer!
