                               Psi4 1.3.2 release

  ==> Input File <==

--------------------------------------------------------------------------
#psi4
#
memory 32 gb

molecule  {
0 1
  O        0.3298930     1.3563610     0.0000010
  N        1.4348200    -0.6488910    -0.0000020
  C       -0.9749590    -0.6428430     0.0000000
  C       -2.1282420    -0.0114780     0.7458050
  C       -2.1282420    -0.0114760    -0.7458050
  C        0.2791348     0.1646231     0.0000001
  C        2.7647980    -0.0711410     0.0000010
  H       -0.9168040    -1.7286440    -0.0000010
  H       -1.9064930     0.9268970     1.2416810
  H       -2.8082510    -0.6753610     1.2689740
  H       -2.8082510    -0.6753540    -1.2689790
  H       -1.9064880     0.9269020    -1.2416750
  H        1.3354930    -1.6544500     0.0000010
  H        3.3241450    -0.3701690    -0.8913010
  H        3.3241380    -0.3701570     0.8913110
  H        2.6401830     1.0111360    -0.0000070
units angstrom
no_reorient  #important for SAPT in psi4, default
symmetry c1  #important for SAPT in psi4, default
}

set PROPERTIES_ORIGIN ["COM"]
properties('MP2/aug-cc-pvtz', properties = ['dipole'])
--------------------------------------------------------------------------

    Molecular point group: c1
  Charge       = 0
  Multiplicity = 1
  Basis Set: AUG-CC-PVTZ
    Blend: AUG-CC-PVTZ
  Basis Set: (AUG-CC-PVTZ AUX)
    Blend: AUG-CC-PVTZ-JKFIT

    Orbital Energies [Eh]
    ---------------------

    Doubly Occupied:

       1A    -20.519502     2A    -15.575375     3A    -11.348692
       4A    -11.251299     5A    -11.244846     6A    -11.235901
       7A    -11.235196     8A     -1.396154     9A     -1.211834
      10A     -1.153575    11A     -0.957729    12A     -0.857651
      13A     -0.828542    14A     -0.766353    15A     -0.720910
      16A     -0.660560    17A     -0.637376    18A     -0.615286
      19A     -0.601767    20A     -0.557220    21A     -0.553167
      22A     -0.537697    23A     -0.515437    24A     -0.447287
      25A     -0.424371    26A     -0.417917    27A     -0.384653

  @DF-RHF Final Energy:  -323.99431441723021

   => Energetics <=

    Nuclear Repulsion Energy =            303.2287282977867449
    One-Electron Energy =               -1041.1334881348066119
    Two-Electron Energy =                 413.9104454197895961
    Total Energy =                       -323.9943144172302141
  Basis Set: (AUG-CC-PVTZ AUX)
    Blend: AUG-CC-PVTZ-RI
    Molecular point group: c1

    Geometry (in Angstrom), charge = 0, multiplicity = 1:

       Center              X                  Y                   Z               Mass
    ------------   -----------------  -----------------  -----------------  -----------------
         O            0.335967353795     1.324958318787     0.000000947308    15.994914619570
         N            1.440894353795    -0.680293681213    -0.000002052692    14.003074004430
         C           -0.968884646205    -0.674245681213    -0.000000052692    12.000000000000
         C           -2.122167646205    -0.042880681213     0.745804947308    12.000000000000
         C           -2.122167646205    -0.042878681213    -0.745805052692    12.000000000000
         C            0.285209153795     0.133220418787     0.000000047308    12.000000000000
         C            2.770872353795    -0.102543681213     0.000000947308    12.000000000000
         H           -0.910729646205    -1.760046681213    -0.000001052692     1.007825032230
         H           -1.900418646205     0.895494318787     1.241680947308     1.007825032230
         H           -2.802176646205    -0.706763681213     1.268973947308     1.007825032230
         H           -2.802176646205    -0.706756681213    -1.268979052692     1.007825032230
         H           -1.900413646205     0.895499318787    -1.241675052692     1.007825032230
         H            1.341567353795    -1.685852681213     0.000000947308     1.007825032230
         H            3.330219353795    -0.401571681213    -0.891301052692     1.007825032230
         H            3.330212353795    -0.401559681213     0.891310947308     1.007825032230
         H            2.646257353795     0.979733318787    -0.000007052692     1.007825032230

  Basis Set: AUG-CC-PVTZ
    Blend: AUG-CC-PVTZ
  Basis Set: (AUG-CC-PVTZ AUX)
    Blend: AUG-CC-PVTZ-JKFIT
	 Reference Energy          =    -323.9943144172302141 [Eh]
	 Singles Energy            =      -0.0000000000000000 [Eh]
	 Same-Spin Energy          =      -0.3340945352160449 [Eh]
	 Opposite-Spin Energy      =      -1.0880335868853539 [Eh]
	 Correlation Energy        =      -1.4221281221013988 [Eh]
	 Total Energy              =    -325.4164425393316264 [Eh]

	 ================> DF-SCS-MP2 Energies <==================
	-----------------------------------------------------------
	 SCS Same-Spin Scale       =       0.3333333333333333 [-]
	 SCS Opposite-Spin Scale   =       1.2000000000000000 [-]
	 SCS Same-Spin Energy      =      -0.1113648450720150 [Eh]
	 SCS Opposite-Spin Energy  =      -1.3056403042624247 [Eh]
	 SCS Correlation Energy    =      -1.4170051493344398 [Eh]
	 SCS Total Energy          =    -325.4113195665646572 [Eh]
	-----------------------------------------------------------

  Dipole Moment: [D]
     X:     0.3238      Y:    -3.1764      Z:     0.0000     Total:     3.1928

*** Psi4 exiting successfully. Buy a developer a beer!
