                               Psi4 1.3.2 release

  ==> Input File <==

--------------------------------------------------------------------------
#psi4
#
memory 32 gb

molecule  {
0 1
  O        0.3298930     1.3563610     0.0000010
  N        1.4348200    -0.6488910    -0.0000020
  C       -0.9749590    -0.6428430     0.0000000
  C       -2.1434195    -0.0320472     0.7392815
  C       -2.1282420    -0.0114760    -0.7458050
  C        0.3065510     0.1203640     0.0000000
  C        2.7647980    -0.0711410     0.0000010
  H       -0.9168040    -1.7286440    -0.0000010
  H       -1.9064930     0.9268970     1.2416810
  H       -2.8082510    -0.6753610     1.2689740
  H       -2.8082510    -0.6753540    -1.2689790
  H       -1.9064880     0.9269020    -1.2416750
  H        1.3354930    -1.6544500     0.0000010
  H        3.3241450    -0.3701690    -0.8913010
  H        3.3241380    -0.3701570     0.8913110
  H        2.6401830     1.0111360    -0.0000070
units angstrom
no_reorient  #important for SAPT in psi4, default
symmetry c1  #important for SAPT in psi4, default
}

set PROPERTIES_ORIGIN ["COM"]
properties('MP2/aug-cc-pvtz', properties = ['dipole'])
--------------------------------------------------------------------------

    Molecular point group: c1
  Charge       = 0
  Multiplicity = 1
  Basis Set: AUG-CC-PVTZ
    Blend: AUG-CC-PVTZ
  Basis Set: (AUG-CC-PVTZ AUX)
    Blend: AUG-CC-PVTZ-JKFIT

    Orbital Energies [Eh]
    ---------------------

    Doubly Occupied:

       1A    -20.508087     2A    -15.586247     3A    -11.347891
       4A    -11.256809     5A    -11.243997     6A    -11.234691
       7A    -11.233959     8A     -1.366440     9A     -1.225636
      10A     -1.151957    11A     -0.968225    12A     -0.860009
      13A     -0.826379    14A     -0.777065    15A     -0.715069
      16A     -0.665875    17A     -0.625117    18A     -0.620629
      19A     -0.605965    20A     -0.545533    21A     -0.545084
      22A     -0.542574    23A     -0.510283    24A     -0.442444
      25A     -0.419141    26A     -0.417845    27A     -0.389182

  @DF-RHF Final Energy:  -323.99516616756904

   => Energetics <=

    Nuclear Repulsion Energy =            302.9484484063238483
    One-Electron Energy =               -1040.6229649813533342
    Two-Electron Energy =                 413.6793504074603902
    Total Energy =                       -323.9951661675690389
  Basis Set: (AUG-CC-PVTZ AUX)
    Blend: AUG-CC-PVTZ-RI
    Molecular point group: c1

    Geometry (in Angstrom), charge = 0, multiplicity = 1:

       Center              X                  Y                   Z               Mass
    ------------   -----------------  -----------------  -----------------  -----------------
         O            0.334484899457     1.332810868043     0.000791140640    15.994914619570
         N            1.439411899457    -0.672441131957     0.000788140640    14.003074004430
         C           -0.970367100543    -0.666393131957     0.000790140640    12.000000000000
         C           -2.138827600543    -0.055597331957     0.740071640640    12.000000000000
         C           -2.123650100543    -0.035026131957    -0.745014859360    12.000000000000
         C            0.311142899457     0.096813868043     0.000790140640    12.000000000000
         C            2.769389899457    -0.094691131957     0.000791140640    12.000000000000
         H           -0.912212100543    -1.752194131957     0.000789140640     1.007825032230
         H           -1.901901100543     0.903346868043     1.242471140640     1.007825032230
         H           -2.803659100543    -0.698911131957     1.269764140640     1.007825032230
         H           -2.803659100543    -0.698904131957    -1.268188859360     1.007825032230
         H           -1.901896100543     0.903351868043    -1.240884859360     1.007825032230
         H            1.340084899457    -1.678000131957     0.000791140640     1.007825032230
         H            3.328736899457    -0.393719131957    -0.890510859360     1.007825032230
         H            3.328729899457    -0.393707131957     0.892101140640     1.007825032230
         H            2.644774899457     0.987585868043     0.000783140640     1.007825032230

  Basis Set: AUG-CC-PVTZ
    Blend: AUG-CC-PVTZ
  Basis Set: (AUG-CC-PVTZ AUX)
    Blend: AUG-CC-PVTZ-JKFIT
	 Reference Energy          =    -323.9951661675690389 [Eh]
	 Singles Energy            =      -0.0000000000000000 [Eh]
	 Same-Spin Energy          =      -0.3346785128061082 [Eh]
	 Opposite-Spin Energy      =      -1.0891387092881359 [Eh]
	 Correlation Energy        =      -1.4238172220942442 [Eh]
	 Total Energy              =    -325.4189833896633104 [Eh]

	 ================> DF-SCS-MP2 Energies <==================
	-----------------------------------------------------------
	 SCS Same-Spin Scale       =       0.3333333333333333 [-]
	 SCS Opposite-Spin Scale   =       1.2000000000000000 [-]
	 SCS Same-Spin Energy      =      -0.1115595042687027 [Eh]
	 SCS Opposite-Spin Energy  =      -1.3069664511457630 [Eh]
	 SCS Correlation Energy    =      -1.4185259554144658 [Eh]
	 SCS Total Energy          =    -325.4136921229834911 [Eh]
	-----------------------------------------------------------

  Dipole Moment: [D]
     X:     0.6459      Y:    -3.5073      Z:     0.0041     Total:     3.5663

*** Psi4 exiting successfully. Buy a developer a beer!
