                               Psi4 1.3.2 release

  ==> Input File <==

--------------------------------------------------------------------------
#psi4
#
memory 32 gb

molecule  {
0 1
  O        0.3298930     1.3563610     0.0000010
  N        1.4348200    -0.6488910    -0.0000020
  C       -0.9749590    -0.6428430     0.0000000
  C       -2.1282420    -0.0114780     0.7458050
  C       -2.1282420    -0.0114760    -0.7458050
  C        0.3924684     0.1715324     0.0000000
  C        2.7647980    -0.0711410     0.0000010
  H       -0.9168040    -1.7286440    -0.0000010
  H       -1.9064930     0.9268970     1.2416810
  H       -2.8082510    -0.6753610     1.2689740
  H       -2.8082510    -0.6753540    -1.2689790
  H       -1.9064880     0.9269020    -1.2416750
  H        1.3354930    -1.6544500     0.0000010
  H        3.3241450    -0.3701690    -0.8913010
  H        3.3241380    -0.3701570     0.8913110
  H        2.6401830     1.0111360    -0.0000070
units angstrom
no_reorient  #important for SAPT in psi4, default
symmetry c1  #important for SAPT in psi4, default
}

set PROPERTIES_ORIGIN ["COM"]
properties('MP2/aug-cc-pvtz', properties = ['dipole'])
--------------------------------------------------------------------------

    Molecular point group: c1
  Charge       = 0
  Multiplicity = 1
  Basis Set: AUG-CC-PVTZ
    Blend: AUG-CC-PVTZ
  Basis Set: (AUG-CC-PVTZ AUX)
    Blend: AUG-CC-PVTZ-JKFIT

    Orbital Energies [Eh]
    ---------------------

    Doubly Occupied:

       1A    -20.515365     2A    -15.590482     3A    -11.344538
       4A    -11.259927     5A    -11.237393     6A    -11.225675
       7A    -11.224969     8A     -1.399548     9A     -1.247220
      10A     -1.137768    11A     -0.967204    12A     -0.837937
      13A     -0.818287    14A     -0.795536    15A     -0.707387
      16A     -0.660241    17A     -0.640161    18A     -0.631210
      19A     -0.601731    20A     -0.555849    21A     -0.553335
      22A     -0.540999    23A     -0.508693    24A     -0.438062
      25A     -0.415487    26A     -0.402176    27A     -0.399726

  @DF-RHF Final Energy:  -323.98865186190397

   => Energetics <=

    Nuclear Repulsion Energy =            303.2872330511971768
    One-Electron Energy =               -1041.2379536920866485
    Two-Electron Energy =                 413.9620687789854969
    Total Energy =                       -323.9886518619039748
  Basis Set: (AUG-CC-PVTZ AUX)
    Blend: AUG-CC-PVTZ-RI
    Molecular point group: c1

    Geometry (in Angstrom), charge = 0, multiplicity = 1:

       Center              X                  Y                   Z               Mass
    ------------   -----------------  -----------------  -----------------  -----------------
         O            0.322239434408     1.324121406226     0.000000959421    15.994914619570
         N            1.427166434408    -0.681130593774    -0.000002040579    14.003074004430
         C           -0.982612565592    -0.675082593774    -0.000000040579    12.000000000000
         C           -2.135895565592    -0.043717593774     0.745804959421    12.000000000000
         C           -2.135895565592    -0.043715593774    -0.745805040579    12.000000000000
         C            0.384814834408     0.139292806226    -0.000000040579    12.000000000000
         C            2.757144434408    -0.103380593774     0.000000959421    12.000000000000
         H           -0.924457565592    -1.760883593774    -0.000001040579     1.007825032230
         H           -1.914146565592     0.894657406226     1.241680959421     1.007825032230
         H           -2.815904565592    -0.707600593774     1.268973959421     1.007825032230
         H           -2.815904565592    -0.707593593774    -1.268979040579     1.007825032230
         H           -1.914141565592     0.894662406226    -1.241675040579     1.007825032230
         H            1.327839434408    -1.686689593774     0.000000959421     1.007825032230
         H            3.316491434408    -0.402408593774    -0.891301040579     1.007825032230
         H            3.316484434408    -0.402396593774     0.891310959421     1.007825032230
         H            2.632529434408     0.978896406226    -0.000007040579     1.007825032230

  Basis Set: AUG-CC-PVTZ
    Blend: AUG-CC-PVTZ
  Basis Set: (AUG-CC-PVTZ AUX)
    Blend: AUG-CC-PVTZ-JKFIT
	 Reference Energy          =    -323.9886518619039748 [Eh]
	 Singles Energy            =      -0.0000000000000000 [Eh]
	 Same-Spin Energy          =      -0.3334889724832431 [Eh]
	 Opposite-Spin Energy      =      -1.0869766751761620 [Eh]
	 Correlation Energy        =      -1.4204656476594051 [Eh]
	 Total Energy              =    -325.4091175095633730 [Eh]

	 ================> DF-SCS-MP2 Energies <==================
	-----------------------------------------------------------
	 SCS Same-Spin Scale       =       0.3333333333333333 [-]
	 SCS Opposite-Spin Scale   =       1.2000000000000000 [-]
	 SCS Same-Spin Energy      =      -0.1111629908277477 [Eh]
	 SCS Opposite-Spin Energy  =      -1.3043720102113945 [Eh]
	 SCS Correlation Energy    =      -1.4155350010391421 [Eh]
	 SCS Total Energy          =    -325.4041868629431065 [Eh]
	-----------------------------------------------------------

  Dipole Moment: [D]
     X:     1.3006      Y:    -3.3070      Z:     0.0000     Total:     3.5536

*** Psi4 exiting successfully. Buy a developer a beer!
