                               Psi4 1.3.2 release

  ==> Input File <==

--------------------------------------------------------------------------
#psi4
#
memory 32 gb

molecule  {
0 1
  O        0.3298930     1.3563610     0.0000010
  N        1.4072861    -0.6877984    -0.0000020
  C       -0.9749590    -0.6428430     0.0000000
  C       -2.1282420    -0.0114780     0.7458050
  C       -2.1282420    -0.0114760    -0.7458050
  C        0.3065510     0.1203640     0.0000000
  C        2.7647980    -0.0711410     0.0000010
  H       -0.9168040    -1.7286440    -0.0000010
  H       -1.9064930     0.9268970     1.2416810
  H       -2.8082510    -0.6753610     1.2689740
  H       -2.8082510    -0.6753540    -1.2689790
  H       -1.9064880     0.9269020    -1.2416750
  H        1.3354930    -1.6544500     0.0000010
  H        3.3241450    -0.3701690    -0.8913010
  H        3.3241380    -0.3701570     0.8913110
  H        2.6401830     1.0111360    -0.0000070
units angstrom
no_reorient  #important for SAPT in psi4, default
symmetry c1  #important for SAPT in psi4, default
}

set PROPERTIES_ORIGIN ["COM"]
properties('MP2/aug-cc-pvtz', properties = ['dipole'])
--------------------------------------------------------------------------

    Molecular point group: c1
  Charge       = 0
  Multiplicity = 1
  Basis Set: AUG-CC-PVTZ
    Blend: AUG-CC-PVTZ
  Basis Set: (AUG-CC-PVTZ AUX)
    Blend: AUG-CC-PVTZ-JKFIT

    Orbital Energies [Eh]
    ---------------------

    Doubly Occupied:

       1A    -20.510035     2A    -15.584512     3A    -11.348321
       4A    -11.260296     5A    -11.242017     6A    -11.233373
       7A    -11.232669     8A     -1.366142     9A     -1.225227
      10A     -1.149338    11A     -0.964510    12A     -0.862736
      13A     -0.825551    14A     -0.786926    15A     -0.715183
      16A     -0.660251    17A     -0.624855    18A     -0.616801
      19A     -0.598556    20A     -0.551520    21A     -0.545446
      22A     -0.542871    23A     -0.512346    24A     -0.440697
      25A     -0.418799    26A     -0.415834    27A     -0.393078

  @DF-RHF Final Energy:  -323.99341832272103

   => Energetics <=

    Nuclear Repulsion Energy =            302.7577440948808771
    One-Electron Energy =               -1040.2465372862573076
    Two-Electron Energy =                 413.4953748686554036
    Total Energy =                       -323.9934183227210269
  Basis Set: (AUG-CC-PVTZ AUX)
    Blend: AUG-CC-PVTZ-RI
    Molecular point group: c1

    Geometry (in Angstrom), charge = 0, multiplicity = 1:

       Center              X                  Y                   Z               Mass
    ------------   -----------------  -----------------  -----------------  -----------------
         O            0.336538321242     1.335818817699     0.000000959421    15.994914619570
         N            1.413931421242    -0.708340582301    -0.000002040579    14.003074004430
         C           -0.968313678758    -0.663385182301    -0.000000040579    12.000000000000
         C           -2.121596678758    -0.032020182301     0.745804959421    12.000000000000
         C           -2.121596678758    -0.032018182301    -0.745805040579    12.000000000000
         C            0.313196321242     0.099821817699    -0.000000040579    12.000000000000
         C            2.771443321242    -0.091683182301     0.000000959421    12.000000000000
         H           -0.910158678758    -1.749186182301    -0.000001040579     1.007825032230
         H           -1.899847678758     0.906354817699     1.241680959421     1.007825032230
         H           -2.801605678758    -0.695903182301     1.268973959421     1.007825032230
         H           -2.801605678758    -0.695896182301    -1.268979040579     1.007825032230
         H           -1.899842678758     0.906359817699    -1.241675040579     1.007825032230
         H            1.342138321242    -1.674992182301     0.000000959421     1.007825032230
         H            3.330790321242    -0.390711182301    -0.891301040579     1.007825032230
         H            3.330783321242    -0.390699182301     0.891310959421     1.007825032230
         H            2.646828321242     0.990593817699    -0.000007040579     1.007825032230

  Basis Set: AUG-CC-PVTZ
    Blend: AUG-CC-PVTZ
  Basis Set: (AUG-CC-PVTZ AUX)
    Blend: AUG-CC-PVTZ-JKFIT
	 Reference Energy          =    -323.9934183227210269 [Eh]
	 Singles Energy            =      -0.0000000000000000 [Eh]
	 Same-Spin Energy          =      -0.3343372321630541 [Eh]
	 Opposite-Spin Energy      =      -1.0889772356693157 [Eh]
	 Correlation Energy        =      -1.4233144678323697 [Eh]
	 Total Energy              =    -325.4167327905533966 [Eh]

	 ================> DF-SCS-MP2 Energies <==================
	-----------------------------------------------------------
	 SCS Same-Spin Scale       =       0.3333333333333333 [-]
	 SCS Opposite-Spin Scale   =       1.2000000000000000 [-]
	 SCS Same-Spin Energy      =      -0.1114457440543514 [Eh]
	 SCS Opposite-Spin Energy  =      -1.3067726828031787 [Eh]
	 SCS Correlation Energy    =      -1.4182184268575302 [Eh]
	 SCS Total Energy          =    -325.4116367495785767 [Eh]
	-----------------------------------------------------------

  Dipole Moment: [D]
     X:     0.7559      Y:    -3.4502      Z:     0.0000     Total:     3.5321

*** Psi4 exiting successfully. Buy a developer a beer!
