                               Psi4 1.3.2 release

  ==> Input File <==

--------------------------------------------------------------------------
#psi4
#
memory 32 gb

molecule  {
0 1
  O        0.3298930     1.3563610     0.0000010
  N        1.4857321    -0.5683131    -0.0000019
  C       -0.9749590    -0.6428430     0.0000000
  C       -2.1282420    -0.0114780     0.7458050
  C       -2.1282420    -0.0114760    -0.7458050
  C        0.3065510     0.1203640     0.0000000
  C        2.7647980    -0.0711410     0.0000010
  H       -0.9168040    -1.7286440    -0.0000010
  H       -1.9064930     0.9268970     1.2416810
  H       -2.8082510    -0.6753610     1.2689740
  H       -2.8082510    -0.6753540    -1.2689790
  H       -1.9064880     0.9269020    -1.2416750
  H        1.3354930    -1.6544500     0.0000010
  H        3.3241450    -0.3701690    -0.8913010
  H        3.3241380    -0.3701570     0.8913110
  H        2.6401830     1.0111360    -0.0000070
units angstrom
no_reorient  #important for SAPT in psi4, default
symmetry c1  #important for SAPT in psi4, default
}

set PROPERTIES_ORIGIN ["COM"]
properties('MP2/aug-cc-pvtz', properties = ['dipole'])
--------------------------------------------------------------------------

    Molecular point group: c1
  Charge       = 0
  Multiplicity = 1
  Basis Set: AUG-CC-PVTZ
    Blend: AUG-CC-PVTZ
  Basis Set: (AUG-CC-PVTZ AUX)
    Blend: AUG-CC-PVTZ-JKFIT

    Orbital Energies [Eh]
    ---------------------

    Doubly Occupied:

       1A    -20.504445     2A    -15.589567     3A    -11.348057
       4A    -11.250149     5A    -11.249118     6A    -11.237412
       7A    -11.236701     8A     -1.368342     9A     -1.230928
      10A     -1.154321    11A     -0.975344    12A     -0.857699
      13A     -0.829051    14A     -0.758545    15A     -0.718261
      16A     -0.672169    17A     -0.629648    18A     -0.627072
      19A     -0.616703    20A     -0.548417    21A     -0.543904
      22A     -0.523959    23A     -0.513614    24A     -0.442478
      25A     -0.422181    26A     -0.419155    27A     -0.381449

  @DF-RHF Final Energy:  -323.98166763655217

   => Energetics <=

    Nuclear Repulsion Energy =            303.6659064071685634
    One-Electron Energy =               -1041.9977722935304882
    Two-Electron Energy =                 414.3501982498097505
    Total Energy =                       -323.9816676365521744
  Basis Set: (AUG-CC-PVTZ AUX)
    Blend: AUG-CC-PVTZ-RI
    Molecular point group: c1

    Geometry (in Angstrom), charge = 0, multiplicity = 1:

       Center              X                  Y                   Z               Mass
    ------------   -----------------  -----------------  -----------------  -----------------
         O            0.325450174173     1.318929867606     0.000000945287    15.994914619570
         N            1.481289274173    -0.605744232394    -0.000001954713    14.003074004430
         C           -0.979401825827    -0.680274132394    -0.000000054713    12.000000000000
         C           -2.132684825827    -0.048909132394     0.745804945287    12.000000000000
         C           -2.132684825827    -0.048907132394    -0.745805054713    12.000000000000
         C            0.302108174173     0.082932867606    -0.000000054713    12.000000000000
         C            2.760355174173    -0.108572132394     0.000000945287    12.000000000000
         H           -0.921246825827    -1.766075132394    -0.000001054713     1.007825032230
         H           -1.910935825827     0.889465867606     1.241680945287     1.007825032230
         H           -2.812693825827    -0.712792132394     1.268973945287     1.007825032230
         H           -2.812693825827    -0.712785132394    -1.268979054713     1.007825032230
         H           -1.910930825827     0.889470867606    -1.241675054713     1.007825032230
         H            1.331050174173    -1.691881132394     0.000000945287     1.007825032230
         H            3.319702174173    -0.407600132394    -0.891301054713     1.007825032230
         H            3.319695174173    -0.407588132394     0.891310945287     1.007825032230
         H            2.635740174173     0.973704867606    -0.000007054713     1.007825032230

  Basis Set: AUG-CC-PVTZ
    Blend: AUG-CC-PVTZ
  Basis Set: (AUG-CC-PVTZ AUX)
    Blend: AUG-CC-PVTZ-JKFIT
	 Reference Energy          =    -323.9816676365521744 [Eh]
	 Singles Energy            =      -0.0000000000000000 [Eh]
	 Same-Spin Energy          =      -0.3356756007252504 [Eh]
	 Opposite-Spin Energy      =      -1.0905609415111472 [Eh]
	 Correlation Energy        =      -1.4262365422363976 [Eh]
	 Total Energy              =    -325.4079041787885558 [Eh]

	 ================> DF-SCS-MP2 Energies <==================
	-----------------------------------------------------------
	 SCS Same-Spin Scale       =       0.3333333333333333 [-]
	 SCS Opposite-Spin Scale   =       1.2000000000000000 [-]
	 SCS Same-Spin Energy      =      -0.1118918669084168 [Eh]
	 SCS Opposite-Spin Energy  =      -1.3086731298133767 [Eh]
	 SCS Correlation Energy    =      -1.4205649967217935 [Eh]
	 SCS Total Energy          =    -325.4022326332739681 [Eh]
	-----------------------------------------------------------

  Dipole Moment: [D]
     X:     0.4285      Y:    -3.5800      Z:     0.0000     Total:     3.6056

*** Psi4 exiting successfully. Buy a developer a beer!
