                               Psi4 1.3.2 release

  ==> Input File <==

--------------------------------------------------------------------------
#psi4
#
memory 32 gb

molecule  {
0 1
  O        0.3298930     1.3563610     0.0000010
  N        1.4348200    -0.6488910    -0.0000020
  C       -0.9749590    -0.6428430     0.0000000
  C       -2.1282420    -0.0114780     0.7458050
  C       -2.1282420    -0.0114760    -0.7458050
  C        0.2197539     0.2501373     0.0000002
  C        2.7647980    -0.0711410     0.0000010
  H       -0.9168040    -1.7286440    -0.0000010
  H       -1.9064930     0.9268970     1.2416810
  H       -2.8082510    -0.6753610     1.2689740
  H       -2.8082510    -0.6753540    -1.2689790
  H       -1.9064880     0.9269020    -1.2416750
  H        1.3354930    -1.6544500     0.0000010
  H        3.3241450    -0.3701690    -0.8913010
  H        3.3241380    -0.3701570     0.8913110
  H        2.6401830     1.0111360    -0.0000070
units angstrom
no_reorient  #important for SAPT in psi4, default
symmetry c1  #important for SAPT in psi4, default
}

set PROPERTIES_ORIGIN ["COM"]
properties('MP2/aug-cc-pvtz', properties = ['dipole'])
--------------------------------------------------------------------------

    Molecular point group: c1
  Charge       = 0
  Multiplicity = 1
  Basis Set: AUG-CC-PVTZ
    Blend: AUG-CC-PVTZ
  Basis Set: (AUG-CC-PVTZ AUX)
    Blend: AUG-CC-PVTZ-JKFIT

    Orbital Energies [Eh]
    ---------------------

    Doubly Occupied:

       1A    -20.542122     2A    -15.551536     3A    -11.349800
       4A    -11.248130     5A    -11.240138     6A    -11.239180
       7A    -11.238475     8A     -1.465280     9A     -1.182709
      10A     -1.157530    11A     -0.939069    12A     -0.853589
      13A     -0.833192    14A     -0.752878    15A     -0.730789
      16A     -0.669679    17A     -0.653879    18A     -0.617786
      19A     -0.590654    20A     -0.574577    21A     -0.569628
      22A     -0.529633    23A     -0.522183    24A     -0.457985
      25A     -0.433755    26A     -0.410447    27A     -0.368003

  @DF-RHF Final Energy:  -323.96586468766941

   => Energetics <=

    Nuclear Repulsion Energy =            303.7867537319862095
    One-Electron Energy =               -1042.0599848203303281
    Two-Electron Energy =                 414.3073664006747094
    Total Energy =                       -323.9658646876694092
  Basis Set: (AUG-CC-PVTZ AUX)
    Blend: AUG-CC-PVTZ-RI
    Molecular point group: c1

    Geometry (in Angstrom), charge = 0, multiplicity = 1:

       Center              X                  Y                   Z               Mass
    ------------   -----------------  -----------------  -----------------  -----------------
         O            0.343160068121     1.314600119241     0.000000935196    15.994914619570
         N            1.448087068121    -0.690651880759    -0.000002064804    14.003074004430
         C           -0.961691931879    -0.684603880759    -0.000000064804    12.000000000000
         C           -2.114974931879    -0.053238880759     0.745804935196    12.000000000000
         C           -2.114974931879    -0.053236880759    -0.745805064804    12.000000000000
         C            0.233020968121     0.208376419241     0.000000135196    12.000000000000
         C            2.778065068121    -0.112901880759     0.000000935196    12.000000000000
         H           -0.903536931879    -1.770404880759    -0.000001064804     1.007825032230
         H           -1.893225931879     0.885136119241     1.241680935196     1.007825032230
         H           -2.794983931879    -0.717121880759     1.268973935196     1.007825032230
         H           -2.794983931879    -0.717114880759    -1.268979064804     1.007825032230
         H           -1.893220931879     0.885141119241    -1.241675064804     1.007825032230
         H            1.348760068121    -1.696210880759     0.000000935196     1.007825032230
         H            3.337412068121    -0.411929880759    -0.891301064804     1.007825032230
         H            3.337405068121    -0.411917880759     0.891310935196     1.007825032230
         H            2.653450068121     0.969375119241    -0.000007064804     1.007825032230

  Basis Set: AUG-CC-PVTZ
    Blend: AUG-CC-PVTZ
  Basis Set: (AUG-CC-PVTZ AUX)
    Blend: AUG-CC-PVTZ-JKFIT
	 Reference Energy          =    -323.9658646876694092 [Eh]
	 Singles Energy            =      -0.0000000000000000 [Eh]
	 Same-Spin Energy          =      -0.3332701817056276 [Eh]
	 Opposite-Spin Energy      =      -1.0864464676423751 [Eh]
	 Correlation Energy        =      -1.4197166493480027 [Eh]
	 Total Energy              =    -325.3855813370174133 [Eh]

	 ================> DF-SCS-MP2 Energies <==================
	-----------------------------------------------------------
	 SCS Same-Spin Scale       =       0.3333333333333333 [-]
	 SCS Opposite-Spin Scale   =       1.2000000000000000 [-]
	 SCS Same-Spin Energy      =      -0.1110900605685425 [Eh]
	 SCS Opposite-Spin Energy  =      -1.3037357611708500 [Eh]
	 SCS Correlation Energy    =      -1.4148258217393925 [Eh]
	 SCS Total Energy          =    -325.3806905094087938 [Eh]
	-----------------------------------------------------------

  Dipole Moment: [D]
     X:    -0.4230      Y:    -2.4910      Z:     0.0000     Total:     2.5267

*** Psi4 exiting successfully. Buy a developer a beer!
