                               Psi4 1.4a3.dev225

  ==> Input File <==

--------------------------------------------------------------------------
#psi4
#
memory 32 gb

molecule  {
0 1
  O        0.3298930     1.3563610     0.0000010
  N        1.4348200    -0.6488910    -0.0000020
  C       -0.9749590    -0.6428430     0.0000000
  C       -2.1282420    -0.0114780     0.7458050
  C       -2.1282420    -0.0114760    -0.7458050
  C        0.2893675     0.1101303     0.0000000
  C        2.7647980    -0.0711410     0.0000010
  H       -0.9168040    -1.7286440    -0.0000010
  H       -1.9064930     0.9268970     1.2416810
  H       -2.8082510    -0.6753610     1.2689740
  H       -2.8082510    -0.6753540    -1.2689790
  H       -1.9064880     0.9269020    -1.2416750
  H        1.3354930    -1.6544500     0.0000010
  H        3.3241450    -0.3701690    -0.8913010
  H        3.3241380    -0.3701570     0.8913110
  H        2.6401830     1.0111360    -0.0000070
units angstrom
no_reorient  #important for SAPT in psi4, default
symmetry c1  #important for SAPT in psi4, default
}

set PROPERTIES_ORIGIN ["COM"]
properties('MP2/aug-cc-pvtz', properties = ['dipole'])
--------------------------------------------------------------------------

    Molecular point group: c1
  Charge       = 0
  Multiplicity = 1
  Basis Set: AUG-CC-PVTZ
    Blend: AUG-CC-PVTZ
  Basis Set: (AUG-CC-PVTZ AUX)
    Blend: AUG-CC-PVTZ-JKFIT

    Orbital Energies [Eh]
    ---------------------

    Doubly Occupied:

       1A    -20.506576     2A    -15.585436     3A    -11.348611
       4A    -11.256160     5A    -11.245247     6A    -11.236593
       7A    -11.235888     8A     -1.359930     9A     -1.221318
      10A     -1.153808    11A     -0.968702    12A     -0.864137
      13A     -0.828419    14A     -0.773276    15A     -0.718053
      16A     -0.665004    17A     -0.621143    18A     -0.618689
      19A     -0.607297    20A     -0.546559    21A     -0.543723
      22A     -0.540789    23A     -0.513299    24A     -0.441654
      25A     -0.420385    26A     -0.418754    27A     -0.387065

  @DF-RHF Final Energy:  -323.99436284643099

   => Energetics <=

    Nuclear Repulsion Energy =            302.9840780945508527
    One-Electron Energy =               -1040.7038510231895998
    Two-Electron Energy =                 413.7254100822078158
    Total Energy =                       -323.9943628464309882
  Basis Set: (AUG-CC-PVTZ AUX)
    Blend: AUG-CC-PVTZ-RI
    Molecular point group: c1

    Geometry (in Angstrom), charge = 0, multiplicity = 1:

       Center              X                  Y                   Z               Mass
    ------------   -----------------  -----------------  -----------------  -----------------
         O            0.334727883058     1.331558945305     0.000000959421    15.994914619570
         N            1.439654883058    -0.673693054695    -0.000002040579    14.003074004430
         C           -0.970124116942    -0.667645054695    -0.000000040579    12.000000000000
         C           -2.123407116942    -0.036280054695     0.745804959421    12.000000000000
         C           -2.123407116942    -0.036278054695    -0.745805040579    12.000000000000
         C            0.294202383058     0.085328245305    -0.000000040579    12.000000000000
         C            2.769632883058    -0.095943054695     0.000000959421    12.000000000000
         H           -0.911969116942    -1.753446054695    -0.000001040579     1.007825032230
         H           -1.901658116942     0.902094945305     1.241680959421     1.007825032230
         H           -2.803416116942    -0.700163054695     1.268973959421     1.007825032230
         H           -2.803416116942    -0.700156054695    -1.268979040579     1.007825032230
         H           -1.901653116942     0.902099945305    -1.241675040579     1.007825032230
         H            1.340327883058    -1.679252054695     0.000000959421     1.007825032230
         H            3.328979883058    -0.394971054695    -0.891301040579     1.007825032230
         H            3.328972883058    -0.394959054695     0.891310959421     1.007825032230
         H            2.645017883058     0.986333945305    -0.000007040579     1.007825032230

  Basis Set: AUG-CC-PVTZ
    Blend: AUG-CC-PVTZ
  Basis Set: (AUG-CC-PVTZ AUX)
    Blend: AUG-CC-PVTZ-JKFIT
	 Reference Energy          =    -323.9943628464309882 [Eh]
	 Singles Energy            =      -0.0000000000000000 [Eh]
	 Same-Spin Energy          =      -0.3350008075701201 [Eh]
	 Opposite-Spin Energy      =      -1.0897840980811830 [Eh]
	 Correlation Energy        =      -1.4247849056513031 [Eh]
	 Total Energy              =    -325.4191477520822673 [Eh]

	 ================> DF-SCS-MP2 Energies <==================
	-----------------------------------------------------------
	 SCS Same-Spin Scale       =       0.3333333333333333 [-]
	 SCS Opposite-Spin Scale   =       1.2000000000000000 [-]
	 SCS Same-Spin Energy      =      -0.1116669358567067 [Eh]
	 SCS Opposite-Spin Energy  =      -1.3077409176974195 [Eh]
	 SCS Correlation Energy    =      -1.4194078535541261 [Eh]
	 SCS Total Energy          =    -325.4137706999850934 [Eh]
	-----------------------------------------------------------

  Dipole Moment: [D]
     X:     0.5221      Y:    -3.5394      Z:     0.0000     Total:     3.5777

*** Psi4 exiting successfully. Buy a developer a beer!
