                               Psi4 1.4a3.dev225

  ==> Input File <==

--------------------------------------------------------------------------
#psi4
#
memory 32 gb

molecule  {
0 1
  O        0.3298930     1.3563610     0.0000010
  N        1.4348200    -0.6488910    -0.0000020
  C       -0.9749590    -0.6428430     0.0000000
  C       -2.1282420    -0.0114780     0.7458050
  C       -2.1282420    -0.0114760    -0.7458050
  C        0.2635923     0.0947798     0.0000000
  C        2.7647980    -0.0711410     0.0000010
  H       -0.9168040    -1.7286440    -0.0000010
  H       -1.9064930     0.9268970     1.2416810
  H       -2.8082510    -0.6753610     1.2689740
  H       -2.8082510    -0.6753540    -1.2689790
  H       -1.9064880     0.9269020    -1.2416750
  H        1.3354930    -1.6544500     0.0000010
  H        3.3241450    -0.3701690    -0.8913010
  H        3.3241380    -0.3701570     0.8913110
  H        2.6401830     1.0111360    -0.0000070
units angstrom
no_reorient  #important for SAPT in psi4, default
symmetry c1  #important for SAPT in psi4, default
}

set PROPERTIES_ORIGIN ["COM"]
properties('MP2/aug-cc-pvtz', properties = ['dipole'])
--------------------------------------------------------------------------

    Molecular point group: c1
  Charge       = 0
  Multiplicity = 1
  Basis Set: AUG-CC-PVTZ
    Blend: AUG-CC-PVTZ
  Basis Set: (AUG-CC-PVTZ AUX)
    Blend: AUG-CC-PVTZ-JKFIT

    Orbital Energies [Eh]
    ---------------------

    Doubly Occupied:

       1A    -20.504488     2A    -15.584262     3A    -11.350059
       4A    -11.255218     5A    -11.246410     6A    -11.239583
       7A    -11.238882     8A     -1.350262     9A     -1.214878
      10A     -1.158192    11A     -0.970193    12A     -0.870799
      13A     -0.831127    14A     -0.767732    15A     -0.720829
      16A     -0.666623    17A     -0.616654    18A     -0.615957
      19A     -0.608343    20A     -0.548230    21A     -0.542963
      22A     -0.537140    23A     -0.514032    24A     -0.442818
      25A     -0.420867    26A     -0.419774    27A     -0.383695

  @DF-RHF Final Energy:  -323.98969183254212

   => Energetics <=

    Nuclear Repulsion Energy =            302.9289319803054354
    One-Electron Energy =               -1040.5972255574008614
    Two-Electron Energy =                 413.6786017445533616
    Total Energy =                       -323.9896918325421211
  Basis Set: (AUG-CC-PVTZ AUX)
    Blend: AUG-CC-PVTZ-RI
    Molecular point group: c1

    Geometry (in Angstrom), charge = 0, multiplicity = 1:

       Center              X                  Y                   Z               Mass
    ------------   -----------------  -----------------  -----------------  -----------------
         O            0.337849992192     1.333418327047     0.000000959421    15.994914619570
         N            1.442776992192    -0.671833672953    -0.000002040579    14.003074004430
         C           -0.967002007808    -0.665785672953    -0.000000040579    12.000000000000
         C           -2.120285007808    -0.034420672953     0.745804959421    12.000000000000
         C           -2.120285007808    -0.034418672953    -0.745805040579    12.000000000000
         C            0.271549292192     0.071837127047    -0.000000040579    12.000000000000
         C            2.772754992192    -0.094083672953     0.000000959421    12.000000000000
         H           -0.908847007808    -1.751586672953    -0.000001040579     1.007825032230
         H           -1.898536007808     0.903954327047     1.241680959421     1.007825032230
         H           -2.800294007808    -0.698303672953     1.268973959421     1.007825032230
         H           -2.800294007808    -0.698296672953    -1.268979040579     1.007825032230
         H           -1.898531007808     0.903959327047    -1.241675040579     1.007825032230
         H            1.343449992192    -1.677392672953     0.000000959421     1.007825032230
         H            3.332101992192    -0.393111672953    -0.891301040579     1.007825032230
         H            3.332094992192    -0.393099672953     0.891310959421     1.007825032230
         H            2.648139992192     0.988193327047    -0.000007040579     1.007825032230

  Basis Set: AUG-CC-PVTZ
    Blend: AUG-CC-PVTZ
  Basis Set: (AUG-CC-PVTZ AUX)
    Blend: AUG-CC-PVTZ-JKFIT
	 Reference Energy          =    -323.9896918325421211 [Eh]
	 Singles Energy            =      -0.0000000000000000 [Eh]
	 Same-Spin Energy          =      -0.3356391487570926 [Eh]
	 Opposite-Spin Energy      =      -1.0909673825220498 [Eh]
	 Correlation Energy        =      -1.4266065312791425 [Eh]
	 Total Energy              =    -325.4162983638212836 [Eh]

	 ================> DF-SCS-MP2 Energies <==================
	-----------------------------------------------------------
	 SCS Same-Spin Scale       =       0.3333333333333333 [-]
	 SCS Opposite-Spin Scale   =       1.2000000000000000 [-]
	 SCS Same-Spin Energy      =      -0.1118797162523642 [Eh]
	 SCS Opposite-Spin Energy  =      -1.3091608590264598 [Eh]
	 SCS Correlation Energy    =      -1.4210405752788240 [Eh]
	 SCS Total Energy          =    -325.4107324078209444 [Eh]
	-----------------------------------------------------------

  Dipole Moment: [D]
     X:     0.3262      Y:    -3.5906      Z:     0.0000     Total:     3.6054

*** Psi4 exiting successfully. Buy a developer a beer!
