                               Psi4 1.3.2 release

  ==> Input File <==

--------------------------------------------------------------------------
#psi4
#
memory 32 gb

molecule  {
0 1
  O        0.2867431     1.3564227     0.0000010
  N        1.4348200    -0.6488910    -0.0000020
  C       -0.9749590    -0.6428430     0.0000000
  C       -2.1282420    -0.0114780     0.7458050
  C       -2.1282420    -0.0114760    -0.7458050
  C        0.3065510     0.1203640     0.0000000
  C        2.7647980    -0.0711410     0.0000010
  H       -0.9168040    -1.7286440    -0.0000010
  H       -1.9064930     0.9268970     1.2416810
  H       -2.8082510    -0.6753610     1.2689740
  H       -2.8082510    -0.6753540    -1.2689790
  H       -1.9064880     0.9269020    -1.2416750
  H        1.3354930    -1.6544500     0.0000010
  H        3.3241450    -0.3701690    -0.8913010
  H        3.3241380    -0.3701570     0.8913110
  H        2.6401830     1.0111360    -0.0000070
units angstrom
no_reorient  #important for SAPT in psi4, default
symmetry c1  #important for SAPT in psi4, default
}

set PROPERTIES_ORIGIN ["COM"]
properties('MP2/aug-cc-pvtz', properties = ['dipole'])
--------------------------------------------------------------------------

    Molecular point group: c1
  Charge       = 0
  Multiplicity = 1
  Basis Set: AUG-CC-PVTZ
    Blend: AUG-CC-PVTZ
  Basis Set: (AUG-CC-PVTZ AUX)
    Blend: AUG-CC-PVTZ-JKFIT

    Orbital Energies [Eh]
    ---------------------

    Doubly Occupied:

       1A    -20.508471     2A    -15.588407     3A    -11.347892
       4A    -11.258567     5A    -11.242198     6A    -11.233090
       7A    -11.232385     8A     -1.366265     9A     -1.228370
      10A     -1.148972    11A     -0.968855    12A     -0.859089
      13A     -0.825215    14A     -0.778441    15A     -0.714834
      16A     -0.663694    17A     -0.624688    18A     -0.621781
      19A     -0.606630    20A     -0.545840    21A     -0.545298
      22A     -0.543483    23A     -0.511280    24A     -0.439584
      25A     -0.418156    26A     -0.416812    27A     -0.391108

  @DF-RHF Final Energy:  -323.99550472460135

   => Energetics <=

    Nuclear Repulsion Energy =            303.1256248605358223
    One-Electron Energy =               -1040.9834512084917151
    Two-Electron Energy =                 413.8623216233545463
    Total Energy =                       -323.9955047246013464
  Basis Set: (AUG-CC-PVTZ AUX)
    Blend: AUG-CC-PVTZ-RI
    Molecular point group: c1

    Geometry (in Angstrom), charge = 0, multiplicity = 1:

       Center              X                  Y                   Z               Mass
    ------------   -----------------  -----------------  -----------------  -----------------
         O            0.296463263313     1.330371091776     0.000000959421    15.994914619570
         N            1.444540163313    -0.674942608224    -0.000002040579    14.003074004430
         C           -0.965238836687    -0.668894608224    -0.000000040579    12.000000000000
         C           -2.118521836687    -0.037529608224     0.745804959421    12.000000000000
         C           -2.118521836687    -0.037527608224    -0.745805040579    12.000000000000
         C            0.316271163313     0.094312391776    -0.000000040579    12.000000000000
         C            2.774518163313    -0.097192608224     0.000000959421    12.000000000000
         H           -0.907083836687    -1.754695608224    -0.000001040579     1.007825032230
         H           -1.896772836687     0.900845391776     1.241680959421     1.007825032230
         H           -2.798530836687    -0.701412608224     1.268973959421     1.007825032230
         H           -2.798530836687    -0.701405608224    -1.268979040579     1.007825032230
         H           -1.896767836687     0.900850391776    -1.241675040579     1.007825032230
         H            1.345213163313    -1.680501608224     0.000000959421     1.007825032230
         H            3.333865163313    -0.396220608224    -0.891301040579     1.007825032230
         H            3.333858163313    -0.396208608224     0.891310959421     1.007825032230
         H            2.649903163313     0.985084391776    -0.000007040579     1.007825032230

  Basis Set: AUG-CC-PVTZ
    Blend: AUG-CC-PVTZ
  Basis Set: (AUG-CC-PVTZ AUX)
    Blend: AUG-CC-PVTZ-JKFIT
	 Reference Energy          =    -323.9955047246013464 [Eh]
	 Singles Energy            =      -0.0000000000000000 [Eh]
	 Same-Spin Energy          =      -0.3346565931049317 [Eh]
	 Opposite-Spin Energy      =      -1.0891976588568708 [Eh]
	 Correlation Energy        =      -1.4238542519618025 [Eh]
	 Total Energy              =    -325.4193589765631600 [Eh]

	 ================> DF-SCS-MP2 Energies <==================
	-----------------------------------------------------------
	 SCS Same-Spin Scale       =       0.3333333333333333 [-]
	 SCS Opposite-Spin Scale   =       1.2000000000000000 [-]
	 SCS Same-Spin Energy      =      -0.1115521977016439 [Eh]
	 SCS Opposite-Spin Energy  =      -1.3070371906282450 [Eh]
	 SCS Correlation Energy    =      -1.4185893883298888 [Eh]
	 SCS Total Energy          =    -325.4140941129312523 [Eh]
	-----------------------------------------------------------

  Dipole Moment: [D]
     X:     0.8047      Y:    -3.4946      Z:     0.0000     Total:     3.5861

*** Psi4 exiting successfully. Buy a developer a beer!
