                               Psi4 1.3.2 release

  ==> Input File <==

--------------------------------------------------------------------------
#psi4
#
memory 32 gb

molecule  {
0 1
  O        0.3298930     1.3563610     0.0000010
  N        1.4348200    -0.6488910    -0.0000020
  C       -0.9749590    -0.6428430     0.0000000
  C       -2.1282420    -0.0114780     0.7458050
  C       -2.1282420    -0.0114760    -0.7458050
  C        0.3324059     0.0751750    -0.0000001
  C        2.7647980    -0.0711410     0.0000010
  H       -0.9168040    -1.7286440    -0.0000010
  H       -1.9064930     0.9268970     1.2416810
  H       -2.8082510    -0.6753610     1.2689740
  H       -2.8082510    -0.6753540    -1.2689790
  H       -1.9064880     0.9269020    -1.2416750
  H        1.3354930    -1.6544500     0.0000010
  H        3.3241450    -0.3701690    -0.8913010
  H        3.3241380    -0.3701570     0.8913110
  H        2.6401830     1.0111360    -0.0000070
units angstrom
no_reorient  #important for SAPT in psi4, default
symmetry c1  #important for SAPT in psi4, default
}

set PROPERTIES_ORIGIN ["COM"]
properties('MP2/aug-cc-pvtz', properties = ['dipole'])
--------------------------------------------------------------------------

    Molecular point group: c1
  Charge       = 0
  Multiplicity = 1
  Basis Set: AUG-CC-PVTZ
    Blend: AUG-CC-PVTZ
  Basis Set: (AUG-CC-PVTZ AUX)
    Blend: AUG-CC-PVTZ-JKFIT

    Orbital Energies [Eh]
    ---------------------

    Doubly Occupied:

       1A    -20.496209     2A    -15.596493     3A    -11.345949
       4A    -11.262231     5A    -11.244302     6A    -11.233640
       7A    -11.232932     8A     -1.344886     9A     -1.234131
      10A     -1.148340    11A     -0.978771    12A     -0.861574
      13A     -0.825001    14A     -0.788862    15A     -0.711966
      16A     -0.668331    17A     -0.627482    18A     -0.619660
      19A     -0.604443    20A     -0.547592    21A     -0.538833
      22A     -0.532093    23A     -0.511100    24A     -0.437455
      25A     -0.417309    26A     -0.411723    27A     -0.389193

  @DF-RHF Final Energy:  -323.98979090341987

   => Energetics <=

    Nuclear Repulsion Energy =            302.8804659491026428
    One-Electron Energy =               -1040.5195093059594456
    Two-Electron Energy =                 413.6492524534368727
    Total Energy =                       -323.9897909034198733
  Basis Set: (AUG-CC-PVTZ AUX)
    Blend: AUG-CC-PVTZ-RI
    Molecular point group: c1

    Geometry (in Angstrom), charge = 0, multiplicity = 1:

       Center              X                  Y                   Z               Mass
    ------------   -----------------  -----------------  -----------------  -----------------
         O            0.329514709862     1.335793025406     0.000000971534    15.994914619570
         N            1.434441709862    -0.669458974594    -0.000002028466    14.003074004430
         C           -0.975337290138    -0.663410974594    -0.000000028466    12.000000000000
         C           -2.128620290138    -0.032045974594     0.745804971534    12.000000000000
         C           -2.128620290138    -0.032043974594    -0.745805028466    12.000000000000
         C            0.332027609862     0.054607025406    -0.000000128466    12.000000000000
         C            2.764419709862    -0.091708974594     0.000000971534    12.000000000000
         H           -0.917182290138    -1.749211974594    -0.000001028466     1.007825032230
         H           -1.906871290138     0.906329025406     1.241680971534     1.007825032230
         H           -2.808629290138    -0.695928974594     1.268973971534     1.007825032230
         H           -2.808629290138    -0.695921974594    -1.268979028466     1.007825032230
         H           -1.906866290138     0.906334025406    -1.241675028466     1.007825032230
         H            1.335114709862    -1.675017974594     0.000000971534     1.007825032230
         H            3.323766709862    -0.390736974594    -0.891301028466     1.007825032230
         H            3.323759709862    -0.390724974594     0.891310971534     1.007825032230
         H            2.639804709862     0.990568025406    -0.000007028466     1.007825032230

  Basis Set: AUG-CC-PVTZ
    Blend: AUG-CC-PVTZ
  Basis Set: (AUG-CC-PVTZ AUX)
    Blend: AUG-CC-PVTZ-JKFIT
	 Reference Energy          =    -323.9897909034198733 [Eh]
	 Singles Energy            =      -0.0000000000000000 [Eh]
	 Same-Spin Energy          =      -0.3351827380053353 [Eh]
	 Opposite-Spin Energy      =      -1.0902233608439298 [Eh]
	 Correlation Energy        =      -1.4254060988492652 [Eh]
	 Total Energy              =    -325.4151970022691103 [Eh]

	 ================> DF-SCS-MP2 Energies <==================
	-----------------------------------------------------------
	 SCS Same-Spin Scale       =       0.3333333333333333 [-]
	 SCS Opposite-Spin Scale   =       1.2000000000000000 [-]
	 SCS Same-Spin Energy      =      -0.1117275793351118 [Eh]
	 SCS Opposite-Spin Energy  =      -1.3082680330127157 [Eh]
	 SCS Correlation Energy    =      -1.4199956123478275 [Eh]
	 SCS Total Energy          =    -325.4097865157676779 [Eh]
	-----------------------------------------------------------

  Dipole Moment: [D]
     X:     0.9504      Y:    -3.8234      Z:     0.0000     Total:     3.9397

*** Psi4 exiting successfully. Buy a developer a beer!
