                               Psi4 1.3.2 release

  ==> Input File <==

--------------------------------------------------------------------------
#psi4
#
memory 32 gb

molecule  {
0 1
  O        0.4589620     1.3471502     0.0000009
  N        1.4348200    -0.6488910    -0.0000020
  C       -0.9749590    -0.6428430     0.0000000
  C       -2.1282420    -0.0114780     0.7458050
  C       -2.1282420    -0.0114760    -0.7458050
  C        0.3065510     0.1203640     0.0000000
  C        2.7647980    -0.0711410     0.0000010
  H       -0.9168040    -1.7286440    -0.0000010
  H       -1.9064930     0.9268970     1.2416810
  H       -2.8082510    -0.6753610     1.2689740
  H       -2.8082510    -0.6753540    -1.2689790
  H       -1.9064880     0.9269020    -1.2416750
  H        1.3354930    -1.6544500     0.0000010
  H        3.3241450    -0.3701690    -0.8913010
  H        3.3241380    -0.3701570     0.8913110
  H        2.6401830     1.0111360    -0.0000070
units angstrom
no_reorient  #important for SAPT in psi4, default
symmetry c1  #important for SAPT in psi4, default
}

set PROPERTIES_ORIGIN ["COM"]
properties('MP2/aug-cc-pvtz', properties = ['dipole'])
--------------------------------------------------------------------------

    Molecular point group: c1
  Charge       = 0
  Multiplicity = 1
  Basis Set: AUG-CC-PVTZ
    Blend: AUG-CC-PVTZ
  Basis Set: (AUG-CC-PVTZ AUX)
    Blend: AUG-CC-PVTZ-JKFIT

    Orbital Energies [Eh]
    ---------------------

    Doubly Occupied:

       1A    -20.505904     2A    -15.579458     3A    -11.347288
       4A    -11.250999     5A    -11.250619     6A    -11.239273
       7A    -11.238562     8A     -1.367978     9A     -1.216760
      10A     -1.156699    11A     -0.965693    12A     -0.860882
      13A     -0.830958    14A     -0.772576    15A     -0.720073
      16A     -0.665207    17A     -0.623896    18A     -0.617063
      19A     -0.605789    20A     -0.550453    21A     -0.542940
      22A     -0.535074    23A     -0.516772    24A     -0.444937
      25A     -0.424696    26A     -0.417352    27A     -0.383487

  @DF-RHF Final Energy:  -323.99287342441437

   => Energetics <=

    Nuclear Repulsion Energy =            302.9105407625935982
    One-Electron Energy =               -1040.5440539243586500
    Two-Electron Energy =                 413.6406397373506252
    Total Energy =                       -323.9928734244143698
  Basis Set: (AUG-CC-PVTZ AUX)
    Blend: AUG-CC-PVTZ-RI
    Molecular point group: c1

    Geometry (in Angstrom), charge = 0, multiplicity = 1:

       Center              X                  Y                   Z               Mass
    ------------   -----------------  -----------------  -----------------  -----------------
         O            0.440876867027     1.322595666777     0.000000875567    15.994914619570
         N            1.416734867027    -0.673445533223    -0.000002024433    14.003074004430
         C           -0.993044132973    -0.667397533223    -0.000000024433    12.000000000000
         C           -2.146327132973    -0.036032533223     0.745804975567    12.000000000000
         C           -2.146327132973    -0.036030533223    -0.745805024433    12.000000000000
         C            0.288465867027     0.095809466777    -0.000000024433    12.000000000000
         C            2.746712867027    -0.095695533223     0.000000975567    12.000000000000
         H           -0.934889132973    -1.753198533223    -0.000001024433     1.007825032230
         H           -1.924578132973     0.902342466777     1.241680975567     1.007825032230
         H           -2.826336132973    -0.699915533223     1.268973975567     1.007825032230
         H           -2.826336132973    -0.699908533223    -1.268979024433     1.007825032230
         H           -1.924573132973     0.902347466777    -1.241675024433     1.007825032230
         H            1.317407867027    -1.679004533223     0.000000975567     1.007825032230
         H            3.306059867027    -0.394723533223    -0.891301024433     1.007825032230
         H            3.306052867027    -0.394711533223     0.891310975567     1.007825032230
         H            2.622097867027     0.986581466777    -0.000007024433     1.007825032230

  Basis Set: AUG-CC-PVTZ
    Blend: AUG-CC-PVTZ
  Basis Set: (AUG-CC-PVTZ AUX)
    Blend: AUG-CC-PVTZ-JKFIT
	 Reference Energy          =    -323.9928734244143698 [Eh]
	 Singles Energy            =      -0.0000000000000000 [Eh]
	 Same-Spin Energy          =      -0.3347864680303392 [Eh]
	 Opposite-Spin Energy      =      -1.0891980986664627 [Eh]
	 Correlation Energy        =      -1.4239845666968018 [Eh]
	 Total Energy              =    -325.4168579911111578 [Eh]

	 ================> DF-SCS-MP2 Energies <==================
	-----------------------------------------------------------
	 SCS Same-Spin Scale       =       0.3333333333333333 [-]
	 SCS Opposite-Spin Scale   =       1.2000000000000000 [-]
	 SCS Same-Spin Energy      =      -0.1115954893434464 [Eh]
	 SCS Opposite-Spin Energy  =      -1.3070377183997552 [Eh]
	 SCS Correlation Energy    =      -1.4186332077432016 [Eh]
	 SCS Total Energy          =    -325.4115066321575682 [Eh]
	-----------------------------------------------------------

  Dipole Moment: [D]
     X:     0.1896      Y:    -3.5004      Z:     0.0000     Total:     3.5055

*** Psi4 exiting successfully. Buy a developer a beer!
