                               Psi4 1.3.2 release

  ==> Input File <==

--------------------------------------------------------------------------
#psi4
#
memory 32 gb

molecule  {
0 1
  O        0.3298930     1.3563610     0.0000010
  N        1.4348200    -0.6488910    -0.0000020
  C       -0.9749590    -0.6428430     0.0000000
  C       -2.1282420    -0.0114780     0.7458050
  C       -2.1282420    -0.0114760    -0.7458050
  C        0.3065510     0.1203640     0.0000000
  C        2.7647980    -0.0711410     0.0000010
  H       -0.9168040    -1.7286440    -0.0000010
  H       -1.9064930     0.9268970     1.2416810
  H       -2.8082510    -0.6753610     1.2689740
  H       -2.8082510    -0.6753540    -1.2689790
  H       -1.9064880     0.9269020    -1.2416750
  H        1.3354930    -1.6544500     0.0000010
  H        3.3241450    -0.3701690    -0.8913010
  H        3.3241380    -0.3701570     0.8913110
  H        2.6401830     1.0111360    -0.0000070
units angstrom
no_reorient  #important for SAPT in psi4, default
symmetry c1  #important for SAPT in psi4, default
}

set PROPERTIES_ORIGIN ["COM"]
properties('MP2/aug-cc-pvtz', properties = ['dipole'])
--------------------------------------------------------------------------

    Molecular point group: c1
  Charge       = 0
  Multiplicity = 1
  Basis Set: AUG-CC-PVTZ
    Blend: AUG-CC-PVTZ
  Basis Set: (AUG-CC-PVTZ AUX)
    Blend: AUG-CC-PVTZ-JKFIT

    Orbital Energies [Eh]
    ---------------------

    Doubly Occupied:

       1A    -20.507955     2A    -15.586214     3A    -11.347686
       4A    -11.256773     5A    -11.244315     6A    -11.234676
       7A    -11.233969     8A     -1.366440     9A     -1.225611
      10A     -1.150982    11A     -0.968026    12A     -0.859602
      13A     -0.826668    14A     -0.777031    15A     -0.716175
      16A     -0.663999    17A     -0.624281    18A     -0.620582
      19A     -0.606498    20A     -0.546057    21A     -0.544639
      22A     -0.542581    23A     -0.512736    24A     -0.441083
      25A     -0.419840    26A     -0.417288    27A     -0.389289

  @DF-RHF Final Energy:  -323.99605480365778

   => Energetics <=

    Nuclear Repulsion Energy =            303.0265749356717038
    One-Electron Energy =               -1040.7832666496192360
    Two-Electron Energy =                 413.7606369102896906
    Total Energy =                       -323.9960548036577848
  Basis Set: (AUG-CC-PVTZ AUX)
    Blend: AUG-CC-PVTZ-RI
    Molecular point group: c1

    Geometry (in Angstrom), charge = 0, multiplicity = 1:

       Center              X                  Y                   Z               Mass
    ------------   -----------------  -----------------  -----------------  -----------------
         O            0.332646472931     1.330319353440     0.000000959421    15.994914619570
         N            1.437573472931    -0.674932646560    -0.000002040579    14.003074004430
         C           -0.972205527069    -0.668884646560    -0.000000040579    12.000000000000
         C           -2.125488527069    -0.037519646560     0.745804959421    12.000000000000
         C           -2.125488527069    -0.037517646560    -0.745805040579    12.000000000000
         C            0.309304472931     0.094322353440    -0.000000040579    12.000000000000
         C            2.767551472931    -0.097182646560     0.000000959421    12.000000000000
         H           -0.914050527069    -1.754685646560    -0.000001040579     1.007825032230
         H           -1.903739527069     0.900855353440     1.241680959421     1.007825032230
         H           -2.805497527069    -0.701402646560     1.268973959421     1.007825032230
         H           -2.805497527069    -0.701395646560    -1.268979040579     1.007825032230
         H           -1.903734527069     0.900860353440    -1.241675040579     1.007825032230
         H            1.338246472931    -1.680491646560     0.000000959421     1.007825032230
         H            3.326898472931    -0.396210646560    -0.891301040579     1.007825032230
         H            3.326891472931    -0.396198646560     0.891310959421     1.007825032230
         H            2.642936472931     0.985094353440    -0.000007040579     1.007825032230

  Basis Set: AUG-CC-PVTZ
    Blend: AUG-CC-PVTZ
  Basis Set: (AUG-CC-PVTZ AUX)
    Blend: AUG-CC-PVTZ-JKFIT
	 Reference Energy          =    -323.9960548036577848 [Eh]
	 Singles Energy            =      -0.0000000000000000 [Eh]
	 Same-Spin Energy          =      -0.3346312387531665 [Eh]
	 Opposite-Spin Energy      =      -1.0890985169130134 [Eh]
	 Correlation Energy        =      -1.4237297556661799 [Eh]
	 Total Energy              =    -325.4197845593239435 [Eh]

	 ================> DF-SCS-MP2 Energies <==================
	-----------------------------------------------------------
	 SCS Same-Spin Scale       =       0.3333333333333333 [-]
	 SCS Opposite-Spin Scale   =       1.2000000000000000 [-]
	 SCS Same-Spin Energy      =      -0.1115437462510555 [Eh]
	 SCS Opposite-Spin Energy  =      -1.3069182202956160 [Eh]
	 SCS Correlation Energy    =      -1.4184619665466716 [Eh]
	 SCS Total Energy          =    -325.4145167702044432 [Eh]
	-----------------------------------------------------------

  Dipole Moment: [D]
     X:     0.6514      Y:    -3.5042      Z:     0.0000     Total:     3.5642

*** Psi4 exiting successfully. Buy a developer a beer!
