                               Psi4 1.3.2 release

  ==> Input File <==

--------------------------------------------------------------------------
#psi4
#
memory 32 gb

molecule  {
0 1
  O        0.3298930     1.3563610     0.0000010
  N        1.4348200    -0.6488910    -0.0000020
  C       -0.9749590    -0.6428430     0.0000000
  C       -2.1582411    -0.0528025     0.7325328
  C       -2.1282420    -0.0114760    -0.7458050
  C        0.3065510     0.1203640     0.0000000
  C        2.7647980    -0.0711410     0.0000010
  H       -0.9168040    -1.7286440    -0.0000010
  H       -1.9064930     0.9268970     1.2416810
  H       -2.8082510    -0.6753610     1.2689740
  H       -2.8082510    -0.6753540    -1.2689790
  H       -1.9064880     0.9269020    -1.2416750
  H        1.3354930    -1.6544500     0.0000010
  H        3.3241450    -0.3701690    -0.8913010
  H        3.3241380    -0.3701570     0.8913110
  H        2.6401830     1.0111360    -0.0000070
units angstrom
no_reorient  #important for SAPT in psi4, default
symmetry c1  #important for SAPT in psi4, default
}

set PROPERTIES_ORIGIN ["COM"]
properties('MP2/aug-cc-pvtz', properties = ['dipole'])
--------------------------------------------------------------------------

    Molecular point group: c1
  Charge       = 0
  Multiplicity = 1
  Basis Set: AUG-CC-PVTZ
    Blend: AUG-CC-PVTZ
  Basis Set: (AUG-CC-PVTZ AUX)
    Blend: AUG-CC-PVTZ-JKFIT

    Orbital Energies [Eh]
    ---------------------

    Doubly Occupied:

       1A    -20.508249     2A    -15.586309     3A    -11.348139
       4A    -11.256864     5A    -11.243795     6A    -11.234853
       7A    -11.234072     8A     -1.366476     9A     -1.225689
      10A     -1.152989    11A     -0.968454    12A     -0.860513
      13A     -0.826611    14A     -0.777167    15A     -0.713917
      16A     -0.668186    17A     -0.625887    18A     -0.620680
      19A     -0.605834    20A     -0.545444    21A     -0.545030
      22A     -0.542554    23A     -0.507371    24A     -0.443670
      25A     -0.419257    26A     -0.417398    27A     -0.389084

  @DF-RHF Final Energy:  -323.99263420028149

   => Energetics <=

    Nuclear Repulsion Energy =            302.8746478932532114
    One-Electron Energy =               -1040.4655820314542325
    Two-Electron Energy =                 413.5982999379194780
    Total Energy =                       -323.9926342002814863
  Basis Set: (AUG-CC-PVTZ AUX)
    Blend: AUG-CC-PVTZ-RI
    Molecular point group: c1

    Geometry (in Angstrom), charge = 0, multiplicity = 1:

       Center              X                  Y                   Z               Mass
    ------------   -----------------  -----------------  -----------------  -----------------
         O            0.336280216379     1.335324924645     0.001608599977    15.994914619570
         N            1.441207216379    -0.669927075355     0.001605599977    14.003074004430
         C           -0.968571783621    -0.663879075355     0.001607599977    12.000000000000
         C           -2.151853883621    -0.073838575355     0.734140399977    12.000000000000
         C           -2.121854783621    -0.032512075355    -0.744197400023    12.000000000000
         C            0.312938216379     0.099327924645     0.001607599977    12.000000000000
         C            2.771185216379    -0.092177075355     0.001608599977    12.000000000000
         H           -0.910416783621    -1.749680075355     0.001606599977     1.007825032230
         H           -1.900105783621     0.905860924645     1.243288599977     1.007825032230
         H           -2.801863783621    -0.696397075355     1.270581599977     1.007825032230
         H           -2.801863783621    -0.696390075355    -1.267371400023     1.007825032230
         H           -1.900100783621     0.905865924645    -1.240067400023     1.007825032230
         H            1.341880216379    -1.675486075355     0.001608599977     1.007825032230
         H            3.330532216379    -0.391205075355    -0.889693400023     1.007825032230
         H            3.330525216379    -0.391193075355     0.892918599977     1.007825032230
         H            2.646570216379     0.990099924645     0.001600599977     1.007825032230

  Basis Set: AUG-CC-PVTZ
    Blend: AUG-CC-PVTZ
  Basis Set: (AUG-CC-PVTZ AUX)
    Blend: AUG-CC-PVTZ-JKFIT
	 Reference Energy          =    -323.9926342002814863 [Eh]
	 Singles Energy            =      -0.0000000000000000 [Eh]
	 Same-Spin Energy          =      -0.3347515219009757 [Eh]
	 Opposite-Spin Energy      =      -1.0892681203774024 [Eh]
	 Correlation Energy        =      -1.4240196422783780 [Eh]
	 Total Energy              =    -325.4166538425598674 [Eh]

	 ================> DF-SCS-MP2 Energies <==================
	-----------------------------------------------------------
	 SCS Same-Spin Scale       =       0.3333333333333333 [-]
	 SCS Opposite-Spin Scale   =       1.2000000000000000 [-]
	 SCS Same-Spin Energy      =      -0.1115838406336586 [Eh]
	 SCS Opposite-Spin Energy  =      -1.3071217444528829 [Eh]
	 SCS Correlation Energy    =      -1.4187055850865415 [Eh]
	 SCS Total Energy          =    -325.4113397853679999 [Eh]
	-----------------------------------------------------------

  Dipole Moment: [D]
     X:     0.6426      Y:    -3.5113      Z:     0.0054     Total:     3.5697

*** Psi4 exiting successfully. Buy a developer a beer!
