                               Psi4 1.3.2 release

  ==> Input File <==

--------------------------------------------------------------------------
#psi4
#
memory 32 gb

molecule  {
0 1
  O        0.3298930     1.3563610     0.0000010
  N        1.4212228    -0.6684648    -0.0000020
  C       -0.9749590    -0.6428430     0.0000000
  C       -2.1282420    -0.0114780     0.7458050
  C       -2.1282420    -0.0114760    -0.7458050
  C        0.3065510     0.1203640     0.0000000
  C        2.7647980    -0.0711410     0.0000010
  H       -0.9168040    -1.7286440    -0.0000010
  H       -1.9064930     0.9268970     1.2416810
  H       -2.8082510    -0.6753610     1.2689740
  H       -2.8082510    -0.6753540    -1.2689790
  H       -1.9064880     0.9269020    -1.2416750
  H        1.3354930    -1.6544500     0.0000010
  H        3.3241450    -0.3701690    -0.8913010
  H        3.3241380    -0.3701570     0.8913110
  H        2.6401830     1.0111360    -0.0000070
units angstrom
no_reorient  #important for SAPT in psi4, default
symmetry c1  #important for SAPT in psi4, default
}

set PROPERTIES_ORIGIN ["COM"]
properties('MP2/aug-cc-pvtz', properties = ['dipole'])
--------------------------------------------------------------------------

    Molecular point group: c1
  Charge       = 0
  Multiplicity = 1
  Basis Set: AUG-CC-PVTZ
    Blend: AUG-CC-PVTZ
  Basis Set: (AUG-CC-PVTZ AUX)
    Blend: AUG-CC-PVTZ-JKFIT

    Orbital Energies [Eh]
    ---------------------

    Doubly Occupied:

       1A    -20.508972     2A    -15.585366     3A    -11.347937
       4A    -11.258529     5A    -11.243155     6A    -11.234019
       7A    -11.233313     8A     -1.366243     9A     -1.225237
      10A     -1.150154    11A     -0.966246    12A     -0.860938
      13A     -0.826102    14A     -0.782020    15A     -0.715672
      16A     -0.662083    17A     -0.624469    18A     -0.618631
      19A     -0.602686    20A     -0.548193    21A     -0.545008
      22A     -0.543522    23A     -0.512539    24A     -0.440862
      25A     -0.419306    26A     -0.416607    27A     -0.391202

  @DF-RHF Final Energy:  -323.99558550809866

   => Energetics <=

    Nuclear Repulsion Energy =            302.8876938333683597
    One-Electron Energy =               -1040.5085373861609241
    Two-Electron Energy =                 413.6252580446939646
    Total Energy =                       -323.9955855080986566
  Basis Set: (AUG-CC-PVTZ AUX)
    Blend: AUG-CC-PVTZ-RI
    Molecular point group: c1

    Geometry (in Angstrom), charge = 0, multiplicity = 1:

       Center              X                  Y                   Z               Mass
    ------------   -----------------  -----------------  -----------------  -----------------
         O            0.334568403346     1.333086061406     0.000000959421    15.994914619570
         N            1.425898203346    -0.691739738594    -0.000002040579    14.003074004430
         C           -0.970283596654    -0.666117938594    -0.000000040579    12.000000000000
         C           -2.123566596654    -0.034752938594     0.745804959421    12.000000000000
         C           -2.123566596654    -0.034750938594    -0.745805040579    12.000000000000
         C            0.311226403346     0.097089061406    -0.000000040579    12.000000000000
         C            2.769473403346    -0.094415938594     0.000000959421    12.000000000000
         H           -0.912128596654    -1.751918938594    -0.000001040579     1.007825032230
         H           -1.901817596654     0.903622061406     1.241680959421     1.007825032230
         H           -2.803575596654    -0.698635938594     1.268973959421     1.007825032230
         H           -2.803575596654    -0.698628938594    -1.268979040579     1.007825032230
         H           -1.901812596654     0.903627061406    -1.241675040579     1.007825032230
         H            1.340168403346    -1.677724938594     0.000000959421     1.007825032230
         H            3.328820403346    -0.393443938594    -0.891301040579     1.007825032230
         H            3.328813403346    -0.393431938594     0.891310959421     1.007825032230
         H            2.644858403346     0.987861061406    -0.000007040579     1.007825032230

  Basis Set: AUG-CC-PVTZ
    Blend: AUG-CC-PVTZ
  Basis Set: (AUG-CC-PVTZ AUX)
    Blend: AUG-CC-PVTZ-JKFIT
	 Reference Energy          =    -323.9955855080986566 [Eh]
	 Singles Energy            =      -0.0000000000000000 [Eh]
	 Same-Spin Energy          =      -0.3344641093884942 [Eh]
	 Opposite-Spin Energy      =      -1.0889855466035652 [Eh]
	 Correlation Energy        =      -1.4234496559920595 [Eh]
	 Total Energy              =    -325.4190351640907011 [Eh]

	 ================> DF-SCS-MP2 Energies <==================
	-----------------------------------------------------------
	 SCS Same-Spin Scale       =       0.3333333333333333 [-]
	 SCS Opposite-Spin Scale   =       1.2000000000000000 [-]
	 SCS Same-Spin Energy      =      -0.1114880364628314 [Eh]
	 SCS Opposite-Spin Energy  =      -1.3067826559242781 [Eh]
	 SCS Correlation Energy    =      -1.4182706923871096 [Eh]
	 SCS Total Energy          =    -325.4138562004857818 [Eh]
	-----------------------------------------------------------

  Dipole Moment: [D]
     X:     0.7044      Y:    -3.4782      Z:     0.0000     Total:     3.5488

*** Psi4 exiting successfully. Buy a developer a beer!
