                               Psi4 1.3.2 release

  ==> Input File <==

--------------------------------------------------------------------------
#psi4
#
memory 32 gb

molecule  {
0 1
  O        0.3298930     1.3563610     0.0000010
  N        1.4348200    -0.6488910    -0.0000020
  C       -0.9749590    -0.6428430     0.0000000
  C       -2.0968378     0.0290773     0.7581685
  C       -2.1282420    -0.0114760    -0.7458050
  C        0.3065510     0.1203640     0.0000000
  C        2.7647980    -0.0711410     0.0000010
  H       -0.9168040    -1.7286440    -0.0000010
  H       -1.9064930     0.9268970     1.2416810
  H       -2.8082510    -0.6753610     1.2689740
  H       -2.8082510    -0.6753540    -1.2689790
  H       -1.9064880     0.9269020    -1.2416750
  H        1.3354930    -1.6544500     0.0000010
  H        3.3241450    -0.3701690    -0.8913010
  H        3.3241380    -0.3701570     0.8913110
  H        2.6401830     1.0111360    -0.0000070
units angstrom
no_reorient  #important for SAPT in psi4, default
symmetry c1  #important for SAPT in psi4, default
}

set PROPERTIES_ORIGIN ["COM"]
properties('MP2/aug-cc-pvtz', properties = ['dipole'])
--------------------------------------------------------------------------

    Molecular point group: c1
  Charge       = 0
  Multiplicity = 1
  Basis Set: AUG-CC-PVTZ
    Blend: AUG-CC-PVTZ
  Basis Set: (AUG-CC-PVTZ AUX)
    Blend: AUG-CC-PVTZ-JKFIT

    Orbital Energies [Eh]
    ---------------------

    Doubly Occupied:

       1A    -20.507792     2A    -15.586240     3A    -11.347408
       4A    -11.256759     5A    -11.245303     6A    -11.235049
       7A    -11.234378     8A     -1.366561     9A     -1.225654
      10A     -1.149208    11A     -0.967725    12A     -0.859108
      13A     -0.828899    14A     -0.777175    15A     -0.718132
      16A     -0.661807    17A     -0.622585    18A     -0.620363
      19A     -0.608787    20A     -0.547118    21A     -0.543525
      22A     -0.542182    23A     -0.516233    24A     -0.438337
      25A     -0.421049    26A     -0.415570    27A     -0.389545

  @DF-RHF Final Energy:  -323.99266788550813

   => Energetics <=

    Nuclear Repulsion Energy =            303.1969691292452467
    One-Electron Energy =               -1041.1142931507022240
    Two-Electron Energy =                 413.9246561359489078
    Total Energy =                       -323.9926678855081263
  Basis Set: (AUG-CC-PVTZ AUX)
    Blend: AUG-CC-PVTZ-RI
    Molecular point group: c1

    Geometry (in Angstrom), charge = 0, multiplicity = 1:

       Center              X                  Y                   Z               Mass
    ------------   -----------------  -----------------  -----------------  -----------------
         O            0.328842531946     1.325406954212    -0.001496611743    15.994914619570
         N            1.433769531946    -0.679845045788    -0.001499611743    14.003074004430
         C           -0.976009468054    -0.673797045788    -0.001497611743    12.000000000000
         C           -2.097888268054    -0.001876745788     0.756670888257    12.000000000000
         C           -2.129292468054    -0.042430045788    -0.747302611743    12.000000000000
         C            0.305500531946     0.089409954212    -0.001497611743    12.000000000000
         C            2.763747531946    -0.102095045788    -0.001496611743    12.000000000000
         H           -0.917854468054    -1.759598045788    -0.001498611743     1.007825032230
         H           -1.907543468054     0.895942954212     1.240183388257     1.007825032230
         H           -2.809301468054    -0.706315045788     1.267476388257     1.007825032230
         H           -2.809301468054    -0.706308045788    -1.270476611743     1.007825032230
         H           -1.907538468054     0.895947954212    -1.243172611743     1.007825032230
         H            1.334442531946    -1.685404045788    -0.001496611743     1.007825032230
         H            3.323094531946    -0.401123045788    -0.892798611743     1.007825032230
         H            3.323087531946    -0.401111045788     0.889813388257     1.007825032230
         H            2.639132531946     0.980181954212    -0.001504611743     1.007825032230

  Basis Set: AUG-CC-PVTZ
    Blend: AUG-CC-PVTZ
  Basis Set: (AUG-CC-PVTZ AUX)
    Blend: AUG-CC-PVTZ-JKFIT
	 Reference Energy          =    -323.9926678855081263 [Eh]
	 Singles Energy            =      -0.0000000000000000 [Eh]
	 Same-Spin Energy          =      -0.3346150909263206 [Eh]
	 Opposite-Spin Energy      =      -1.0892928649935993 [Eh]
	 Correlation Energy        =      -1.4239079559199199 [Eh]
	 Total Energy              =    -325.4165758414280276 [Eh]

	 ================> DF-SCS-MP2 Energies <==================
	-----------------------------------------------------------
	 SCS Same-Spin Scale       =       0.3333333333333333 [-]
	 SCS Opposite-Spin Scale   =       1.2000000000000000 [-]
	 SCS Same-Spin Energy      =      -0.1115383636421069 [Eh]
	 SCS Opposite-Spin Energy  =      -1.3071514379923193 [Eh]
	 SCS Correlation Energy    =      -1.4186898016344260 [Eh]
	 SCS Total Energy          =    -325.4113576871425266 [Eh]
	-----------------------------------------------------------

  Dipole Moment: [D]
     X:     0.6694      Y:    -3.5001      Z:    -0.0171     Total:     3.5636

*** Psi4 exiting successfully. Buy a developer a beer!
