                               Psi4 1.3.2 release

  ==> Input File <==

--------------------------------------------------------------------------
#psi4
#
memory 32 gb

molecule  {
0 1
  O        0.3298930     1.3563610     0.0000010
  N        1.4348200    -0.6488910    -0.0000020
  C       -0.9749590    -0.6428430     0.0000000
  C       -2.1282420    -0.0114780     0.7458050
  C       -2.1282420    -0.0114760    -0.7458050
  C        0.3566679     0.0291112    -0.0000001
  C        2.7647980    -0.0711410     0.0000010
  H       -0.9168040    -1.7286440    -0.0000010
  H       -1.9064930     0.9268970     1.2416810
  H       -2.8082510    -0.6753610     1.2689740
  H       -2.8082510    -0.6753540    -1.2689790
  H       -1.9064880     0.9269020    -1.2416750
  H        1.3354930    -1.6544500     0.0000010
  H        3.3241450    -0.3701690    -0.8913010
  H        3.3241380    -0.3701570     0.8913110
  H        2.6401830     1.0111360    -0.0000070
units angstrom
no_reorient  #important for SAPT in psi4, default
symmetry c1  #important for SAPT in psi4, default
}

set PROPERTIES_ORIGIN ["COM"]
properties('MP2/aug-cc-pvtz', properties = ['dipole'])
--------------------------------------------------------------------------

    Molecular point group: c1
  Charge       = 0
  Multiplicity = 1
  Basis Set: AUG-CC-PVTZ
    Blend: AUG-CC-PVTZ
  Basis Set: (AUG-CC-PVTZ AUX)
    Blend: AUG-CC-PVTZ-JKFIT

    Orbital Energies [Eh]
    ---------------------

    Doubly Occupied:

       1A    -20.484448     2A    -15.606221     3A    -11.343244
       4A    -11.267642     5A    -11.244687     6A    -11.232758
       7A    -11.232047     8A     -1.337660     9A     -1.231558
      10A     -1.145563    11A     -0.989780    12A     -0.863607
      13A     -0.823503    14A     -0.801099    15A     -0.708559
      16A     -0.673193    17A     -0.635402    18A     -0.623602
      19A     -0.596160    20A     -0.552172    21A     -0.536004
      22A     -0.514974    23A     -0.510750    24A     -0.436583
      25A     -0.417654    26A     -0.401968    27A     -0.383785

  @DF-RHF Final Energy:  -323.97570112561095

   => Energetics <=

    Nuclear Repulsion Energy =            302.7910105151168523
    One-Electron Energy =               -1040.3441739417878580
    Two-Electron Energy =                 413.5774623010601090
    Total Energy =                       -323.9757011256109536
  Basis Set: (AUG-CC-PVTZ AUX)
    Blend: AUG-CC-PVTZ-RI
    Molecular point group: c1

    Geometry (in Angstrom), charge = 0, multiplicity = 1:

       Center              X                  Y                   Z               Mass
    ------------   -----------------  -----------------  -----------------  -----------------
         O            0.326575892246     1.341372660511     0.000000971534    15.994914619570
         N            1.431502892246    -0.663879339489    -0.000002028466    14.003074004430
         C           -0.978276107754    -0.657831339489    -0.000000028466    12.000000000000
         C           -2.131559107754    -0.026466339489     0.745804971534    12.000000000000
         C           -2.131559107754    -0.026464339489    -0.745805028466    12.000000000000
         C            0.353350792246     0.014122860511    -0.000000128466    12.000000000000
         C            2.761480892246    -0.086129339489     0.000000971534    12.000000000000
         H           -0.920121107754    -1.743632339489    -0.000001028466     1.007825032230
         H           -1.909810107754     0.911908660511     1.241680971534     1.007825032230
         H           -2.811568107754    -0.690349339489     1.268973971534     1.007825032230
         H           -2.811568107754    -0.690342339489    -1.268979028466     1.007825032230
         H           -1.909805107754     0.911913660511    -1.241675028466     1.007825032230
         H            1.332175892246    -1.669438339489     0.000000971534     1.007825032230
         H            3.320827892246    -0.385157339489    -0.891301028466     1.007825032230
         H            3.320820892246    -0.385145339489     0.891310971534     1.007825032230
         H            2.636865892246     0.996147660511    -0.000007028466     1.007825032230

  Basis Set: AUG-CC-PVTZ
    Blend: AUG-CC-PVTZ
  Basis Set: (AUG-CC-PVTZ AUX)
    Blend: AUG-CC-PVTZ-JKFIT
	 Reference Energy          =    -323.9757011256109536 [Eh]
	 Singles Energy            =      -0.0000000000000000 [Eh]
	 Same-Spin Energy          =      -0.3356868624550629 [Eh]
	 Opposite-Spin Energy      =      -1.0913128027379406 [Eh]
	 Correlation Energy        =      -1.4269996651930035 [Eh]
	 Total Energy              =    -325.4027007908039764 [Eh]

	 ================> DF-SCS-MP2 Energies <==================
	-----------------------------------------------------------
	 SCS Same-Spin Scale       =       0.3333333333333333 [-]
	 SCS Opposite-Spin Scale   =       1.2000000000000000 [-]
	 SCS Same-Spin Energy      =      -0.1118956208183543 [Eh]
	 SCS Opposite-Spin Energy  =      -1.3095753632855287 [Eh]
	 SCS Correlation Energy    =      -1.4214709841038831 [Eh]
	 SCS Total Energy          =    -325.3971721097148588 [Eh]
	-----------------------------------------------------------

  Dipole Moment: [D]
     X:     1.2226      Y:    -4.1375      Z:     0.0000     Total:     4.3144

*** Psi4 exiting successfully. Buy a developer a beer!
