                               Psi4 1.3.2 release

  ==> Input File <==

--------------------------------------------------------------------------
#psi4
#
memory 32 gb

molecule  {
0 1
  O        0.3298930     1.3563610     0.0000010
  N        1.4348200    -0.6488910    -0.0000020
  C       -0.9749590    -0.6428430     0.0000000
  C       -2.1867985    -0.0948459     0.7183682
  C       -2.1282420    -0.0114760    -0.7458050
  C        0.3065510     0.1203640     0.0000000
  C        2.7647980    -0.0711410     0.0000010
  H       -0.9168040    -1.7286440    -0.0000010
  H       -1.9064930     0.9268970     1.2416810
  H       -2.8082510    -0.6753610     1.2689740
  H       -2.8082510    -0.6753540    -1.2689790
  H       -1.9064880     0.9269020    -1.2416750
  H        1.3354930    -1.6544500     0.0000010
  H        3.3241450    -0.3701690    -0.8913010
  H        3.3241380    -0.3701570     0.8913110
  H        2.6401830     1.0111360    -0.0000070
units angstrom
no_reorient  #important for SAPT in psi4, default
symmetry c1  #important for SAPT in psi4, default
}

set PROPERTIES_ORIGIN ["COM"]
properties('MP2/aug-cc-pvtz', properties = ['dipole'])
--------------------------------------------------------------------------

    Molecular point group: c1
  Charge       = 0
  Multiplicity = 1
  Basis Set: AUG-CC-PVTZ
    Blend: AUG-CC-PVTZ
  Basis Set: (AUG-CC-PVTZ AUX)
    Blend: AUG-CC-PVTZ-JKFIT

    Orbital Energies [Eh]
    ---------------------

    Doubly Occupied:

       1A    -20.508662     2A    -15.586518     3A    -11.348753
       4A    -11.257024     5A    -11.243728     6A    -11.235670
       7A    -11.234640     8A     -1.366654     9A     -1.225876
      10A     -1.155219    11A     -0.968998    12A     -0.861804
      13A     -0.828496    14A     -0.777559    15A     -0.711634
      16A     -0.673759    17A     -0.627200    18A     -0.620825
      19A     -0.606573    20A     -0.546151    21A     -0.544215
      22A     -0.542544    23A     -0.500447    24A     -0.445380
      25A     -0.420608    26A     -0.414934    27A     -0.388883

  @DF-RHF Final Energy:  -323.98290619950461

   => Energetics <=

    Nuclear Repulsion Energy =            302.7386647507957491
    One-Electron Energy =               -1040.1576354084293143
    Two-Electron Energy =                 413.4360644581288966
    Total Energy =                       -323.9829061995046118
  Basis Set: (AUG-CC-PVTZ AUX)
    Blend: AUG-CC-PVTZ-RI
    Molecular point group: c1

    Geometry (in Angstrom), charge = 0, multiplicity = 1:

       Center              X                  Y                   Z               Mass
    ------------   -----------------  -----------------  -----------------  -----------------
         O            0.339739328991     1.340417575068     0.003324335531    15.994914619570
         N            1.444666328991    -0.664834424932     0.003321335531    14.003074004430
         C           -0.965112671009    -0.658786424932     0.003323335531    12.000000000000
         C           -2.176952171009    -0.110789324932     0.721691535531    12.000000000000
         C           -2.118395671009    -0.027419424932    -0.742481664469    12.000000000000
         C            0.316397328991     0.104420575068     0.003323335531    12.000000000000
         C            2.774644328991    -0.087084424932     0.003324335531    12.000000000000
         H           -0.906957671009    -1.744587424932     0.003322335531     1.007825032230
         H           -1.896646671009     0.910953575068     1.245004335531     1.007825032230
         H           -2.798404671009    -0.691304424932     1.272297335531     1.007825032230
         H           -2.798404671009    -0.691297424932    -1.265655664469     1.007825032230
         H           -1.896641671009     0.910958575068    -1.238351664469     1.007825032230
         H            1.345339328991    -1.670393424932     0.003324335531     1.007825032230
         H            3.333991328991    -0.386112424932    -0.887977664469     1.007825032230
         H            3.333984328991    -0.386100424932     0.894634335531     1.007825032230
         H            2.650029328991     0.995192575068     0.003316335531     1.007825032230

  Basis Set: AUG-CC-PVTZ
    Blend: AUG-CC-PVTZ
  Basis Set: (AUG-CC-PVTZ AUX)
    Blend: AUG-CC-PVTZ-JKFIT
	 Reference Energy          =    -323.9829061995046118 [Eh]
	 Singles Energy            =      -0.0000000000000000 [Eh]
	 Same-Spin Energy          =      -0.3349733464513022 [Eh]
	 Opposite-Spin Energy      =      -1.0897825482717196 [Eh]
	 Correlation Energy        =      -1.4247558947230217 [Eh]
	 Total Energy              =    -325.4076620942276463 [Eh]

	 ================> DF-SCS-MP2 Energies <==================
	-----------------------------------------------------------
	 SCS Same-Spin Scale       =       0.3333333333333333 [-]
	 SCS Opposite-Spin Scale   =       1.2000000000000000 [-]
	 SCS Same-Spin Energy      =      -0.1116577821504341 [Eh]
	 SCS Opposite-Spin Energy  =      -1.3077390579260635 [Eh]
	 SCS Correlation Energy    =      -1.4193968400764976 [Eh]
	 SCS Total Energy          =    -325.4023030395811134 [Eh]
	-----------------------------------------------------------

  Dipole Moment: [D]
     X:     0.6422      Y:    -3.5219      Z:    -0.0006     Total:     3.5800

*** Psi4 exiting successfully. Buy a developer a beer!
