                               Psi4 1.3.2 release

  ==> Input File <==

--------------------------------------------------------------------------
#psi4
#
memory 32 gb

molecule  {
0 1
  O        0.3298930     1.3563610     0.0000010
  N        1.3784111    -0.7257212    -0.0000021
  C       -0.9749590    -0.6428430     0.0000000
  C       -2.1282420    -0.0114780     0.7458050
  C       -2.1282420    -0.0114760    -0.7458050
  C        0.3065510     0.1203640     0.0000000
  C        2.7647980    -0.0711410     0.0000010
  H       -0.9168040    -1.7286440    -0.0000010
  H       -1.9064930     0.9268970     1.2416810
  H       -2.8082510    -0.6753610     1.2689740
  H       -2.8082510    -0.6753540    -1.2689790
  H       -1.9064880     0.9269020    -1.2416750
  H        1.3354930    -1.6544500     0.0000010
  H        3.3241450    -0.3701690    -0.8913010
  H        3.3241380    -0.3701570     0.8913110
  H        2.6401830     1.0111360    -0.0000070
units angstrom
no_reorient  #important for SAPT in psi4, default
symmetry c1  #important for SAPT in psi4, default
}

set PROPERTIES_ORIGIN ["COM"]
properties('MP2/aug-cc-pvtz', properties = ['dipole'])
--------------------------------------------------------------------------

    Molecular point group: c1
  Charge       = 0
  Multiplicity = 1
  Basis Set: AUG-CC-PVTZ
    Blend: AUG-CC-PVTZ
  Basis Set: (AUG-CC-PVTZ AUX)
    Blend: AUG-CC-PVTZ-JKFIT

    Orbital Energies [Eh]
    ---------------------

    Doubly Occupied:

       1A    -20.512291     2A    -15.582804     3A    -11.349481
       4A    -11.263815     5A    -11.239815     6A    -11.232121
       7A    -11.231421     8A     -1.366212     9A     -1.226244
      10A     -1.147758    11A     -0.961216    12A     -0.867990
      13A     -0.824490    14A     -0.795984    15A     -0.714254
      16A     -0.656881    17A     -0.626074    18A     -0.613496
      19A     -0.589638    20A     -0.557704    21A     -0.546524
      22A     -0.540800    23A     -0.511969    24A     -0.440537
      25A     -0.417894    26A     -0.413995    27A     -0.396676

  @DF-RHF Final Energy:  -323.98387384958221

   => Energetics <=

    Nuclear Repulsion Energy =            302.5252837999472604
    One-Electron Energy =               -1039.7621513341057380
    Two-Electron Energy =                 413.2529936845762677
    Total Energy =                       -323.9838738495822099
  Basis Set: (AUG-CC-PVTZ AUX)
    Blend: AUG-CC-PVTZ-RI
    Molecular point group: c1

    Geometry (in Angstrom), charge = 0, multiplicity = 1:

       Center              X                  Y                   Z               Mass
    ------------   -----------------  -----------------  -----------------  -----------------
         O            0.340619730703     1.341179111196     0.000000973556    15.994914619570
         N            1.389137830703    -0.740903088804    -0.000002126444    14.003074004430
         C           -0.964232269297    -0.658024888804    -0.000000026444    12.000000000000
         C           -2.117515269297    -0.026659888804     0.745804973556    12.000000000000
         C           -2.117515269297    -0.026657888804    -0.745805026444    12.000000000000
         C            0.317277730703     0.105182111196    -0.000000026444    12.000000000000
         C            2.775524730703    -0.086322888804     0.000000973556    12.000000000000
         H           -0.906077269297    -1.743825888804    -0.000001026444     1.007825032230
         H           -1.895766269297     0.911715111196     1.241680973556     1.007825032230
         H           -2.797524269297    -0.690542888804     1.268973973556     1.007825032230
         H           -2.797524269297    -0.690535888804    -1.268979026444     1.007825032230
         H           -1.895761269297     0.911720111196    -1.241675026444     1.007825032230
         H            1.346219730703    -1.669631888804     0.000000973556     1.007825032230
         H            3.334871730703    -0.385350888804    -0.891301026444     1.007825032230
         H            3.334864730703    -0.385338888804     0.891310973556     1.007825032230
         H            2.650909730703     0.995954111196    -0.000007026444     1.007825032230

  Basis Set: AUG-CC-PVTZ
    Blend: AUG-CC-PVTZ
  Basis Set: (AUG-CC-PVTZ AUX)
    Blend: AUG-CC-PVTZ-JKFIT
	 Reference Energy          =    -323.9838738495822099 [Eh]
	 Singles Energy            =      -0.0000000000000000 [Eh]
	 Same-Spin Energy          =      -0.3342088749933583 [Eh]
	 Opposite-Spin Energy      =      -1.0892781034334456 [Eh]
	 Correlation Energy        =      -1.4234869784268038 [Eh]
	 Total Energy              =    -325.4073608280090184 [Eh]

	 ================> DF-SCS-MP2 Energies <==================
	-----------------------------------------------------------
	 SCS Same-Spin Scale       =       0.3333333333333333 [-]
	 SCS Opposite-Spin Scale   =       1.2000000000000000 [-]
	 SCS Same-Spin Energy      =      -0.1114029583311194 [Eh]
	 SCS Opposite-Spin Energy  =      -1.3071337241201346 [Eh]
	 SCS Correlation Energy    =      -1.4185366824512540 [Eh]
	 SCS Total Energy          =    -325.4024105320334570 [Eh]
	-----------------------------------------------------------

  Dipole Moment: [D]
     X:     0.8539      Y:    -3.3891      Z:     0.0000     Total:     3.4950

*** Psi4 exiting successfully. Buy a developer a beer!
