                               Psi4 1.3.2 release

  ==> Input File <==

--------------------------------------------------------------------------
#psi4
#
memory 32 gb

molecule  {
0 1
  O        0.3298930     1.3563610     0.0000010
  N        1.4348200    -0.6488910    -0.0000020
  C       -0.9749590    -0.6428430     0.0000000
  C       -2.1282420    -0.0114780     0.7458050
  C       -2.1282420    -0.0114760    -0.7458050
  C        0.2206336     0.0691956     0.0000000
  C        2.7647980    -0.0711410     0.0000010
  H       -0.9168040    -1.7286440    -0.0000010
  H       -1.9064930     0.9268970     1.2416810
  H       -2.8082510    -0.6753610     1.2689740
  H       -2.8082510    -0.6753540    -1.2689790
  H       -1.9064880     0.9269020    -1.2416750
  H        1.3354930    -1.6544500     0.0000010
  H        3.3241450    -0.3701690    -0.8913010
  H        3.3241380    -0.3701570     0.8913110
  H        2.6401830     1.0111360    -0.0000070
units angstrom
no_reorient  #important for SAPT in psi4, default
symmetry c1  #important for SAPT in psi4, default
}

set PROPERTIES_ORIGIN ["COM"]
properties('MP2/aug-cc-pvtz', properties = ['dipole'])
--------------------------------------------------------------------------

    Molecular point group: c1
  Charge       = 0
  Multiplicity = 1
  Basis Set: AUG-CC-PVTZ
    Blend: AUG-CC-PVTZ
  Basis Set: (AUG-CC-PVTZ AUX)
    Blend: AUG-CC-PVTZ-JKFIT

    Orbital Energies [Eh]
    ---------------------

    Doubly Occupied:

       1A    -20.500822     2A    -15.582195     3A    -11.352398
       4A    -11.253541     5A    -11.247824     6A    -11.244913
       7A    -11.244254     8A     -1.334514     9A     -1.204112
      10A     -1.165880    11A     -0.974328    12A     -0.880950
      13A     -0.835913    14A     -0.759124    15A     -0.724949
      16A     -0.669607    17A     -0.611628    18A     -0.610842
      19A     -0.608890    20A     -0.551147    21A     -0.543331
      22A     -0.530221    23A     -0.515231    24A     -0.445754
      25A     -0.420609    26A     -0.418407    27A     -0.377994

  @DF-RHF Final Energy:  -323.97593936788331

   => Energetics <=

    Nuclear Repulsion Energy =            302.8644576539542754
    One-Electron Energy =               -1040.4620342866289775
    Two-Electron Energy =                 413.6216372647913317
    Total Energy =                       -323.9759393678833135
  Basis Set: (AUG-CC-PVTZ AUX)
    Blend: AUG-CC-PVTZ-RI
    Molecular point group: c1

    Geometry (in Angstrom), charge = 0, multiplicity = 1:

       Center              X                  Y                   Z               Mass
    ------------   -----------------  -----------------  -----------------  -----------------
         O            0.343053511454     1.336517300654     0.000000959421    15.994914619570
         N            1.447980511454    -0.668734699346    -0.000002040579    14.003074004430
         C           -0.961798488546    -0.662686699346    -0.000000040579    12.000000000000
         C           -2.115081488546    -0.031321699346     0.745804959421    12.000000000000
         C           -2.115081488546    -0.031319699346    -0.745805040579    12.000000000000
         C            0.233794111454     0.049351900654    -0.000000040579    12.000000000000
         C            2.777958511454    -0.090984699346     0.000000959421    12.000000000000
         H           -0.903643488546    -1.748487699346    -0.000001040579     1.007825032230
         H           -1.893332488546     0.907053300654     1.241680959421     1.007825032230
         H           -2.795090488546    -0.695204699346     1.268973959421     1.007825032230
         H           -2.795090488546    -0.695197699346    -1.268979040579     1.007825032230
         H           -1.893327488546     0.907058300654    -1.241675040579     1.007825032230
         H            1.348653511454    -1.674293699346     0.000000959421     1.007825032230
         H            3.337305511454    -0.390012699346    -0.891301040579     1.007825032230
         H            3.337298511454    -0.390000699346     0.891310959421     1.007825032230
         H            2.653343511454     0.991292300654    -0.000007040579     1.007825032230

  Basis Set: AUG-CC-PVTZ
    Blend: AUG-CC-PVTZ
  Basis Set: (AUG-CC-PVTZ AUX)
    Blend: AUG-CC-PVTZ-JKFIT
	 Reference Energy          =    -323.9759393678833135 [Eh]
	 Singles Energy            =      -0.0000000000000000 [Eh]
	 Same-Spin Energy          =      -0.3369128372341301 [Eh]
	 Opposite-Spin Energy      =      -1.0933228209928623 [Eh]
	 Correlation Energy        =      -1.4302356582269924 [Eh]
	 Total Energy              =    -325.4061750261103043 [Eh]

	 ================> DF-SCS-MP2 Energies <==================
	-----------------------------------------------------------
	 SCS Same-Spin Scale       =       0.3333333333333333 [-]
	 SCS Opposite-Spin Scale   =       1.2000000000000000 [-]
	 SCS Same-Spin Energy      =      -0.1123042790780434 [Eh]
	 SCS Opposite-Spin Energy  =      -1.3119873851914348 [Eh]
	 SCS Correlation Energy    =      -1.4242916642694781 [Eh]
	 SCS Total Energy          =    -325.4002310321528171 [Eh]
	-----------------------------------------------------------

  Dipole Moment: [D]
     X:    -0.0098      Y:    -3.6734      Z:     0.0000     Total:     3.6734

*** Psi4 exiting successfully. Buy a developer a beer!
