                               Psi4 1.3.2 release

  ==> Input File <==

--------------------------------------------------------------------------
#psi4
#
memory 32 gb

molecule  {
0 1
  O        0.3298930     1.3563610     0.0000010
  N        1.4348200    -0.6488910    -0.0000020
  C       -0.9749590    -0.6428430     0.0000000
  C       -2.0640669     0.0688140     0.7696083
  C       -2.1282420    -0.0114760    -0.7458050
  C        0.3065510     0.1203640     0.0000000
  C        2.7647980    -0.0711410     0.0000010
  H       -0.9168040    -1.7286440    -0.0000010
  H       -1.9064930     0.9268970     1.2416810
  H       -2.8082510    -0.6753610     1.2689740
  H       -2.8082510    -0.6753540    -1.2689790
  H       -1.9064880     0.9269020    -1.2416750
  H        1.3354930    -1.6544500     0.0000010
  H        3.3241450    -0.3701690    -0.8913010
  H        3.3241380    -0.3701570     0.8913110
  H        2.6401830     1.0111360    -0.0000070
units angstrom
no_reorient  #important for SAPT in psi4, default
symmetry c1  #important for SAPT in psi4, default
}

set PROPERTIES_ORIGIN ["COM"]
properties('MP2/aug-cc-pvtz', properties = ['dipole'])
--------------------------------------------------------------------------

    Molecular point group: c1
  Charge       = 0
  Multiplicity = 1
  Basis Set: AUG-CC-PVTZ
    Blend: AUG-CC-PVTZ
  Basis Set: (AUG-CC-PVTZ AUX)
    Blend: AUG-CC-PVTZ-JKFIT

    Orbital Energies [Eh]
    ---------------------

    Doubly Occupied:

       1A    -20.507770     2A    -15.586396     3A    -11.347321
       4A    -11.256828     5A    -11.246774     6A    -11.235944
       7A    -11.235302     8A     -1.366855     9A     -1.225825
      10A     -1.147677    11A     -0.967564    12A     -0.859152
      13A     -0.833340    14A     -0.777582    15A     -0.719609
      16A     -0.661935    17A     -0.621721    18A     -0.619270
      19A     -0.612292    20A     -0.548273    21A     -0.543284
      22A     -0.539842    23A     -0.517920    24A     -0.436285
      25A     -0.421109    26A     -0.413370    27A     -0.389882

  @DF-RHF Final Energy:  -323.98205543336115

   => Energetics <=

    Nuclear Repulsion Energy =            303.3877913616989304
    One-Electron Energy =               -1041.4614512719276718
    Two-Electron Energy =                 414.0916044768676443
    Total Energy =                       -323.9820554333611540
  Basis Set: (AUG-CC-PVTZ AUX)
    Blend: AUG-CC-PVTZ-RI
    Molecular point group: c1

    Geometry (in Angstrom), charge = 0, multiplicity = 1:

       Center              X                  Y                   Z               Mass
    ------------   -----------------  -----------------  -----------------  -----------------
         O            0.324873044756     1.320593710706    -0.002882296591    15.994914619570
         N            1.429800044756    -0.684658289294    -0.002885296591    14.003074004430
         C           -0.979978955244    -0.678610289294    -0.002883296591    12.000000000000
         C           -2.069086855244     0.033046710706     0.766725003409    12.000000000000
         C           -2.133261955244    -0.047243289294    -0.748688296591    12.000000000000
         C            0.301531044756     0.084596710706    -0.002883296591    12.000000000000
         C            2.759778044756    -0.106908289294    -0.002882296591    12.000000000000
         H           -0.921823955244    -1.764411289294    -0.002884296591     1.007825032230
         H           -1.911512955244     0.891129710706     1.238797703409     1.007825032230
         H           -2.813270955244    -0.711128289294     1.266090703409     1.007825032230
         H           -2.813270955244    -0.711121289294    -1.271862296591     1.007825032230
         H           -1.911507955244     0.891134710706    -1.244558296591     1.007825032230
         H            1.330473044756    -1.690217289294    -0.002882296591     1.007825032230
         H            3.319125044756    -0.405936289294    -0.894184296591     1.007825032230
         H            3.319118044756    -0.405924289294     0.888427703409     1.007825032230
         H            2.635163044756     0.975368710706    -0.002890296591     1.007825032230

  Basis Set: AUG-CC-PVTZ
    Blend: AUG-CC-PVTZ
  Basis Set: (AUG-CC-PVTZ AUX)
    Blend: AUG-CC-PVTZ-JKFIT
	 Reference Energy          =    -323.9820554333611540 [Eh]
	 Singles Energy            =      -0.0000000000000000 [Eh]
	 Same-Spin Energy          =      -0.3347047532434867 [Eh]
	 Opposite-Spin Energy      =      -1.0898541293513224 [Eh]
	 Correlation Energy        =      -1.4245588825948090 [Eh]
	 Total Energy              =    -325.4066143159559488 [Eh]

	 ================> DF-SCS-MP2 Energies <==================
	-----------------------------------------------------------
	 SCS Same-Spin Scale       =       0.3333333333333333 [-]
	 SCS Opposite-Spin Scale   =       1.2000000000000000 [-]
	 SCS Same-Spin Energy      =      -0.1115682510811622 [Eh]
	 SCS Opposite-Spin Energy  =      -1.3078249552215868 [Eh]
	 SCS Correlation Energy    =      -1.4193932063027490 [Eh]
	 SCS Total Energy          =    -325.4014486396638972 [Eh]
	-----------------------------------------------------------

  Dipole Moment: [D]
     X:     0.6976      Y:    -3.4988      Z:    -0.0460     Total:     3.5679

*** Psi4 exiting successfully. Buy a developer a beer!
