                               Psi4 1.3.2 release

  ==> Input File <==

--------------------------------------------------------------------------
#psi4
#
memory 32 gb

molecule  {
0 1
  O        0.2005683     1.3520300     0.0000011
  N        1.4348200    -0.6488910    -0.0000020
  C       -0.9749590    -0.6428430     0.0000000
  C       -2.1282420    -0.0114780     0.7458050
  C       -2.1282420    -0.0114760    -0.7458050
  C        0.3065510     0.1203640     0.0000000
  C        2.7647980    -0.0711410     0.0000010
  H       -0.9168040    -1.7286440    -0.0000010
  H       -1.9064930     0.9268970     1.2416810
  H       -2.8082510    -0.6753610     1.2689740
  H       -2.8082510    -0.6753540    -1.2689790
  H       -1.9064880     0.9269020    -1.2416750
  H        1.3354930    -1.6544500     0.0000010
  H        3.3241450    -0.3701690    -0.8913010
  H        3.3241380    -0.3701570     0.8913110
  H        2.6401830     1.0111360    -0.0000070
units angstrom
no_reorient  #important for SAPT in psi4, default
symmetry c1  #important for SAPT in psi4, default
}

set PROPERTIES_ORIGIN ["COM"]
properties('MP2/aug-cc-pvtz', properties = ['dipole'])
--------------------------------------------------------------------------

    Molecular point group: c1
  Charge       = 0
  Multiplicity = 1
  Basis Set: AUG-CC-PVTZ
    Blend: AUG-CC-PVTZ
  Basis Set: (AUG-CC-PVTZ AUX)
    Blend: AUG-CC-PVTZ-JKFIT

    Orbital Energies [Eh]
    ---------------------

    Doubly Occupied:

       1A    -20.509255     2A    -15.592700     3A    -11.348398
       4A    -11.261963     5A    -11.237965     6A    -11.229847
       7A    -11.229144     8A     -1.366408     9A     -1.233610
      10A     -1.144802    11A     -0.970556    12A     -0.857965
      13A     -0.822295    14A     -0.781141    15A     -0.712084
      16A     -0.663239    17A     -0.625882    18A     -0.624182
      19A     -0.606723    20A     -0.549840    21A     -0.546756
      22A     -0.540334    23A     -0.508251    24A     -0.436248
      25A     -0.415250    26A     -0.414687    27A     -0.394558

  @DF-RHF Final Energy:  -323.99202822320581

   => Energetics <=

    Nuclear Repulsion Energy =            303.4144021994031846
    One-Electron Energy =               -1041.5646980193450872
    Two-Electron Energy =                 414.1582675967360956
    Total Energy =                       -323.9920282232058071
  Basis Set: (AUG-CC-PVTZ AUX)
    Blend: AUG-CC-PVTZ-RI
    Molecular point group: c1

    Geometry (in Angstrom), charge = 0, multiplicity = 1:

       Center              X                  Y                   Z               Mass
    ------------   -----------------  -----------------  -----------------  -----------------
         O            0.224201662423     1.326687607344     0.000001043276    15.994914619570
         N            1.458453362423    -0.674233392656    -0.000002056724    14.003074004430
         C           -0.951325637577    -0.668185392656    -0.000000056724    12.000000000000
         C           -2.104608637577    -0.036820392656     0.745804943276    12.000000000000
         C           -2.104608637577    -0.036818392656    -0.745805056724    12.000000000000
         C            0.330184362423     0.095021607344    -0.000000056724    12.000000000000
         C            2.788431362423    -0.096483392656     0.000000943276    12.000000000000
         H           -0.893170637577    -1.753986392656    -0.000001056724     1.007825032230
         H           -1.882859637577     0.901554607344     1.241680943276     1.007825032230
         H           -2.784617637577    -0.700703392656     1.268973943276     1.007825032230
         H           -2.784617637577    -0.700696392656    -1.268979056724     1.007825032230
         H           -1.882854637577     0.901559607344    -1.241675056724     1.007825032230
         H            1.359126362423    -1.679792392656     0.000000943276     1.007825032230
         H            3.347778362423    -0.395511392656    -0.891301056724     1.007825032230
         H            3.347771362423    -0.395499392656     0.891310943276     1.007825032230
         H            2.663816362423     0.985793607344    -0.000007056724     1.007825032230

  Basis Set: AUG-CC-PVTZ
    Blend: AUG-CC-PVTZ
  Basis Set: (AUG-CC-PVTZ AUX)
    Blend: AUG-CC-PVTZ-JKFIT
	 Reference Energy          =    -323.9920282232058071 [Eh]
	 Singles Energy            =      -0.0000000000000000 [Eh]
	 Same-Spin Energy          =      -0.3348228074199474 [Eh]
	 Opposite-Spin Energy      =      -1.0895839837570429 [Eh]
	 Correlation Energy        =      -1.4244067911769904 [Eh]
	 Total Energy              =    -325.4164350143827846 [Eh]

	 ================> DF-SCS-MP2 Energies <==================
	-----------------------------------------------------------
	 SCS Same-Spin Scale       =       0.3333333333333333 [-]
	 SCS Opposite-Spin Scale   =       1.2000000000000000 [-]
	 SCS Same-Spin Energy      =      -0.1116076024733158 [Eh]
	 SCS Opposite-Spin Energy  =      -1.3075007805084515 [Eh]
	 SCS Correlation Energy    =      -1.4191083829817672 [Eh]
	 SCS Total Energy          =    -325.4111366061875970 [Eh]
	-----------------------------------------------------------

  Dipole Moment: [D]
     X:     1.1098      Y:    -3.4594      Z:     0.0000     Total:     3.6331

*** Psi4 exiting successfully. Buy a developer a beer!
