                               Psi4 1.3.2 release

  ==> Input File <==

--------------------------------------------------------------------------
#psi4
#
memory 32 gb

molecule  {
0 1
  O        0.3298930     1.3563610     0.0000010
  N        1.4348200    -0.6488910    -0.0000020
  C       -0.9749590    -0.6428430     0.0000000
  C       -2.1282420    -0.0114780     0.7458050
  C       -2.1282420    -0.0114760    -0.7458050
  C        0.2930360     0.1426132     0.0000000
  C        2.7647980    -0.0711410     0.0000010
  H       -0.9168040    -1.7286440    -0.0000010
  H       -1.9064930     0.9268970     1.2416810
  H       -2.8082510    -0.6753610     1.2689740
  H       -2.8082510    -0.6753540    -1.2689790
  H       -1.9064880     0.9269020    -1.2416750
  H        1.3354930    -1.6544500     0.0000010
  H        3.3241450    -0.3701690    -0.8913010
  H        3.3241380    -0.3701570     0.8913110
  H        2.6401830     1.0111360    -0.0000070
units angstrom
no_reorient  #important for SAPT in psi4, default
symmetry c1  #important for SAPT in psi4, default
}

set PROPERTIES_ORIGIN ["COM"]
properties('MP2/aug-cc-pvtz', properties = ['dipole'])
--------------------------------------------------------------------------

    Molecular point group: c1
  Charge       = 0
  Multiplicity = 1
  Basis Set: AUG-CC-PVTZ
    Blend: AUG-CC-PVTZ
  Basis Set: (AUG-CC-PVTZ AUX)
    Blend: AUG-CC-PVTZ-JKFIT

    Orbital Energies [Eh]
    ---------------------

    Doubly Occupied:

       1A    -20.513758     2A    -15.580869     3A    -11.348262
       4A    -11.254039     5A    -11.244506     6A    -11.235262
       7A    -11.234556     8A     -1.380609     9A     -1.219070
      10A     -1.152284    11A     -0.962811    12A     -0.858626
      13A     -0.827576    14A     -0.771494    15A     -0.718491
      16A     -0.662140    17A     -0.630404    18A     -0.617670
      19A     -0.604416    20A     -0.551919    21A     -0.548611
      22A     -0.540114    23A     -0.513987    24A     -0.444017
      25A     -0.421987    26A     -0.418124    27A     -0.387428

  @DF-RHF Final Energy:  -323.99619997054981

   => Energetics <=

    Nuclear Repulsion Energy =            303.1207740635999812
    One-Electron Energy =               -1040.9478871174044343
    Two-Electron Energy =                 413.8309130832545861
    Total Energy =                       -323.9961999705498101
  Basis Set: (AUG-CC-PVTZ AUX)
    Blend: AUG-CC-PVTZ-RI
    Molecular point group: c1

    Geometry (in Angstrom), charge = 0, multiplicity = 1:

       Center              X                  Y                   Z               Mass
    ------------   -----------------  -----------------  -----------------  -----------------
         O            0.334283523466     1.327624343099     0.000000959421    15.994914619570
         N            1.439210523466    -0.677627656901    -0.000002040579    14.003074004430
         C           -0.970568476534    -0.671579656901    -0.000000040579    12.000000000000
         C           -2.123851476534    -0.040214656901     0.745804959421    12.000000000000
         C           -2.123851476534    -0.040212656901    -0.745805040579    12.000000000000
         C            0.297426523466     0.113876543099    -0.000000040579    12.000000000000
         C            2.769188523466    -0.099877656901     0.000000959421    12.000000000000
         H           -0.912413476534    -1.757380656901    -0.000001040579     1.007825032230
         H           -1.902102476534     0.898160343099     1.241680959421     1.007825032230
         H           -2.803860476534    -0.704097656901     1.268973959421     1.007825032230
         H           -2.803860476534    -0.704090656901    -1.268979040579     1.007825032230
         H           -1.902097476534     0.898165343099    -1.241675040579     1.007825032230
         H            1.339883523466    -1.683186656901     0.000000959421     1.007825032230
         H            3.328535523466    -0.398905656901    -0.891301040579     1.007825032230
         H            3.328528523466    -0.398893656901     0.891310959421     1.007825032230
         H            2.644573523466     0.982399343099    -0.000007040579     1.007825032230

  Basis Set: AUG-CC-PVTZ
    Blend: AUG-CC-PVTZ
  Basis Set: (AUG-CC-PVTZ AUX)
    Blend: AUG-CC-PVTZ-JKFIT
	 Reference Energy          =    -323.9961999705498101 [Eh]
	 Singles Energy            =      -0.0000000000000000 [Eh]
	 Same-Spin Energy          =      -0.3343571273292872 [Eh]
	 Opposite-Spin Energy      =      -1.0885519639086740 [Eh]
	 Correlation Energy        =      -1.4229090912379614 [Eh]
	 Total Energy              =    -325.4191090617877649 [Eh]

	 ================> DF-SCS-MP2 Energies <==================
	-----------------------------------------------------------
	 SCS Same-Spin Scale       =       0.3333333333333333 [-]
	 SCS Opposite-Spin Scale   =       1.2000000000000000 [-]
	 SCS Same-Spin Energy      =      -0.1114523757764291 [Eh]
	 SCS Opposite-Spin Energy  =      -1.3062623566904088 [Eh]
	 SCS Correlation Energy    =      -1.4177147324668380 [Eh]
	 SCS Total Energy          =    -325.4139147030166441 [Eh]
	-----------------------------------------------------------

  Dipole Moment: [D]
     X:     0.4912      Y:    -3.3415      Z:     0.0000     Total:     3.3774

*** Psi4 exiting successfully. Buy a developer a beer!
