                               Psi4 1.3.2 release

  ==> Input File <==

--------------------------------------------------------------------------
#psi4
#
memory 32 gb

molecule  {
0 1
  O        0.3514606     1.3557654     0.0000010
  N        1.4348200    -0.6488910    -0.0000020
  C       -0.9749590    -0.6428430     0.0000000
  C       -2.1282420    -0.0114780     0.7458050
  C       -2.1282420    -0.0114760    -0.7458050
  C        0.3065510     0.1203640     0.0000000
  C        2.7647980    -0.0711410     0.0000010
  H       -0.9168040    -1.7286440    -0.0000010
  H       -1.9064930     0.9268970     1.2416810
  H       -2.8082510    -0.6753610     1.2689740
  H       -2.8082510    -0.6753540    -1.2689790
  H       -1.9064880     0.9269020    -1.2416750
  H        1.3354930    -1.6544500     0.0000010
  H        3.3241450    -0.3701690    -0.8913010
  H        3.3241380    -0.3701570     0.8913110
  H        2.6401830     1.0111360    -0.0000070
units angstrom
no_reorient  #important for SAPT in psi4, default
symmetry c1  #important for SAPT in psi4, default
}

set PROPERTIES_ORIGIN ["COM"]
properties('MP2/aug-cc-pvtz', properties = ['dipole'])
--------------------------------------------------------------------------

    Molecular point group: c1
  Charge       = 0
  Multiplicity = 1
  Basis Set: AUG-CC-PVTZ
    Blend: AUG-CC-PVTZ
  Basis Set: (AUG-CC-PVTZ AUX)
    Blend: AUG-CC-PVTZ-JKFIT

    Orbital Energies [Eh]
    ---------------------

    Doubly Occupied:

       1A    -20.507667     2A    -15.585105     3A    -11.347596
       4A    -11.255852     5A    -11.245371     6A    -11.235459
       7A    -11.234751     8A     -1.366589     9A     -1.224197
      10A     -1.151968    11A     -0.967618    12A     -0.859843
      13A     -0.827391    14A     -0.776312    15A     -0.716838
      16A     -0.664171    17A     -0.624126    18A     -0.619985
      19A     -0.606413    20A     -0.546751    21A     -0.544327
      22A     -0.541479    23A     -0.513447    24A     -0.441792
      25A     -0.420670    26A     -0.417446    27A     -0.388357

  @DF-RHF Final Energy:  -323.99603204536351

   => Energetics <=

    Nuclear Repulsion Energy =            302.9883609191589358
    One-Electron Energy =               -1040.7057487947047321
    Two-Electron Energy =                 413.7213558301822900
    Total Energy =                       -323.9960320453635063
  Basis Set: (AUG-CC-PVTZ AUX)
    Blend: AUG-CC-PVTZ-RI
    Molecular point group: c1

    Geometry (in Angstrom), charge = 0, multiplicity = 1:

       Center              X                  Y                   Z               Mass
    ------------   -----------------  -----------------  -----------------  -----------------
         O            0.350731914421     1.329819914979     0.000000959421    15.994914619570
         N            1.434091314421    -0.674836485021    -0.000002040579    14.003074004430
         C           -0.975687685579    -0.668788485021    -0.000000040579    12.000000000000
         C           -2.128970685579    -0.037423485021     0.745804959421    12.000000000000
         C           -2.128970685579    -0.037421485021    -0.745805040579    12.000000000000
         C            0.305822314421     0.094418514979    -0.000000040579    12.000000000000
         C            2.764069314421    -0.097086485021     0.000000959421    12.000000000000
         H           -0.917532685579    -1.754589485021    -0.000001040579     1.007825032230
         H           -1.907221685579     0.900951514979     1.241680959421     1.007825032230
         H           -2.808979685579    -0.701306485021     1.268973959421     1.007825032230
         H           -2.808979685579    -0.701299485021    -1.268979040579     1.007825032230
         H           -1.907216685579     0.900956514979    -1.241675040579     1.007825032230
         H            1.334764314421    -1.680395485021     0.000000959421     1.007825032230
         H            3.323416314421    -0.396114485021    -0.891301040579     1.007825032230
         H            3.323409314421    -0.396102485021     0.891310959421     1.007825032230
         H            2.639454314421     0.985190514979    -0.000007040579     1.007825032230

  Basis Set: AUG-CC-PVTZ
    Blend: AUG-CC-PVTZ
  Basis Set: (AUG-CC-PVTZ AUX)
    Blend: AUG-CC-PVTZ-JKFIT
	 Reference Energy          =    -323.9960320453635063 [Eh]
	 Singles Energy            =      -0.0000000000000000 [Eh]
	 Same-Spin Energy          =      -0.3346329316163061 [Eh]
	 Opposite-Spin Energy      =      -1.0890732886492209 [Eh]
	 Correlation Energy        =      -1.4237062202655271 [Eh]
	 Total Energy              =    -325.4197382656290074 [Eh]

	 ================> DF-SCS-MP2 Energies <==================
	-----------------------------------------------------------
	 SCS Same-Spin Scale       =       0.3333333333333333 [-]
	 SCS Opposite-Spin Scale   =       1.2000000000000000 [-]
	 SCS Same-Spin Energy      =      -0.1115443105387687 [Eh]
	 SCS Opposite-Spin Energy  =      -1.3068879463790650 [Eh]
	 SCS Correlation Energy    =      -1.4184322569178338 [Eh]
	 SCS Total Energy          =    -325.4144643022813170 [Eh]
	-----------------------------------------------------------

  Dipole Moment: [D]
     X:     0.5745      Y:    -3.5069      Z:     0.0000     Total:     3.5536

*** Psi4 exiting successfully. Buy a developer a beer!
