                               Psi4 1.3.2 release

  ==> Input File <==

--------------------------------------------------------------------------
#psi4
#
memory 32 gb

molecule  {
0 1
  O       -2.3042200    -1.0991630    -0.0003290
  O       -2.3377670     1.1635920     0.0000360
  C       -0.2184710     0.0274960    -0.0000150
  C        0.5493711     1.1982969    -0.0001527
  C        0.4461120    -1.2054740     0.0002260
  C        1.9006900     1.1869520    -0.0000810
  C        1.8404380    -1.2322990     0.0003120
  C        2.5692530    -0.0403490     0.0001580
  C       -1.7002410     0.1214410    -0.0000850
  H       -0.0326500     2.1666470    -0.0003250
  H       -0.1251480    -2.1283920     0.0003360
  H        2.4665660     2.1152060    -0.0002030
  H        2.3606420    -2.1869500     0.0005070
  H        3.6563130    -0.0679050     0.0002230
  H       -3.2647750    -0.9069250    -0.0003290
units angstrom
no_reorient  #important for SAPT in psi4, default
symmetry c1  #important for SAPT in psi4, default
}

set PROPERTIES_ORIGIN ["COM"]
properties('MP2/aug-cc-pvtz', properties = ['dipole'])
--------------------------------------------------------------------------

    Molecular point group: c1
  Charge       = 0
  Multiplicity = 1
  Basis Set: AUG-CC-PVTZ
    Blend: AUG-CC-PVTZ
  Basis Set: (AUG-CC-PVTZ AUX)
    Blend: AUG-CC-PVTZ-JKFIT

    Orbital Energies [Eh]
    ---------------------

    Doubly Occupied:

       1A    -20.617725     2A    -20.550282     3A    -11.395622
       4A    -11.259916     5A    -11.259560     6A    -11.258087
       7A    -11.253637     8A    -11.249267     9A    -11.244076
      10A     -1.461391    11A     -1.356363    12A     -1.174664
      13A     -1.050926    14A     -1.034667    15A     -0.900901
      16A     -0.842523    17A     -0.802889    18A     -0.731140
      19A     -0.705355    20A     -0.673981    21A     -0.639532
      22A     -0.633072    23A     -0.631223    24A     -0.600006
      25A     -0.587770    26A     -0.532039    27A     -0.522294
      28A     -0.499532    29A     -0.484865    30A     -0.458691
      31A     -0.357428    32A     -0.353531

  @DF-RHF Final Energy:  -418.47014512439540

   => Energetics <=

    Nuclear Repulsion Energy =            404.6997667516997694
    One-Electron Energy =               -1372.0939109354760603
    Two-Electron Energy =                 548.9239990593808898
    Total Energy =                       -418.4701451243953443
  Basis Set: (AUG-CC-PVTZ AUX)
    Blend: AUG-CC-PVTZ-RI
    Molecular point group: c1

    Geometry (in Angstrom), charge = 0, multiplicity = 1:

       Center              X                  Y                   Z               Mass
    ------------   -----------------  -----------------  -----------------  -----------------
         O           -2.267331035297    -1.104793220894    -0.000327948886    15.994914619570
         O           -2.300878035297     1.157961779106     0.000037051114    15.994914619570
         C           -0.181582035297     0.021865779106    -0.000013948886    12.000000000000
         C            0.586260064703     1.192666679106    -0.000151648886    12.000000000000
         C            0.483000964703    -1.211104220894     0.000227051114    12.000000000000
         C            1.937578964703     1.181321779106    -0.000079948886    12.000000000000
         C            1.877326964703    -1.237929220894     0.000313051114    12.000000000000
         C            2.606141964703    -0.045979220894     0.000159051114    12.000000000000
         C           -1.663352035297     0.115810779106    -0.000083948886    12.000000000000
         H            0.004238964703     2.161016779106    -0.000323948886     1.007825032230
         H           -0.088259035297    -2.134022220894     0.000337051114     1.007825032230
         H            2.503454964703     2.109575779106    -0.000201948886     1.007825032230
         H            2.397530964703    -2.192580220894     0.000508051114     1.007825032230
         H            3.693201964703    -0.073535220894     0.000224051114     1.007825032230
         H           -3.227886035297    -0.912555220894    -0.000327948886     1.007825032230

  Basis Set: AUG-CC-PVTZ
    Blend: AUG-CC-PVTZ
  Basis Set: (AUG-CC-PVTZ AUX)
    Blend: AUG-CC-PVTZ-JKFIT
	 Reference Energy          =    -418.4701451243954011 [Eh]
	 Singles Energy            =      -0.0000000000000000 [Eh]
	 Same-Spin Energy          =      -0.4348732350147270 [Eh]
	 Opposite-Spin Energy      =      -1.3152840588259640 [Eh]
	 Correlation Energy        =      -1.7501572938406911 [Eh]
	 Total Energy              =    -420.2203024182360878 [Eh]

	 ================> DF-SCS-MP2 Energies <==================
	-----------------------------------------------------------
	 SCS Same-Spin Scale       =       0.3333333333333333 [-]
	 SCS Opposite-Spin Scale   =       1.2000000000000000 [-]
	 SCS Same-Spin Energy      =      -0.1449577450049090 [Eh]
	 SCS Opposite-Spin Energy  =      -1.5783408705911568 [Eh]
	 SCS Correlation Energy    =      -1.7232986155960659 [Eh]
	 SCS Total Energy          =    -420.1934437399914941 [Eh]
	-----------------------------------------------------------

  Dipole Moment: [D]
     X:     1.4617      Y:    -1.3390      Z:    -0.0001     Total:     1.9823

*** Psi4 exiting successfully. Buy a developer a beer!
