                               Psi4 1.3.2 release

  ==> Input File <==

--------------------------------------------------------------------------
#psi4
#
memory 32 gb

molecule  {
0 1
  O       -2.3042200    -1.0991630    -0.0003290
  O       -2.3377670     1.1635920     0.0000360
  C       -0.2184710     0.0274960    -0.0000150
  C        0.5080430     1.2243810    -0.0001580
  C        0.4461120    -1.2054740     0.0002260
  C        1.9006900     1.1869520    -0.0000810
  C        1.8404380    -1.2322990     0.0003120
  C        2.5692530    -0.0403490     0.0001580
  C       -1.6580105     0.0996189    -0.0000874
  H       -0.0326500     2.1666470    -0.0003250
  H       -0.1251480    -2.1283920     0.0003360
  H        2.4665660     2.1152060    -0.0002030
  H        2.3606420    -2.1869500     0.0005070
  H        3.6563130    -0.0679050     0.0002230
  H       -3.2647750    -0.9069250    -0.0003290
units angstrom
no_reorient  #important for SAPT in psi4, default
symmetry c1  #important for SAPT in psi4, default
}

set PROPERTIES_ORIGIN ["COM"]
properties('MP2/aug-cc-pvtz', properties = ['dipole'])
--------------------------------------------------------------------------

    Molecular point group: c1
  Charge       = 0
  Multiplicity = 1
  Basis Set: AUG-CC-PVTZ
    Blend: AUG-CC-PVTZ
  Basis Set: (AUG-CC-PVTZ AUX)
    Blend: AUG-CC-PVTZ-JKFIT

    Orbital Energies [Eh]
    ---------------------

    Doubly Occupied:

       1A    -20.616257     2A    -20.541657     3A    -11.395601
       4A    -11.263575     5A    -11.263478     6A    -11.260542
       7A    -11.258515     8A    -11.252660     9A    -11.251833
      10A     -1.452212    11A     -1.330833    12A     -1.175372
      13A     -1.059176    14A     -1.034697    15A     -0.907977
      16A     -0.848848    17A     -0.803423    18A     -0.732813
      19A     -0.701302    20A     -0.676856    21A     -0.643208
      22A     -0.627029    23A     -0.625138    24A     -0.606861
      25A     -0.582174    26A     -0.529445    27A     -0.522110
      28A     -0.511395    29A     -0.471162    30A     -0.453375
      31A     -0.359575    32A     -0.353779

  @DF-RHF Final Energy:  -418.46559568106835

   => Energetics <=

    Nuclear Repulsion Energy =            404.3522361588152307
    One-Electron Energy =               -1371.4099094077084828
    Two-Electron Energy =                 548.5920775678248447
    Total Energy =                       -418.4655956810684074
  Basis Set: (AUG-CC-PVTZ AUX)
    Blend: AUG-CC-PVTZ-RI
    Molecular point group: c1

    Geometry (in Angstrom), charge = 0, multiplicity = 1:

       Center              X                  Y                   Z               Mass
    ------------   -----------------  -----------------  -----------------  -----------------
         O           -2.267419769202    -1.105212307666    -0.000327191737    15.994914619570
         O           -2.300966769202     1.157542692334     0.000037808263    15.994914619570
         C           -0.181670769202     0.021446692334    -0.000013191737    12.000000000000
         C            0.544843230798     1.218331692334    -0.000156191737    12.000000000000
         C            0.482912230798    -1.211523307666     0.000227808263    12.000000000000
         C            1.937490230798     1.180902692334    -0.000079191737    12.000000000000
         C            1.877238230798    -1.238348307666     0.000313808263    12.000000000000
         C            2.606053230798    -0.046398307666     0.000159808263    12.000000000000
         C           -1.621210269202     0.093569592334    -0.000085591737    12.000000000000
         H            0.004150230798     2.160597692334    -0.000323191737     1.007825032230
         H           -0.088347769202    -2.134441307666     0.000337808263     1.007825032230
         H            2.503366230798     2.109156692334    -0.000201191737     1.007825032230
         H            2.397442230798    -2.192999307666     0.000508808263     1.007825032230
         H            3.693113230798    -0.073954307666     0.000224808263     1.007825032230
         H           -3.227974769202    -0.912974307666    -0.000327191737     1.007825032230

  Basis Set: AUG-CC-PVTZ
    Blend: AUG-CC-PVTZ
  Basis Set: (AUG-CC-PVTZ AUX)
    Blend: AUG-CC-PVTZ-JKFIT
	 Reference Energy          =    -418.4655956810683506 [Eh]
	 Singles Energy            =      -0.0000000000000000 [Eh]
	 Same-Spin Energy          =      -0.4358607859884506 [Eh]
	 Opposite-Spin Energy      =      -1.3174218656524217 [Eh]
	 Correlation Energy        =      -1.7532826516408724 [Eh]
	 Total Energy              =    -420.2188783327092096 [Eh]

	 ================> DF-SCS-MP2 Energies <==================
	-----------------------------------------------------------
	 SCS Same-Spin Scale       =       0.3333333333333333 [-]
	 SCS Opposite-Spin Scale   =       1.2000000000000000 [-]
	 SCS Same-Spin Energy      =      -0.1452869286628168 [Eh]
	 SCS Opposite-Spin Energy  =      -1.5809062387829060 [Eh]
	 SCS Correlation Energy    =      -1.7261931674457229 [Eh]
	 SCS Total Energy          =    -420.1917888485140793 [Eh]
	-----------------------------------------------------------

  Dipole Moment: [D]
     X:     1.8362      Y:    -1.4497      Z:    -0.0001     Total:     2.3394

*** Psi4 exiting successfully. Buy a developer a beer!
