                               Psi4 1.4a3.dev225

  ==> Input File <==

--------------------------------------------------------------------------
#psi4
#
memory 32 gb

molecule  {
0 1
  O       -2.3041980    -1.0991920    -0.0000450
  O       -2.3377760     1.1635870    -0.0002980
  C       -0.2184880     0.0275040    -0.0000190
  C        0.5080600     1.2243720    -0.0001140
  C        0.4460610    -1.2054670     0.0001810
  C        1.9006990     1.1869660    -0.0000100
  C        1.8403900    -1.2323150     0.0002850
  C        2.5692320    -0.0403680     0.0001900
  C       -1.7090549     0.1035644    -0.0001347
  H       -0.0325870     2.1666660    -0.0002690
  H       -0.1251250    -2.1284350     0.0002540
  H        2.4666520     2.1151670    -0.0000840
  H        2.3606240    -2.1869430     0.0004410
  H        3.6562990    -0.0679320     0.0002710
  H       -3.2646810    -0.9067680    -0.0001340
units angstrom
no_reorient  #important for SAPT in psi4, default
symmetry c1  #important for SAPT in psi4, default
}

set PROPERTIES_ORIGIN ["COM"]
properties('MP2/aug-cc-pvtz', properties = ['dipole'])
--------------------------------------------------------------------------

    Molecular point group: c1
  Charge       = 0
  Multiplicity = 1
  Basis Set: AUG-CC-PVTZ
    Blend: AUG-CC-PVTZ
  Basis Set: (AUG-CC-PVTZ AUX)
    Blend: AUG-CC-PVTZ-JKFIT

    Orbital Energies [Eh]
    ---------------------

    Doubly Occupied:

       1A    -20.623127     2A    -20.547091     3A    -11.395352
       4A    -11.259360     5A    -11.258210     6A    -11.258003
       7A    -11.255162     8A    -11.249568     9A    -11.248782
      10A     -1.468240    11A     -1.352837    12A     -1.169713
      13A     -1.049235    14A     -1.030702    15A     -0.900707
      16A     -0.844199    17A     -0.804377    18A     -0.732073
      19A     -0.707079    20A     -0.676809    21A     -0.640034
      22A     -0.637272    23A     -0.626774    24A     -0.604082
      25A     -0.585035    26A     -0.526754    27A     -0.519391
      28A     -0.508137    29A     -0.481439    30A     -0.456681
      31A     -0.355626    32A     -0.350420

  @DF-RHF Final Energy:  -418.47229826306886

   => Energetics <=

    Nuclear Repulsion Energy =            404.1986955224476219
    One-Electron Energy =               -1371.0974414741613145
    Two-Electron Energy =                 548.4264476886447710
    Total Energy =                       -418.4722982630688648
  Basis Set: (AUG-CC-PVTZ AUX)
    Blend: AUG-CC-PVTZ-RI
    Molecular point group: c1

    Geometry (in Angstrom), charge = 0, multiplicity = 1:

       Center              X                  Y                   Z               Mass
    ------------   -----------------  -----------------  -----------------  -----------------
         O           -2.262371243282    -1.105623952572    -0.000041198625    15.994914619570
         O           -2.295949243282     1.157155047428    -0.000294198625    15.994914619570
         C           -0.176661243282     0.021072047428    -0.000015198625    12.000000000000
         C            0.549886756718     1.217940047428    -0.000110198625    12.000000000000
         C            0.487887756718    -1.211898952572     0.000184801375    12.000000000000
         C            1.942525756718     1.180534047428    -0.000006198625    12.000000000000
         C            1.882216756718    -1.238746952572     0.000288801375    12.000000000000
         C            2.611058756718    -0.046799952572     0.000193801375    12.000000000000
         C           -1.667228143282     0.097132447428    -0.000130898625    12.000000000000
         H            0.009239756718     2.160234047428    -0.000265198625     1.007825032230
         H           -0.083298243282    -2.134866952572     0.000257801375     1.007825032230
         H            2.508478756718     2.108735047428    -0.000080198625     1.007825032230
         H            2.402450756718    -2.193374952572     0.000444801375     1.007825032230
         H            3.698125756718    -0.074363952572     0.000274801375     1.007825032230
         H           -3.222854243282    -0.913199952572    -0.000130198625     1.007825032230

  Basis Set: AUG-CC-PVTZ
    Blend: AUG-CC-PVTZ
  Basis Set: (AUG-CC-PVTZ AUX)
    Blend: AUG-CC-PVTZ-JKFIT
	 Reference Energy          =    -418.4722982630688648 [Eh]
	 Singles Energy            =      -0.0000000000000000 [Eh]
	 Same-Spin Energy          =      -0.4348935747554612 [Eh]
	 Opposite-Spin Energy      =      -1.3153053249479536 [Eh]
	 Correlation Energy        =      -1.7501988997034148 [Eh]
	 Total Energy              =    -420.2224971627722994 [Eh]

	 ================> DF-SCS-MP2 Energies <==================
	-----------------------------------------------------------
	 SCS Same-Spin Scale       =       0.3333333333333333 [-]
	 SCS Opposite-Spin Scale   =       1.2000000000000000 [-]
	 SCS Same-Spin Energy      =      -0.1449645249184870 [Eh]
	 SCS Opposite-Spin Energy  =      -1.5783663899375442 [Eh]
	 SCS Correlation Energy    =      -1.7233309148560312 [Eh]
	 SCS Total Energy          =    -420.1956291779249000 [Eh]
	-----------------------------------------------------------

  Dipole Moment: [D]
     X:     1.3726      Y:    -1.4555      Z:     0.0003     Total:     2.0007

*** Psi4 exiting successfully. Buy a developer a beer!
