                               Psi4 1.3.2 release

  ==> Input File <==

--------------------------------------------------------------------------
#psi4
#
memory 32 gb

molecule  {
0 1
  O       -2.3042200    -1.0991630    -0.0003290
  O       -2.2635172     1.2055249     0.0000465
  C       -0.2184710     0.0274960    -0.0000150
  C        0.5080430     1.2243810    -0.0001580
  C        0.4461120    -1.2054740     0.0002260
  C        1.9006900     1.1869520    -0.0000810
  C        1.8404380    -1.2322990     0.0003120
  C        2.5692530    -0.0403490     0.0001580
  C       -1.7002410     0.1214410    -0.0000850
  H       -0.0326500     2.1666470    -0.0003250
  H       -0.1251480    -2.1283920     0.0003360
  H        2.4665660     2.1152060    -0.0002030
  H        2.3606420    -2.1869500     0.0005070
  H        3.6563130    -0.0679050     0.0002230
  H       -3.2647750    -0.9069250    -0.0003290
units angstrom
no_reorient  #important for SAPT in psi4, default
symmetry c1  #important for SAPT in psi4, default
}

set PROPERTIES_ORIGIN ["COM"]
properties('MP2/aug-cc-pvtz', properties = ['dipole'])
--------------------------------------------------------------------------

    Molecular point group: c1
  Charge       = 0
  Multiplicity = 1
  Basis Set: AUG-CC-PVTZ
    Blend: AUG-CC-PVTZ
  Basis Set: (AUG-CC-PVTZ AUX)
    Blend: AUG-CC-PVTZ-JKFIT

    Orbital Energies [Eh]
    ---------------------

    Doubly Occupied:

       1A    -20.624409     2A    -20.551367     3A    -11.395656
       4A    -11.256768     5A    -11.256608     6A    -11.255095
       7A    -11.252700     8A    -11.248005     9A    -11.247084
      10A     -1.462092    11A     -1.362842    12A     -1.167919
      13A     -1.047804    14A     -1.028992    15A     -0.898929
      16A     -0.842849    17A     -0.801174    18A     -0.730682
      19A     -0.708737    20A     -0.674741    21A     -0.639030
      22A     -0.635297    23A     -0.626158    24A     -0.603562
      25A     -0.586774    26A     -0.525673    27A     -0.518665
      28A     -0.506437    29A     -0.487228    30A     -0.458120
      31A     -0.353742    32A     -0.348724

  @DF-RHF Final Energy:  -418.47089755742428

   => Energetics <=

    Nuclear Repulsion Energy =            404.7047524825092069
    One-Electron Energy =               -1372.1435740277695459
    Two-Electron Energy =                 548.9679239878361159
    Total Energy =                       -418.4708975574242231
  Basis Set: (AUG-CC-PVTZ AUX)
    Blend: AUG-CC-PVTZ-RI
    Molecular point group: c1

    Geometry (in Angstrom), charge = 0, multiplicity = 1:

       Center              X                  Y                   Z               Mass
    ------------   -----------------  -----------------  -----------------  -----------------
         O           -2.272998851301    -1.112854088772    -0.000328803928    15.994914619570
         O           -2.232296051301     1.191833811228     0.000046696072    15.994914619570
         C           -0.187249851301     0.013804911228    -0.000014803928    12.000000000000
         C            0.539264148699     1.210689911228    -0.000157803928    12.000000000000
         C            0.477333148699    -1.219165088772     0.000226196072    12.000000000000
         C            1.931911148699     1.173260911228    -0.000080803928    12.000000000000
         C            1.871659148699    -1.245990088772     0.000312196072    12.000000000000
         C            2.600474148699    -0.054040088772     0.000158196072    12.000000000000
         C           -1.669019851301     0.107749911228    -0.000084803928    12.000000000000
         H           -0.001428851301     2.152955911228    -0.000324803928     1.007825032230
         H           -0.093926851301    -2.142083088772     0.000336196072     1.007825032230
         H            2.497787148699     2.101514911228    -0.000202803928     1.007825032230
         H            2.391863148699    -2.200641088772     0.000507196072     1.007825032230
         H            3.687534148699    -0.081596088772     0.000223196072     1.007825032230
         H           -3.233553851301    -0.920616088772    -0.000328803928     1.007825032230

  Basis Set: AUG-CC-PVTZ
    Blend: AUG-CC-PVTZ
  Basis Set: (AUG-CC-PVTZ AUX)
    Blend: AUG-CC-PVTZ-JKFIT
	 Reference Energy          =    -418.4708975574242800 [Eh]
	 Singles Energy            =      -0.0000000000000000 [Eh]
	 Same-Spin Energy          =      -0.4351183710641908 [Eh]
	 Opposite-Spin Energy      =      -1.3158195234331411 [Eh]
	 Correlation Energy        =      -1.7509378944973319 [Eh]
	 Total Energy              =    -420.2218354519216064 [Eh]

	 ================> DF-SCS-MP2 Energies <==================
	-----------------------------------------------------------
	 SCS Same-Spin Scale       =       0.3333333333333333 [-]
	 SCS Opposite-Spin Scale   =       1.2000000000000000 [-]
	 SCS Same-Spin Energy      =      -0.1450394570213969 [Eh]
	 SCS Opposite-Spin Energy  =      -1.5789834281197692 [Eh]
	 SCS Correlation Energy    =      -1.7240228851411661 [Eh]
	 SCS Total Energy          =    -420.1949204425654329 [Eh]
	-----------------------------------------------------------

  Dipole Moment: [D]
     X:     1.1593      Y:    -1.3893      Z:    -0.0001     Total:     1.8095

*** Psi4 exiting successfully. Buy a developer a beer!
