                               Psi4 1.3.2 release

  ==> Input File <==

--------------------------------------------------------------------------
#psi4
#
memory 32 gb

molecule  {
0 1
  O       -2.3464505    -1.0773409    -0.0003277
  O       -2.3377670     1.1635920     0.0000360
  C       -0.2184710     0.0274960    -0.0000150
  C        0.5080430     1.2243810    -0.0001580
  C        0.4461120    -1.2054740     0.0002260
  C        1.9006900     1.1869520    -0.0000810
  C        1.8404380    -1.2322990     0.0003120
  C        2.5692530    -0.0403490     0.0001580
  C       -1.7002410     0.1214410    -0.0000850
  H       -0.0326500     2.1666470    -0.0003250
  H       -0.1251480    -2.1283920     0.0003360
  H        2.4665660     2.1152060    -0.0002030
  H        2.3606420    -2.1869500     0.0005070
  H        3.6563130    -0.0679050     0.0002230
  H       -3.2647750    -0.9069250    -0.0003290
units angstrom
no_reorient  #important for SAPT in psi4, default
symmetry c1  #important for SAPT in psi4, default
}

set PROPERTIES_ORIGIN ["COM"]
properties('MP2/aug-cc-pvtz', properties = ['dipole'])
--------------------------------------------------------------------------

    Molecular point group: c1
  Charge       = 0
  Multiplicity = 1
  Basis Set: AUG-CC-PVTZ
    Blend: AUG-CC-PVTZ
  Basis Set: (AUG-CC-PVTZ AUX)
    Blend: AUG-CC-PVTZ-JKFIT

    Orbital Energies [Eh]
    ---------------------

    Doubly Occupied:

       1A    -20.610763     2A    -20.547530     3A    -11.394578
       4A    -11.261502     5A    -11.260165     6A    -11.259968
       7A    -11.257150     8A    -11.251018     9A    -11.250217
      10A     -1.465743    11A     -1.356258    12A     -1.171838
      13A     -1.052210    14A     -1.032410    15A     -0.904363
      16A     -0.846473    17A     -0.807869    18A     -0.733098
      19A     -0.706605    20A     -0.677134    21A     -0.642004
      22A     -0.632233    23A     -0.627505    24A     -0.605401
      25A     -0.588036    26A     -0.528559    27A     -0.520585
      28A     -0.509897    29A     -0.482724    30A     -0.457295
      31A     -0.357491    32A     -0.351983

  @DF-RHF Final Energy:  -418.47421185487292

   => Energetics <=

    Nuclear Repulsion Energy =            404.1126408501019114
    One-Electron Energy =               -1370.8724927362477501
    Two-Electron Energy =                 548.2856400312729193
    Total Energy =                       -418.4742118548729195
  Basis Set: (AUG-CC-PVTZ AUX)
    Blend: AUG-CC-PVTZ-RI
    Molecular point group: c1

    Geometry (in Angstrom), charge = 0, multiplicity = 1:

       Center              X                  Y                   Z               Mass
    ------------   -----------------  -----------------  -----------------  -----------------
         O           -2.299962704131    -1.088396139723    -0.000326298118    15.994914619570
         O           -2.291279204131     1.152536760277     0.000037401882    15.994914619570
         C           -0.171983204131     0.016440760277    -0.000013598118    12.000000000000
         C            0.554530795869     1.213325760277    -0.000156598118    12.000000000000
         C            0.492599795869    -1.216529239723     0.000227401882    12.000000000000
         C            1.947177795869     1.175896760277    -0.000079598118    12.000000000000
         C            1.886925795869    -1.243354239723     0.000313401882    12.000000000000
         C            2.615740795869    -0.051404239723     0.000159401882    12.000000000000
         C           -1.653753204131     0.110385760277    -0.000083598118    12.000000000000
         H            0.013837795869     2.155591760277    -0.000323598118     1.007825032230
         H           -0.078660204131    -2.139447239723     0.000337401882     1.007825032230
         H            2.513053795869     2.104150760277    -0.000201598118     1.007825032230
         H            2.407129795869    -2.198005239723     0.000508401882     1.007825032230
         H            3.702800795869    -0.078960239723     0.000224401882     1.007825032230
         H           -3.218287204131    -0.917980239723    -0.000327598118     1.007825032230

  Basis Set: AUG-CC-PVTZ
    Blend: AUG-CC-PVTZ
  Basis Set: (AUG-CC-PVTZ AUX)
    Blend: AUG-CC-PVTZ-JKFIT
	 Reference Energy          =    -418.4742118548729195 [Eh]
	 Singles Energy            =      -0.0000000000000000 [Eh]
	 Same-Spin Energy          =      -0.4339119155816704 [Eh]
	 Opposite-Spin Energy      =      -1.3134326972357131 [Eh]
	 Correlation Energy        =      -1.7473446128173835 [Eh]
	 Total Energy              =    -420.2215564676902773 [Eh]

	 ================> DF-SCS-MP2 Energies <==================
	-----------------------------------------------------------
	 SCS Same-Spin Scale       =       0.3333333333333333 [-]
	 SCS Opposite-Spin Scale   =       1.2000000000000000 [-]
	 SCS Same-Spin Energy      =      -0.1446373051938901 [Eh]
	 SCS Opposite-Spin Energy  =      -1.5761192366828556 [Eh]
	 SCS Correlation Energy    =      -1.7207565418767456 [Eh]
	 SCS Total Energy          =    -420.1949683967496867 [Eh]
	-----------------------------------------------------------

  Dipole Moment: [D]
     X:     1.5984      Y:    -1.3188      Z:    -0.0000     Total:     2.0722

*** Psi4 exiting successfully. Buy a developer a beer!
