                               Psi4 1.3.2 release

  ==> Input File <==

--------------------------------------------------------------------------
#psi4
#
memory 32 gb

molecule  {
0 1
  O       -2.3042200    -1.0991630    -0.0003290
  O       -2.2253401     1.2245226     0.0000516
  C       -0.2184710     0.0274960    -0.0000150
  C        0.5080430     1.2243810    -0.0001580
  C        0.4461120    -1.2054740     0.0002260
  C        1.9006900     1.1869520    -0.0000810
  C        1.8404380    -1.2322990     0.0003120
  C        2.5692530    -0.0403490     0.0001580
  C       -1.7002410     0.1214410    -0.0000850
  H       -0.0326500     2.1666470    -0.0003250
  H       -0.1251480    -2.1283920     0.0003360
  H        2.4665660     2.1152060    -0.0002030
  H        2.3606420    -2.1869500     0.0005070
  H        3.6563130    -0.0679050     0.0002230
  H       -3.2647750    -0.9069250    -0.0003290
units angstrom
no_reorient  #important for SAPT in psi4, default
symmetry c1  #important for SAPT in psi4, default
}

set PROPERTIES_ORIGIN ["COM"]
properties('MP2/aug-cc-pvtz', properties = ['dipole'])
--------------------------------------------------------------------------

    Molecular point group: c1
  Charge       = 0
  Multiplicity = 1
  Basis Set: AUG-CC-PVTZ
    Blend: AUG-CC-PVTZ
  Basis Set: (AUG-CC-PVTZ AUX)
    Blend: AUG-CC-PVTZ-JKFIT

    Orbital Energies [Eh]
    ---------------------

    Doubly Occupied:

       1A    -20.627884     2A    -20.552021     3A    -11.396248
       4A    -11.255399     5A    -11.255295     6A    -11.253269
       7A    -11.251044     8A    -11.246920     9A    -11.245953
      10A     -1.462815    11A     -1.366047    12A     -1.166519
      13A     -1.046350    14A     -1.027758    15A     -0.898628
      16A     -0.841757    17A     -0.801175    18A     -0.730685
      19A     -0.710457    20A     -0.674072    21A     -0.638079
      22A     -0.636665    23A     -0.625679    24A     -0.603001
      25A     -0.586604    26A     -0.524352    27A     -0.518475
      28A     -0.505146    29A     -0.488375    30A     -0.457662
      31A     -0.352352    32A     -0.347497

  @DF-RHF Final Energy:  -418.46874703827103

   => Energetics <=

    Nuclear Repulsion Energy =            404.9800582687141741
    One-Electron Energy =               -1372.7092435253807707
    Two-Electron Energy =                 549.2604382183955067
    Total Energy =                       -418.4687470382710899
  Basis Set: (AUG-CC-PVTZ AUX)
    Blend: AUG-CC-PVTZ-RI
    Molecular point group: c1

    Geometry (in Angstrom), charge = 0, multiplicity = 1:

       Center              X                  Y                   Z               Mass
    ------------   -----------------  -----------------  -----------------  -----------------
         O           -2.278002584256    -1.115344047871    -0.000329472367    15.994914619570
         O           -2.199122684256     1.208341552129     0.000051127633    15.994914619570
         C           -0.192253584256     0.011314952129    -0.000015472367    12.000000000000
         C            0.534260415744     1.208199952129    -0.000158472367    12.000000000000
         C            0.472329415744    -1.221655047871     0.000225527633    12.000000000000
         C            1.926907415744     1.170770952129    -0.000081472367    12.000000000000
         C            1.866655415744    -1.248480047871     0.000311527633    12.000000000000
         C            2.595470415744    -0.056530047871     0.000157527633    12.000000000000
         C           -1.674023584256     0.105259952129    -0.000085472367    12.000000000000
         H           -0.006432584256     2.150465952129    -0.000325472367     1.007825032230
         H           -0.098930584256    -2.144573047871     0.000335527633     1.007825032230
         H            2.492783415744     2.099024952129    -0.000203472367     1.007825032230
         H            2.386859415744    -2.203131047871     0.000506527633     1.007825032230
         H            3.682530415744    -0.084086047871     0.000222527633     1.007825032230
         H           -3.238557584256    -0.923106047871    -0.000329472367     1.007825032230

  Basis Set: AUG-CC-PVTZ
    Blend: AUG-CC-PVTZ
  Basis Set: (AUG-CC-PVTZ AUX)
    Blend: AUG-CC-PVTZ-JKFIT
	 Reference Energy          =    -418.4687470382710330 [Eh]
	 Singles Energy            =      -0.0000000000000000 [Eh]
	 Same-Spin Energy          =      -0.4353031480334031 [Eh]
	 Opposite-Spin Energy      =      -1.3161401336758560 [Eh]
	 Correlation Energy        =      -1.7514432817092591 [Eh]
	 Total Energy              =    -420.2201903199803041 [Eh]

	 ================> DF-SCS-MP2 Energies <==================
	-----------------------------------------------------------
	 SCS Same-Spin Scale       =       0.3333333333333333 [-]
	 SCS Opposite-Spin Scale   =       1.2000000000000000 [-]
	 SCS Same-Spin Energy      =      -0.1451010493444677 [Eh]
	 SCS Opposite-Spin Energy  =      -1.5793681604110272 [Eh]
	 SCS Correlation Energy    =      -1.7244692097554950 [Eh]
	 SCS Total Energy          =    -420.1932162480265447 [Eh]
	-----------------------------------------------------------

  Dipole Moment: [D]
     X:     1.0005      Y:    -1.4188      Z:    -0.0001     Total:     1.7361

*** Psi4 exiting successfully. Buy a developer a beer!
