                               Psi4 1.3.2 release

  ==> Input File <==

--------------------------------------------------------------------------
#psi4
#
memory 32 gb

molecule  {
0 1
  O       -2.3042200    -1.0991630    -0.0003290
  O       -2.3377670     1.1635920     0.0000360
  C       -0.2184710     0.0274960    -0.0000150
  C        0.3789545     1.2937657    -0.0001728
  C        0.4461120    -1.2054740     0.0002260
  C        1.9006900     1.1869520    -0.0000810
  C        1.8404380    -1.2322990     0.0003120
  C        2.5692530    -0.0403490     0.0001580
  C       -1.7002410     0.1214410    -0.0000850
  H       -0.0326500     2.1666470    -0.0003250
  H       -0.1251480    -2.1283920     0.0003360
  H        2.4665660     2.1152060    -0.0002030
  H        2.3606420    -2.1869500     0.0005070
  H        3.6563130    -0.0679050     0.0002230
  H       -3.2647750    -0.9069250    -0.0003290
units angstrom
no_reorient  #important for SAPT in psi4, default
symmetry c1  #important for SAPT in psi4, default
}

set PROPERTIES_ORIGIN ["COM"]
properties('MP2/aug-cc-pvtz', properties = ['dipole'])
--------------------------------------------------------------------------

    Molecular point group: c1
  Charge       = 0
  Multiplicity = 1
  Basis Set: AUG-CC-PVTZ
    Blend: AUG-CC-PVTZ
  Basis Set: (AUG-CC-PVTZ AUX)
    Blend: AUG-CC-PVTZ-JKFIT

    Orbital Energies [Eh]
    ---------------------

    Doubly Occupied:

       1A    -20.615727     2A    -20.548367     3A    -11.391624
       4A    -11.263940     5A    -11.263373     6A    -11.262534
       7A    -11.258160     8A    -11.257424     9A    -11.253011
      10A     -1.459943    11A     -1.355464    12A     -1.161914
      13A     -1.054142    14A     -1.021171    15A     -0.897524
      16A     -0.853624    17A     -0.798251    18A     -0.731712
      19A     -0.706552    20A     -0.686820    21A     -0.647006
      22A     -0.631655    23A     -0.626594    24A     -0.606516
      25A     -0.582670    26A     -0.529073    27A     -0.513210
      28A     -0.506211    29A     -0.482891    30A     -0.455746
      31A     -0.361341    32A     -0.338615

  @DF-RHF Final Energy:  -418.44229453108073

   => Energetics <=

    Nuclear Repulsion Energy =            403.1175127732212218
    One-Electron Energy =               -1368.8739988742443074
    Two-Electron Energy =                 547.3141915699422952
    Total Energy =                       -418.4422945310807336
  Basis Set: (AUG-CC-PVTZ AUX)
    Blend: AUG-CC-PVTZ-RI
    Molecular point group: c1

    Geometry (in Angstrom), charge = 0, multiplicity = 1:

       Center              X                  Y                   Z               Mass
    ------------   -----------------  -----------------  -----------------  -----------------
         O           -2.250573798589    -1.114180764594    -0.000325972433    15.994914619570
         O           -2.284120798589     1.148574235406     0.000039027567    15.994914619570
         C           -0.164824798589     0.012478235406    -0.000011972433    12.000000000000
         C            0.432600701411     1.278747935406    -0.000169772433    12.000000000000
         C            0.499758201411    -1.220491764594     0.000229027567    12.000000000000
         C            1.954336201411     1.171934235406    -0.000077972433    12.000000000000
         C            1.894084201411    -1.247316764594     0.000315027567    12.000000000000
         C            2.622899201411    -0.055366764594     0.000161027567    12.000000000000
         C           -1.646594798589     0.106423235406    -0.000081972433    12.000000000000
         H            0.020996201411     2.151629235406    -0.000321972433     1.007825032230
         H           -0.071501798589    -2.143409764594     0.000339027567     1.007825032230
         H            2.520212201411     2.100188235406    -0.000199972433     1.007825032230
         H            2.414288201411    -2.201967764594     0.000510027567     1.007825032230
         H            3.709959201411    -0.082922764594     0.000226027567     1.007825032230
         H           -3.211128798589    -0.921942764594    -0.000325972433     1.007825032230

  Basis Set: AUG-CC-PVTZ
    Blend: AUG-CC-PVTZ
  Basis Set: (AUG-CC-PVTZ AUX)
    Blend: AUG-CC-PVTZ-JKFIT
	 Reference Energy          =    -418.4422945310807336 [Eh]
	 Singles Energy            =      -0.0000000000000000 [Eh]
	 Same-Spin Energy          =      -0.4351518691751107 [Eh]
	 Opposite-Spin Energy      =      -1.3175907702280187 [Eh]
	 Correlation Energy        =      -1.7527426394031296 [Eh]
	 Total Energy              =    -420.1950371704838858 [Eh]

	 ================> DF-SCS-MP2 Energies <==================
	-----------------------------------------------------------
	 SCS Same-Spin Scale       =       0.3333333333333333 [-]
	 SCS Opposite-Spin Scale   =       1.2000000000000000 [-]
	 SCS Same-Spin Energy      =      -0.1450506230583702 [Eh]
	 SCS Opposite-Spin Energy  =      -1.5811089242736225 [Eh]
	 SCS Correlation Energy    =      -1.7261595473319926 [Eh]
	 SCS Total Energy          =    -420.1684540784127080 [Eh]
	-----------------------------------------------------------

  Dipole Moment: [D]
     X:     1.4985      Y:    -1.3120      Z:    -0.0001     Total:     1.9917

*** Psi4 exiting successfully. Buy a developer a beer!
