                               Psi4 1.3.2 release

  ==> Input File <==

--------------------------------------------------------------------------
#psi4
#
memory 32 gb

molecule  {
0 1
  O       -2.3042200    -1.0991630    -0.0003290
  O       -2.3377670     1.1635920     0.0000360
  C       -0.2184710     0.0274960    -0.0000150
  C        0.5080430     1.2243810    -0.0001580
  C        0.4461120    -1.2054740     0.0002260
  C        1.9006900     1.1869520    -0.0000810
  C        1.8404380    -1.2322990     0.0003120
  C        2.5692530    -0.0403490     0.0001580
  C       -1.7002410     0.1214410    -0.0000850
  H       -0.0326500     2.1666470    -0.0003250
  H       -0.1251480    -2.1283920     0.0003360
  H        2.4665660     2.1152060    -0.0002030
  H        2.3606420    -2.1869500     0.0005070
  H        3.6563130    -0.0679050     0.0002230
  H       -3.3628306    -0.8873009    -0.0003290
units angstrom
no_reorient  #important for SAPT in psi4, default
symmetry c1  #important for SAPT in psi4, default
}

set PROPERTIES_ORIGIN ["COM"]
properties('MP2/aug-cc-pvtz', properties = ['dipole'])
--------------------------------------------------------------------------

    Molecular point group: c1
  Charge       = 0
  Multiplicity = 1
  Basis Set: AUG-CC-PVTZ
    Blend: AUG-CC-PVTZ
  Basis Set: (AUG-CC-PVTZ AUX)
    Blend: AUG-CC-PVTZ-JKFIT

    Orbital Energies [Eh]
    ---------------------

    Doubly Occupied:

       1A    -20.622331     2A    -20.548066     3A    -11.392743
       4A    -11.259196     5A    -11.258426     6A    -11.258029
       7A    -11.255311     8A    -11.249549     9A    -11.248734
      10A     -1.448763    11A     -1.347221    12A     -1.169809
      13A     -1.048801    14A     -1.030761    15A     -0.892500
      16A     -0.843550    17A     -0.792522    18A     -0.728429
      19A     -0.693701    20A     -0.674492    21A     -0.638290
      22A     -0.629274    23A     -0.626003    24A     -0.603889
      25A     -0.579958    26A     -0.526703    27A     -0.518127
      28A     -0.508335    29A     -0.481796    30A     -0.456343
      31A     -0.355853    32A     -0.350498

  @DF-RHF Final Energy:  -418.45968588658559

   => Energetics <=

    Nuclear Repulsion Energy =            403.6516683925514712
    One-Electron Energy =               -1370.1467039487006332
    Two-Electron Energy =                 548.0353496695635158
    Total Energy =                       -418.4596858865855893
  Basis Set: (AUG-CC-PVTZ AUX)
    Blend: AUG-CC-PVTZ-RI
    Molecular point group: c1

    Geometry (in Angstrom), charge = 0, multiplicity = 1:

       Center              X                  Y                   Z               Mass
    ------------   -----------------  -----------------  -----------------  -----------------
         O           -2.262457421859    -1.107520159942    -0.000327427732    15.994914619570
         O           -2.296004421859     1.155234840058     0.000037572268    15.994914619570
         C           -0.176708421859     0.019138840058    -0.000013427732    12.000000000000
         C            0.549805578141     1.216023840058    -0.000156427732    12.000000000000
         C            0.487874578141    -1.213831159942     0.000227572268    12.000000000000
         C            1.942452578141     1.178594840058    -0.000079427732    12.000000000000
         C            1.882200578141    -1.240656159942     0.000313572268    12.000000000000
         C            2.611015578141    -0.048706159942     0.000159572268    12.000000000000
         C           -1.658478421859     0.113083840058    -0.000083427732    12.000000000000
         H            0.009112578141     2.158289840058    -0.000323427732     1.007825032230
         H           -0.083385421859    -2.136749159942     0.000337572268     1.007825032230
         H            2.508328578141     2.106848840058    -0.000201427732     1.007825032230
         H            2.402404578141    -2.195307159942     0.000508572268     1.007825032230
         H            3.698075578141    -0.076262159942     0.000224572268     1.007825032230
         H           -3.321068021859    -0.895658059942    -0.000327427732     1.007825032230

  Basis Set: AUG-CC-PVTZ
    Blend: AUG-CC-PVTZ
  Basis Set: (AUG-CC-PVTZ AUX)
    Blend: AUG-CC-PVTZ-JKFIT
	 Reference Energy          =    -418.4596858865855893 [Eh]
	 Singles Energy            =      -0.0000000000000000 [Eh]
	 Same-Spin Energy          =      -0.4361317251935328 [Eh]
	 Opposite-Spin Energy      =      -1.3184956467631321 [Eh]
	 Correlation Energy        =      -1.7546273719566650 [Eh]
	 Total Energy              =    -420.2143132585422336 [Eh]

	 ================> DF-SCS-MP2 Energies <==================
	-----------------------------------------------------------
	 SCS Same-Spin Scale       =       0.3333333333333333 [-]
	 SCS Opposite-Spin Scale   =       1.2000000000000000 [-]
	 SCS Same-Spin Energy      =      -0.1453772417311776 [Eh]
	 SCS Opposite-Spin Energy  =      -1.5821947761157584 [Eh]
	 SCS Correlation Energy    =      -1.7275720178469360 [Eh]
	 SCS Total Energy          =    -420.1872579044324993 [Eh]
	-----------------------------------------------------------

  Dipole Moment: [D]
     X:     1.3329      Y:    -1.3266      Z:    -0.0001     Total:     1.8806

*** Psi4 exiting successfully. Buy a developer a beer!
