                               Psi4 1.3.2 release

  ==> Input File <==

--------------------------------------------------------------------------
#psi4
#
memory 32 gb

molecule  {
0 1
  O       -2.3042200    -1.0991630    -0.0003290
  O       -2.3377670     1.1635920     0.0000360
  C       -0.2184710     0.0274960    -0.0000150
  C        0.6291716     1.1418829    -0.0001416
  C        0.4461120    -1.2054740     0.0002260
  C        1.9006900     1.1869520    -0.0000810
  C        1.8404380    -1.2322990     0.0003120
  C        2.5692530    -0.0403490     0.0001580
  C       -1.7002410     0.1214410    -0.0000850
  H       -0.0326500     2.1666470    -0.0003250
  H       -0.1251480    -2.1283920     0.0003360
  H        2.4665660     2.1152060    -0.0002030
  H        2.3606420    -2.1869500     0.0005070
  H        3.6563130    -0.0679050     0.0002230
  H       -3.2647750    -0.9069250    -0.0003290
units angstrom
no_reorient  #important for SAPT in psi4, default
symmetry c1  #important for SAPT in psi4, default
}

set PROPERTIES_ORIGIN ["COM"]
properties('MP2/aug-cc-pvtz', properties = ['dipole'])
--------------------------------------------------------------------------

    Molecular point group: c1
  Charge       = 0
  Multiplicity = 1
  Basis Set: AUG-CC-PVTZ
    Blend: AUG-CC-PVTZ
  Basis Set: (AUG-CC-PVTZ AUX)
    Blend: AUG-CC-PVTZ-JKFIT

    Orbital Energies [Eh]
    ---------------------

    Doubly Occupied:

       1A    -20.618731     2A    -20.550967     3A    -11.397711
       4A    -11.261131     5A    -11.261086     6A    -11.257828
       7A    -11.249678     8A    -11.247966     9A    -11.233781
      10A     -1.462118    11A     -1.356786    12A     -1.184914
      13A     -1.056993    14A     -1.037588    15A     -0.903549
      16A     -0.839107    17A     -0.806559    18A     -0.732945
      19A     -0.705965    20A     -0.672016    21A     -0.642016
      22A     -0.637143    23A     -0.633918    24A     -0.594965
      25A     -0.584830    26A     -0.538039    27A     -0.529831
      28A     -0.485869    29A     -0.473961    30A     -0.459401
      31A     -0.367295    32A     -0.351952

  @DF-RHF Final Energy:  -418.44443804581886

   => Energetics <=

    Nuclear Repulsion Energy =            405.7591650511083117
    One-Electron Energy =               -1374.1339306850591129
    Two-Electron Energy =                 549.9303275881319450
    Total Energy =                       -418.4444380458188562
  Basis Set: (AUG-CC-PVTZ AUX)
    Blend: AUG-CC-PVTZ-RI
    Molecular point group: c1

    Geometry (in Angstrom), charge = 0, multiplicity = 1:

       Center              X                  Y                   Z               Mass
    ------------   -----------------  -----------------  -----------------  -----------------
         O           -2.275177899205    -1.099245975193    -0.000329040360    15.994914619570
         O           -2.308724899205     1.163509024807     0.000035959640    15.994914619570
         C           -0.189428899205     0.027413024807    -0.000015040360    12.000000000000
         C            0.658213700795     1.141799924807    -0.000141640360    12.000000000000
         C            0.475154100795    -1.205556975193     0.000225959640    12.000000000000
         C            1.929732100795     1.186869024807    -0.000081040360    12.000000000000
         C            1.869480100795    -1.232381975193     0.000311959640    12.000000000000
         C            2.598295100795    -0.040431975193     0.000157959640    12.000000000000
         C           -1.671198899205     0.121358024807    -0.000085040360    12.000000000000
         H           -0.003607899205     2.166564024807    -0.000325040360     1.007825032230
         H           -0.096105899205    -2.128474975193     0.000335959640     1.007825032230
         H            2.495608100795     2.115123024807    -0.000203040360     1.007825032230
         H            2.389684100795    -2.187032975193     0.000506959640     1.007825032230
         H            3.685355100795    -0.067987975193     0.000222959640     1.007825032230
         H           -3.235732899205    -0.907007975193    -0.000329040360     1.007825032230

  Basis Set: AUG-CC-PVTZ
    Blend: AUG-CC-PVTZ
  Basis Set: (AUG-CC-PVTZ AUX)
    Blend: AUG-CC-PVTZ-JKFIT
	 Reference Energy          =    -418.4444380458188562 [Eh]
	 Singles Energy            =      -0.0000000000000000 [Eh]
	 Same-Spin Energy          =      -0.4351899136854565 [Eh]
	 Opposite-Spin Energy      =      -1.3161694400579678 [Eh]
	 Correlation Energy        =      -1.7513593537434242 [Eh]
	 Total Energy              =    -420.1957973995622524 [Eh]

	 ================> DF-SCS-MP2 Energies <==================
	-----------------------------------------------------------
	 SCS Same-Spin Scale       =       0.3333333333333333 [-]
	 SCS Opposite-Spin Scale   =       1.2000000000000000 [-]
	 SCS Same-Spin Energy      =      -0.1450633045618188 [Eh]
	 SCS Opposite-Spin Energy  =      -1.5794033280695612 [Eh]
	 SCS Correlation Energy    =      -1.7244666326313800 [Eh]
	 SCS Total Energy          =    -420.1689046784502466 [Eh]
	-----------------------------------------------------------

  Dipole Moment: [D]
     X:     1.4581      Y:    -1.4104      Z:    -0.0000     Total:     2.0286

*** Psi4 exiting successfully. Buy a developer a beer!
