                               Psi4 1.3.2 release

  ==> Input File <==

--------------------------------------------------------------------------
#psi4
#
memory 32 gb

molecule  {
0 1
  O       -2.3042200    -1.0991630    -0.0003290
  O       -2.3377670     1.1635920     0.0000360
  C       -0.2184710     0.0274960    -0.0000150
  C        0.5080430     1.2243810    -0.0001580
  C        0.4461120    -1.2054740     0.0002260
  C        1.9006900     1.1869520    -0.0000810
  C        1.8404380    -1.2322990     0.0003120
  C        2.5692530    -0.0403490     0.0001580
  C       -1.7002410     0.1214410    -0.0000850
  H       -0.0326500     2.1666470    -0.0003250
  H       -0.1251480    -2.1283920     0.0003360
  H        2.4665660     2.1152060    -0.0002030
  H        2.3606420    -2.1869500     0.0005070
  H        3.6563130    -0.0679050     0.0002230
  H       -3.1667194    -0.9265491    -0.0003290
units angstrom
no_reorient  #important for SAPT in psi4, default
symmetry c1  #important for SAPT in psi4, default
}

set PROPERTIES_ORIGIN ["COM"]
properties('MP2/aug-cc-pvtz', properties = ['dipole'])
--------------------------------------------------------------------------

    Molecular point group: c1
  Charge       = 0
  Multiplicity = 1
  Basis Set: AUG-CC-PVTZ
    Blend: AUG-CC-PVTZ
  Basis Set: (AUG-CC-PVTZ AUX)
    Blend: AUG-CC-PVTZ-JKFIT

    Orbital Energies [Eh]
    ---------------------

    Doubly Occupied:

       1A    -20.609892     2A    -20.551785     3A    -11.396497
       4A    -11.260300     5A    -11.259570     6A    -11.259092
       7A    -11.256473     8A    -11.250651     9A    -11.249790
      10A     -1.479362    11A     -1.365812    12A     -1.171498
      13A     -1.052884    14A     -1.032013    15A     -0.909990
      16A     -0.846844    17A     -0.810724    18A     -0.733211
      19A     -0.715641    20A     -0.677681    21A     -0.642968
      22A     -0.636406    23A     -0.628195    24A     -0.606072
      25A     -0.592068    26A     -0.529208    27A     -0.520794
      28A     -0.509517    29A     -0.487003    30A     -0.459891
      31A     -0.357092    32A     -0.351608

  @DF-RHF Final Energy:  -418.46848009247429

   => Energetics <=

    Nuclear Repulsion Energy =            404.9124166056942613
    One-Electron Energy =               -1372.3407263502829210
    Two-Electron Energy =                 548.9598296521143084
    Total Energy =                       -418.4684800924743513
  Basis Set: (AUG-CC-PVTZ AUX)
    Blend: AUG-CC-PVTZ-RI
    Molecular point group: c1

    Geometry (in Angstrom), charge = 0, multiplicity = 1:

       Center              X                  Y                   Z               Mass
    ------------   -----------------  -----------------  -----------------  -----------------
         O           -2.264076980957    -1.107196033735    -0.000327427732    15.994914619570
         O           -2.297623980957     1.155558966265     0.000037572268    15.994914619570
         C           -0.178327980957     0.019462966265    -0.000013427732    12.000000000000
         C            0.548186019043     1.216347966265    -0.000156427732    12.000000000000
         C            0.486255019043    -1.213507033735     0.000227572268    12.000000000000
         C            1.940833019043     1.178918966265    -0.000079427732    12.000000000000
         C            1.880581019043    -1.240332033735     0.000313572268    12.000000000000
         C            2.609396019043    -0.048382033735     0.000159572268    12.000000000000
         C           -1.660097980957     0.113407966265    -0.000083427732    12.000000000000
         H            0.007493019043     2.158613966265    -0.000323427732     1.007825032230
         H           -0.085004980957    -2.136425033735     0.000337572268     1.007825032230
         H            2.506709019043     2.107172966265    -0.000201427732     1.007825032230
         H            2.400785019043    -2.194983033735     0.000508572268     1.007825032230
         H            3.696456019043    -0.075938033735     0.000224572268     1.007825032230
         H           -3.126576380957    -0.934582133735    -0.000327427732     1.007825032230

  Basis Set: AUG-CC-PVTZ
    Blend: AUG-CC-PVTZ
  Basis Set: (AUG-CC-PVTZ AUX)
    Blend: AUG-CC-PVTZ-JKFIT
	 Reference Energy          =    -418.4684800924742945 [Eh]
	 Singles Energy            =      -0.0000000000000000 [Eh]
	 Same-Spin Energy          =      -0.4335450830353361 [Eh]
	 Opposite-Spin Energy      =      -1.3124488710976387 [Eh]
	 Correlation Energy        =      -1.7459939541329748 [Eh]
	 Total Energy              =    -420.2144740466072790 [Eh]

	 ================> DF-SCS-MP2 Energies <==================
	-----------------------------------------------------------
	 SCS Same-Spin Scale       =       0.3333333333333333 [-]
	 SCS Opposite-Spin Scale   =       1.2000000000000000 [-]
	 SCS Same-Spin Energy      =      -0.1445150276784453 [Eh]
	 SCS Opposite-Spin Energy  =      -1.5749386453171665 [Eh]
	 SCS Correlation Energy    =      -1.7194536729956118 [Eh]
	 SCS Total Energy          =    -420.1879337654698929 [Eh]
	-----------------------------------------------------------

  Dipole Moment: [D]
     X:     1.6123      Y:    -1.3025      Z:    -0.0000     Total:     2.0727

*** Psi4 exiting successfully. Buy a developer a beer!
