                               Psi4 1.4a3.dev225

  ==> Input File <==

--------------------------------------------------------------------------
#psi4
#
memory 32 gb

molecule  {
0 1
  O       -2.3041980    -1.0991920    -0.0000450
  O       -2.3377760     1.1635870    -0.0002980
  C       -0.2184880     0.0275040    -0.0000190
  C        0.5080600     1.2243720    -0.0001140
  C        0.4460610    -1.2054670     0.0001810
  C        1.9006990     1.1869660    -0.0000100
  C        1.8403900    -1.2323150     0.0002850
  C        2.5692320    -0.0403680     0.0001900
  C       -1.6740900     0.0788396    -0.0001294
  H       -0.0325870     2.1666660    -0.0002690
  H       -0.1251250    -2.1284350     0.0002540
  H        2.4666520     2.1151670    -0.0000840
  H        2.3606240    -2.1869430     0.0004410
  H        3.6562990    -0.0679320     0.0002710
  H       -3.2646810    -0.9067680    -0.0001340
units angstrom
no_reorient  #important for SAPT in psi4, default
symmetry c1  #important for SAPT in psi4, default
}

set PROPERTIES_ORIGIN ["COM"]
properties('MP2/aug-cc-pvtz', properties = ['dipole'])
--------------------------------------------------------------------------

    Molecular point group: c1
  Charge       = 0
  Multiplicity = 1
  Basis Set: AUG-CC-PVTZ
    Blend: AUG-CC-PVTZ
  Basis Set: (AUG-CC-PVTZ AUX)
    Blend: AUG-CC-PVTZ-JKFIT

    Orbital Energies [Eh]
    ---------------------

    Doubly Occupied:

       1A    -20.623931     2A    -20.538986     3A    -11.396347
       4A    -11.261966     5A    -11.261878     6A    -11.259459
       7A    -11.258293     8A    -11.251667     9A    -11.250918
      10A     -1.464836    11A     -1.327865    12A     -1.173555
      13A     -1.056252    14A     -1.033411    15A     -0.908107
      16A     -0.847387    17A     -0.807702    18A     -0.734439
      19A     -0.704414    20A     -0.678354    21A     -0.642158
      22A     -0.634330    23A     -0.625145    24A     -0.605650
      25A     -0.579576    26A     -0.527529    27A     -0.521818
      28A     -0.509968    29A     -0.468615    30A     -0.451999
      31A     -0.358143    32A     -0.352607

  @DF-RHF Final Energy:  -418.46553384033638

   => Energetics <=

    Nuclear Repulsion Energy =            404.3001693330463695
    One-Electron Energy =               -1371.2967943356109117
    Two-Electron Energy =                 548.5310911622281083
    Total Energy =                       -418.4655338403364340
  Basis Set: (AUG-CC-PVTZ AUX)
    Blend: AUG-CC-PVTZ-RI
    Molecular point group: c1

    Geometry (in Angstrom), charge = 0, multiplicity = 1:

       Center              X                  Y                   Z               Mass
    ------------   -----------------  -----------------  -----------------  -----------------
         O           -2.265809377277    -1.103192737971    -0.000041719780    15.994914619570
         O           -2.299387377277     1.159586262029    -0.000294719780    15.994914619570
         C           -0.180099377277     0.023503262029    -0.000015719780    12.000000000000
         C            0.546448622723     1.220371262029    -0.000110719780    12.000000000000
         C            0.484449622723    -1.209467737971     0.000184280220    12.000000000000
         C            1.939087622723     1.182965262029    -0.000006719780    12.000000000000
         C            1.878778622723    -1.236315737971     0.000288280220    12.000000000000
         C            2.607620622723    -0.044368737971     0.000193280220    12.000000000000
         C           -1.635701377277     0.074838862029    -0.000126119780    12.000000000000
         H            0.005801622723     2.162665262029    -0.000265719780     1.007825032230
         H           -0.086736377277    -2.132435737971     0.000257280220     1.007825032230
         H            2.505040622723     2.111166262029    -0.000080719780     1.007825032230
         H            2.399012622723    -2.190943737971     0.000444280220     1.007825032230
         H            3.694687622723    -0.071932737971     0.000274280220     1.007825032230
         H           -3.226292377277    -0.910768737971    -0.000130719780     1.007825032230

  Basis Set: AUG-CC-PVTZ
    Blend: AUG-CC-PVTZ
  Basis Set: (AUG-CC-PVTZ AUX)
    Blend: AUG-CC-PVTZ-JKFIT
	 Reference Energy          =    -418.4655338403363771 [Eh]
	 Singles Energy            =      -0.0000000000000000 [Eh]
	 Same-Spin Energy          =      -0.4357822987510725 [Eh]
	 Opposite-Spin Energy      =      -1.3170723605446555 [Eh]
	 Correlation Energy        =      -1.7528546592957279 [Eh]
	 Total Energy              =    -420.2183884996321126 [Eh]

	 ================> DF-SCS-MP2 Energies <==================
	-----------------------------------------------------------
	 SCS Same-Spin Scale       =       0.3333333333333333 [-]
	 SCS Opposite-Spin Scale   =       1.2000000000000000 [-]
	 SCS Same-Spin Energy      =      -0.1452607662503575 [Eh]
	 SCS Opposite-Spin Energy  =      -1.5804868326535866 [Eh]
	 SCS Correlation Energy    =      -1.7257475989039441 [Eh]
	 SCS Total Energy          =    -420.1912814392402993 [Eh]
	-----------------------------------------------------------

  Dipole Moment: [D]
     X:     1.6655      Y:    -1.6087      Z:     0.0003     Total:     2.3155

*** Psi4 exiting successfully. Buy a developer a beer!
