                               Psi4 1.3.2 release

  ==> Input File <==

--------------------------------------------------------------------------
#psi4
#
memory 32 gb

molecule  {
0 1
  O       -2.3042200    -1.0991630    -0.0003290
  O       -2.3377670     1.1635920     0.0000360
  C       -0.2184710     0.0274960    -0.0000150
  C        0.4227828     1.2721445    -0.0001681
  C        0.4461120    -1.2054740     0.0002260
  C        1.9006900     1.1869520    -0.0000810
  C        1.8404380    -1.2322990     0.0003120
  C        2.5692530    -0.0403490     0.0001580
  C       -1.7002410     0.1214410    -0.0000850
  H       -0.0326500     2.1666470    -0.0003250
  H       -0.1251480    -2.1283920     0.0003360
  H        2.4665660     2.1152060    -0.0002030
  H        2.3606420    -2.1869500     0.0005070
  H        3.6563130    -0.0679050     0.0002230
  H       -3.2647750    -0.9069250    -0.0003290
units angstrom
no_reorient  #important for SAPT in psi4, default
symmetry c1  #important for SAPT in psi4, default
}

set PROPERTIES_ORIGIN ["COM"]
properties('MP2/aug-cc-pvtz', properties = ['dipole'])
--------------------------------------------------------------------------

    Molecular point group: c1
  Charge       = 0
  Multiplicity = 1
  Basis Set: AUG-CC-PVTZ
    Blend: AUG-CC-PVTZ
  Basis Set: (AUG-CC-PVTZ AUX)
    Blend: AUG-CC-PVTZ-JKFIT

    Orbital Energies [Eh]
    ---------------------

    Doubly Occupied:

       1A    -20.616213     2A    -20.548885     3A    -11.392566
       4A    -11.261824     5A    -11.260511     6A    -11.259230
       7A    -11.258349     8A    -11.257675     9A    -11.251974
      10A     -1.460281    11A     -1.355656    12A     -1.164306
      13A     -1.052580    14A     -1.024221    15A     -0.897752
      16A     -0.850697    17A     -0.798553    18A     -0.730904
      19A     -0.705586    20A     -0.682858    21A     -0.644740
      22A     -0.631955    23A     -0.624975    24A     -0.608501
      25A     -0.584154    26A     -0.525282    27A     -0.514894
      28A     -0.513273    29A     -0.483338    30A     -0.456638
      31A     -0.359483    32A     -0.342515

  @DF-RHF Final Energy:  -418.45888955201497

   => Energetics <=

    Nuclear Repulsion Energy =            403.4431166423605646
    One-Electron Energy =               -1369.5632830635170194
    Two-Electron Energy =                 547.6612768691414885
    Total Energy =                       -418.4588895520149663
  Basis Set: (AUG-CC-PVTZ AUX)
    Blend: AUG-CC-PVTZ-RI
    Molecular point group: c1

    Geometry (in Angstrom), charge = 0, multiplicity = 1:

       Center              X                  Y                   Z               Mass
    ------------   -----------------  -----------------  -----------------  -----------------
         O           -2.254883479674    -1.112054730122    -0.000326434589    15.994914619570
         O           -2.288430479674     1.150700269878     0.000038565411    15.994914619570
         C           -0.169134479674     0.014604269878    -0.000012434589    12.000000000000
         C            0.472119320326     1.259252769878    -0.000165534589    12.000000000000
         C            0.495448520326    -1.218365730122     0.000228565411    12.000000000000
         C            1.950026520326     1.174060269878    -0.000078434589    12.000000000000
         C            1.889774520326    -1.245190730122     0.000314565411    12.000000000000
         C            2.618589520326    -0.053240730122     0.000160565411    12.000000000000
         C           -1.650904479674     0.108549269878    -0.000082434589    12.000000000000
         H            0.016686520326     2.153755269878    -0.000322434589     1.007825032230
         H           -0.075811479674    -2.141283730122     0.000338565411     1.007825032230
         H            2.515902520326     2.102314269878    -0.000200434589     1.007825032230
         H            2.409978520326    -2.199841730122     0.000509565411     1.007825032230
         H            3.705649520326    -0.080796730122     0.000225565411     1.007825032230
         H           -3.215438479674    -0.919816730122    -0.000326434589     1.007825032230

  Basis Set: AUG-CC-PVTZ
    Blend: AUG-CC-PVTZ
  Basis Set: (AUG-CC-PVTZ AUX)
    Blend: AUG-CC-PVTZ-JKFIT
	 Reference Energy          =    -418.4588895520149663 [Eh]
	 Singles Energy            =      -0.0000000000000000 [Eh]
	 Same-Spin Energy          =      -0.4349701793927884 [Eh]
	 Opposite-Spin Energy      =      -1.3164771037462586 [Eh]
	 Correlation Energy        =      -1.7514472831390471 [Eh]
	 Total Energy              =    -420.2103368351540098 [Eh]

	 ================> DF-SCS-MP2 Energies <==================
	-----------------------------------------------------------
	 SCS Same-Spin Scale       =       0.3333333333333333 [-]
	 SCS Opposite-Spin Scale   =       1.2000000000000000 [-]
	 SCS Same-Spin Energy      =      -0.1449900597975961 [Eh]
	 SCS Opposite-Spin Energy  =      -1.5797725244955103 [Eh]
	 SCS Correlation Energy    =      -1.7247625842931065 [Eh]
	 SCS Total Energy          =    -420.1836521363080692 [Eh]
	-----------------------------------------------------------

  Dipole Moment: [D]
     X:     1.4900      Y:    -1.3068      Z:    -0.0001     Total:     1.9819

*** Psi4 exiting successfully. Buy a developer a beer!
