                               Psi4 1.3.2 release

  ==> Input File <==

--------------------------------------------------------------------------
#psi4
#
memory 32 gb

molecule  {
0 1
  O       -2.3042200    -1.0991630    -0.0003290
  O       -2.3377670     1.1635920     0.0000360
  C       -0.2184710     0.0274960    -0.0000150
  C        0.5080430     1.2243810    -0.0001580
  C        0.4461120    -1.2054740     0.0002260
  C        1.9006900     1.1869520    -0.0000810
  C        1.8404380    -1.2322990     0.0003120
  C        2.5692530    -0.0403490     0.0001580
  C       -1.6558915     0.2110687    -0.0000671
  H       -0.0326500     2.1666470    -0.0003250
  H       -0.1251480    -2.1283920     0.0003360
  H        2.4665660     2.1152060    -0.0002030
  H        2.3606420    -2.1869500     0.0005070
  H        3.6563130    -0.0679050     0.0002230
  H       -3.2647750    -0.9069250    -0.0003290
units angstrom
no_reorient  #important for SAPT in psi4, default
symmetry c1  #important for SAPT in psi4, default
}

set PROPERTIES_ORIGIN ["COM"]
properties('MP2/aug-cc-pvtz', properties = ['dipole'])
--------------------------------------------------------------------------

    Molecular point group: c1
  Charge       = 0
  Multiplicity = 1
  Basis Set: AUG-CC-PVTZ
    Blend: AUG-CC-PVTZ
  Basis Set: (AUG-CC-PVTZ AUX)
    Blend: AUG-CC-PVTZ-JKFIT

    Orbital Energies [Eh]
    ---------------------

    Doubly Occupied:

       1A    -20.586433     2A    -20.563493     3A    -11.391661
       4A    -11.263915     5A    -11.263168     6A    -11.260644
       7A    -11.259454     8A    -11.252981     9A    -11.251858
      10A     -1.457273    11A     -1.345124    12A     -1.175621
      13A     -1.058509    14A     -1.034822    15A     -0.899543
      16A     -0.848799    17A     -0.788771    18A     -0.726205
      19A     -0.698582    20A     -0.676794    21A     -0.642700
      22A     -0.627262    23A     -0.621935    24A     -0.608371
      25A     -0.590620    26A     -0.533687    27A     -0.518041
      28A     -0.513245    29A     -0.490879    30A     -0.457481
      31A     -0.361232    32A     -0.354219

  @DF-RHF Final Energy:  -418.46272420904597

   => Energetics <=

    Nuclear Repulsion Energy =            404.4988314023970020
    One-Electron Energy =               -1371.6764645773541815
    Two-Electron Energy =                 548.7149089659112633
    Total Energy =                       -418.4627242090459731
  Basis Set: (AUG-CC-PVTZ AUX)
    Blend: AUG-CC-PVTZ-RI
    Molecular point group: c1

    Geometry (in Angstrom), charge = 0, multiplicity = 1:

       Center              X                  Y                   Z               Mass
    ------------   -----------------  -----------------  -----------------  -----------------
         O           -2.267628132616    -1.116171279266    -0.000329187857    15.994914619570
         O           -2.301175132616     1.146583720734     0.000035812143    15.994914619570
         C           -0.181879132616     0.010487720734    -0.000015187857    12.000000000000
         C            0.544634867384     1.207372720734    -0.000158187857    12.000000000000
         C            0.482703867384    -1.222482279266     0.000225812143    12.000000000000
         C            1.937281867384     1.169943720734    -0.000081187857    12.000000000000
         C            1.877029867384    -1.249307279266     0.000311812143    12.000000000000
         C            2.605844867384    -0.057357279266     0.000157812143    12.000000000000
         C           -1.619299632616     0.194060420734    -0.000067287857    12.000000000000
         H            0.003941867384     2.149638720734    -0.000325187857     1.007825032230
         H           -0.088556132616    -2.145400279266     0.000335812143     1.007825032230
         H            2.503157867384     2.098197720734    -0.000203187857     1.007825032230
         H            2.397233867384    -2.203958279266     0.000506812143     1.007825032230
         H            3.692904867384    -0.084913279266     0.000222812143     1.007825032230
         H           -3.228183132616    -0.923933279266    -0.000329187857     1.007825032230

  Basis Set: AUG-CC-PVTZ
    Blend: AUG-CC-PVTZ
  Basis Set: (AUG-CC-PVTZ AUX)
    Blend: AUG-CC-PVTZ-JKFIT
	 Reference Energy          =    -418.4627242090459731 [Eh]
	 Singles Energy            =      -0.0000000000000000 [Eh]
	 Same-Spin Energy          =      -0.4348935786319670 [Eh]
	 Opposite-Spin Energy      =      -1.3160479641449809 [Eh]
	 Correlation Energy        =      -1.7509415427769479 [Eh]
	 Total Energy              =    -420.2136657518229299 [Eh]

	 ================> DF-SCS-MP2 Energies <==================
	-----------------------------------------------------------
	 SCS Same-Spin Scale       =       0.3333333333333333 [-]
	 SCS Opposite-Spin Scale   =       1.2000000000000000 [-]
	 SCS Same-Spin Energy      =      -0.1449645262106556 [Eh]
	 SCS Opposite-Spin Energy  =      -1.5792575569739771 [Eh]
	 SCS Correlation Energy    =      -1.7242220831846327 [Eh]
	 SCS Total Energy          =    -420.1869462922306298 [Eh]
	-----------------------------------------------------------

  Dipole Moment: [D]
     X:     1.9998      Y:    -0.6187      Z:     0.0001     Total:     2.0933

*** Psi4 exiting successfully. Buy a developer a beer!
