                               Psi4 1.4a3.dev225

  ==> Input File <==

--------------------------------------------------------------------------
#psi4
#
memory 32 gb

molecule  {
0 1
  O       -2.3041980    -1.0991920    -0.0000450
  O       -2.3377760     1.1635870    -0.0002980
  C       -0.2184880     0.0275040    -0.0000190
  C        0.5080600     1.2243720    -0.0001140
  C        0.4460610    -1.2054670     0.0001810
  C        1.9006990     1.1869660    -0.0000100
  C        1.8403900    -1.2323150     0.0002850
  C        2.5692320    -0.0403680     0.0001900
  C       -1.7001850     0.1214900    -0.0001360
  H       -0.0325870     2.1666660    -0.0002690
  H       -0.1251250    -2.1284350     0.0002540
  H        2.4666520     2.1151670    -0.0000840
  H        2.3606240    -2.1869430     0.0004410
  H        3.6562990    -0.0679320     0.0002710
  H       -3.3137068    -0.8969461    -0.0001385
units angstrom
no_reorient  #important for SAPT in psi4, default
symmetry c1  #important for SAPT in psi4, default
}

set PROPERTIES_ORIGIN ["COM"]
properties('MP2/aug-cc-pvtz', properties = ['dipole'])
--------------------------------------------------------------------------

    Molecular point group: c1
  Charge       = 0
  Multiplicity = 1
  Basis Set: AUG-CC-PVTZ
    Blend: AUG-CC-PVTZ
  Basis Set: (AUG-CC-PVTZ AUX)
    Blend: AUG-CC-PVTZ-JKFIT

    Orbital Energies [Eh]
    ---------------------

    Doubly Occupied:

       1A    -20.620018     2A    -20.548956     3A    -11.393653
       4A    -11.259448     5A    -11.258709     6A    -11.258286
       7A    -11.255592     8A    -11.249820     9A    -11.248991
      10A     -1.454277    11A     -1.351534    12A     -1.170208
      13A     -1.049662    14A     -1.031065    15A     -0.895729
      16A     -0.844226    17A     -0.796580    18A     -0.729524
      19A     -0.699459    20A     -0.675317    21A     -0.639594
      22A     -0.630917    23A     -0.626552    24A     -0.604375
      25A     -0.583697    26A     -0.527412    27A     -0.518735
      28A     -0.508625    29A     -0.483060    30A     -0.457221
      31A     -0.356156    32A     -0.350770

  @DF-RHF Final Energy:  -418.46783933004201

   => Energetics <=

    Nuclear Repulsion Energy =            403.9339608407171909
    One-Electron Energy =               -1370.6472659078042398
    Two-Electron Energy =                 548.2454657370450377
    Total Energy =                       -418.4678393300420112
  Basis Set: (AUG-CC-PVTZ AUX)
    Blend: AUG-CC-PVTZ-RI
    Molecular point group: c1

    Geometry (in Angstrom), charge = 0, multiplicity = 1:

       Center              X                  Y                   Z               Mass
    ------------   -----------------  -----------------  -----------------  -----------------
         O           -2.262838556266    -1.107467707854    -0.000041033632    15.994914619570
         O           -2.296416556266     1.155311292146    -0.000294033632    15.994914619570
         C           -0.177128556266     0.019228292146    -0.000015033632    12.000000000000
         C            0.549419443734     1.216096292146    -0.000110033632    12.000000000000
         C            0.487420443734    -1.213742707854     0.000184966368    12.000000000000
         C            1.942058443734     1.178690292146    -0.000006033632    12.000000000000
         C            1.881749443734    -1.240590707854     0.000288966368    12.000000000000
         C            2.610591443734    -0.048643707854     0.000193966368    12.000000000000
         C           -1.658825556266     0.113214292146    -0.000132033632    12.000000000000
         H            0.008772443734     2.158390292146    -0.000265033632     1.007825032230
         H           -0.083765556266    -2.136710707854     0.000257966368     1.007825032230
         H            2.508011443734     2.106891292146    -0.000080033632     1.007825032230
         H            2.401983443734    -2.195218707854     0.000444966368     1.007825032230
         H            3.697658443734    -0.076207707854     0.000274966368     1.007825032230
         H           -3.272347356266    -0.905221807854    -0.000134533632     1.007825032230

  Basis Set: AUG-CC-PVTZ
    Blend: AUG-CC-PVTZ
  Basis Set: (AUG-CC-PVTZ AUX)
    Blend: AUG-CC-PVTZ-JKFIT
	 Reference Energy          =    -418.4678393300420112 [Eh]
	 Singles Energy            =      -0.0000000000000000 [Eh]
	 Same-Spin Energy          =      -0.4354849056712703 [Eh]
	 Opposite-Spin Energy      =      -1.3168776460646829 [Eh]
	 Correlation Energy        =      -1.7523625517359531 [Eh]
	 Total Energy              =    -420.2202018817779390 [Eh]

	 ================> DF-SCS-MP2 Energies <==================
	-----------------------------------------------------------
	 SCS Same-Spin Scale       =       0.3333333333333333 [-]
	 SCS Opposite-Spin Scale   =       1.2000000000000000 [-]
	 SCS Same-Spin Energy      =      -0.1451616352237567 [Eh]
	 SCS Opposite-Spin Energy  =      -1.5802531752776194 [Eh]
	 SCS Correlation Energy    =      -1.7254148105013762 [Eh]
	 SCS Total Energy          =    -420.1932541405433881 [Eh]
	-----------------------------------------------------------

  Dipole Moment: [D]
     X:     1.4014      Y:    -1.3234      Z:     0.0003     Total:     1.9275

*** Psi4 exiting successfully. Buy a developer a beer!
