                               Psi4 1.3.2 release

  ==> Input File <==

--------------------------------------------------------------------------
#psi4
#
memory 32 gb

molecule  {
0 1
  O       -2.3042200    -1.0991630    -0.0003290
  O       -2.3377670     1.1635920     0.0000360
  C       -0.2184710     0.0274960    -0.0000150
  C        0.5080430     1.2243810    -0.0001580
  C        0.4461120    -1.2054740     0.0002260
  C        1.9006900     1.1869520    -0.0000810
  C        1.8404380    -1.2322990     0.0003120
  C        2.5692530    -0.0403490     0.0001580
  C       -1.6115419     0.3006963    -0.0000492
  H       -0.0326500     2.1666470    -0.0003250
  H       -0.1251480    -2.1283920     0.0003360
  H        2.4665660     2.1152060    -0.0002030
  H        2.3606420    -2.1869500     0.0005070
  H        3.6563130    -0.0679050     0.0002230
  H       -3.2647750    -0.9069250    -0.0003290
units angstrom
no_reorient  #important for SAPT in psi4, default
symmetry c1  #important for SAPT in psi4, default
}

set PROPERTIES_ORIGIN ["COM"]
properties('MP2/aug-cc-pvtz', properties = ['dipole'])
--------------------------------------------------------------------------

    Molecular point group: c1
  Charge       = 0
  Multiplicity = 1
  Basis Set: AUG-CC-PVTZ
    Blend: AUG-CC-PVTZ
  Basis Set: (AUG-CC-PVTZ AUX)
    Blend: AUG-CC-PVTZ-JKFIT

    Orbital Energies [Eh]
    ---------------------

    Doubly Occupied:

       1A    -20.578139     2A    -20.552410     3A    -11.391558
       4A    -11.269063     5A    -11.267925     6A    -11.265438
       7A    -11.263425     8A    -11.256447     9A    -11.255106
      10A     -1.486227    11A     -1.307196    12A     -1.181629
      13A     -1.068035    14A     -1.038647    15A     -0.904634
      16A     -0.852754    17A     -0.784408    18A     -0.729081
      19A     -0.695873    20A     -0.683947    21A     -0.641613
      22A     -0.630660    23A     -0.627949    24A     -0.611246
      25A     -0.584218    26A     -0.538385    27A     -0.521049
      28A     -0.518058    29A     -0.476657    30A     -0.443248
      31A     -0.367031    32A     -0.357728

  @DF-RHF Final Energy:  -418.43459104595667

   => Energetics <=

    Nuclear Repulsion Energy =            404.8356346518160649
    One-Electron Energy =               -1372.2408847620924917
    Two-Electron Energy =                 548.9706590643198751
    Total Energy =                       -418.4345910459566085
  Basis Set: (AUG-CC-PVTZ AUX)
    Blend: AUG-CC-PVTZ-RI
    Molecular point group: c1

    Geometry (in Angstrom), charge = 0, multiplicity = 1:

       Center              X                  Y                   Z               Mass
    ------------   -----------------  -----------------  -----------------  -----------------
         O           -2.271989073658    -1.124984451861    -0.000330947982    15.994914619570
         O           -2.305536073658     1.137770548139     0.000034052018    15.994914619570
         C           -0.186240073658     0.001674548139    -0.000016947982    12.000000000000
         C            0.540273926342     1.198559548139    -0.000159947982    12.000000000000
         C            0.478342926342    -1.231295451861     0.000224052018    12.000000000000
         C            1.932920926342     1.161130548139    -0.000082947982    12.000000000000
         C            1.872668926342    -1.258120451861     0.000310052018    12.000000000000
         C            2.601483926342    -0.066170451861     0.000156052018    12.000000000000
         C           -1.579310973658     0.274874848139    -0.000051147982    12.000000000000
         H           -0.000419073658     2.140825548139    -0.000326947982     1.007825032230
         H           -0.092917073658    -2.154213451861     0.000334052018     1.007825032230
         H            2.498796926342     2.089384548139    -0.000204947982     1.007825032230
         H            2.392872926342    -2.212771451861     0.000505052018     1.007825032230
         H            3.688543926342    -0.093726451861     0.000221052018     1.007825032230
         H           -3.232544073658    -0.932746451861    -0.000330947982     1.007825032230

  Basis Set: AUG-CC-PVTZ
    Blend: AUG-CC-PVTZ
  Basis Set: (AUG-CC-PVTZ AUX)
    Blend: AUG-CC-PVTZ-JKFIT
	 Reference Energy          =    -418.4345910459566653 [Eh]
	 Singles Energy            =      -0.0000000000000000 [Eh]
	 Same-Spin Energy          =      -0.4355277033727963 [Eh]
	 Opposite-Spin Energy      =      -1.3176986916799094 [Eh]
	 Correlation Energy        =      -1.7532263950527056 [Eh]
	 Total Energy              =    -420.1878174410093720 [Eh]

	 ================> DF-SCS-MP2 Energies <==================
	-----------------------------------------------------------
	 SCS Same-Spin Scale       =       0.3333333333333333 [-]
	 SCS Opposite-Spin Scale   =       1.2000000000000000 [-]
	 SCS Same-Spin Energy      =      -0.1451759011242654 [Eh]
	 SCS Opposite-Spin Energy  =      -1.5812384300158913 [Eh]
	 SCS Correlation Energy    =      -1.7264143311401567 [Eh]
	 SCS Total Energy          =    -420.1610053770968420 [Eh]
	-----------------------------------------------------------

  Dipole Moment: [D]
     X:     2.5925      Y:     0.1262      Z:     0.0003     Total:     2.5956

*** Psi4 exiting successfully. Buy a developer a beer!
