                               Psi4 1.3.2 release

  ==> Input File <==

--------------------------------------------------------------------------
#psi4
#
memory 32 gb

molecule  {
0 1
  O       -2.3042200    -1.0991630    -0.0003290
  O       -2.3737492     1.1407078     0.0000305
  C       -0.2184710     0.0274960    -0.0000150
  C        0.5080430     1.2243810    -0.0001580
  C        0.4461120    -1.2054740     0.0002260
  C        1.9006900     1.1869520    -0.0000810
  C        1.8404380    -1.2322990     0.0003120
  C        2.5692530    -0.0403490     0.0001580
  C       -1.7002410     0.1214410    -0.0000850
  H       -0.0326500     2.1666470    -0.0003250
  H       -0.1251480    -2.1283920     0.0003360
  H        2.4665660     2.1152060    -0.0002030
  H        2.3606420    -2.1869500     0.0005070
  H        3.6563130    -0.0679050     0.0002230
  H       -3.2647750    -0.9069250    -0.0003290
units angstrom
no_reorient  #important for SAPT in psi4, default
symmetry c1  #important for SAPT in psi4, default
}

set PROPERTIES_ORIGIN ["COM"]
properties('MP2/aug-cc-pvtz', properties = ['dipole'])
--------------------------------------------------------------------------

    Molecular point group: c1
  Charge       = 0
  Multiplicity = 1
  Basis Set: AUG-CC-PVTZ
    Blend: AUG-CC-PVTZ
  Basis Set: (AUG-CC-PVTZ AUX)
    Blend: AUG-CC-PVTZ-JKFIT

    Orbital Energies [Eh]
    ---------------------

    Doubly Occupied:

       1A    -20.613498     2A    -20.549002     3A    -11.394099
       4A    -11.261304     5A    -11.260134     6A    -11.260054
       7A    -11.257383     8A    -11.251087     9A    -11.250281
      10A     -1.460687    11A     -1.352580    12A     -1.171906
      13A     -1.051949    14A     -1.032505    15A     -0.900019
      16A     -0.846020    17A     -0.801000    18A     -0.730688
      19A     -0.703357    20A     -0.676814    21A     -0.641618
      22A     -0.631426    23A     -0.627530    24A     -0.605631
      25A     -0.586940    26A     -0.529108    27A     -0.519856
      28A     -0.510094    29A     -0.482631    30A     -0.457597
      31A     -0.357776    32A     -0.352133

  @DF-RHF Final Energy:  -418.47286663568730

   => Energetics <=

    Nuclear Repulsion Energy =            404.0397660842457412
    One-Electron Energy =               -1370.7718514249120290
    Two-Electron Energy =                 548.2592187049790482
    Total Energy =                       -418.4728666356872964
  Basis Set: (AUG-CC-PVTZ AUX)
    Blend: AUG-CC-PVTZ-RI
    Molecular point group: c1

    Geometry (in Angstrom), charge = 0, multiplicity = 1:

       Center              X                  Y                   Z               Mass
    ------------   -----------------  -----------------  -----------------  -----------------
         O           -2.258551145974    -1.104358748390    -0.000326706867    15.994914619570
         O           -2.328080345974     1.135512051610     0.000032793133    15.994914619570
         C           -0.172802145974     0.022300251610    -0.000012706867    12.000000000000
         C            0.553711854026     1.219185251610    -0.000155706867    12.000000000000
         C            0.491780854026    -1.210669748390     0.000228293133    12.000000000000
         C            1.946358854026     1.181756251610    -0.000078706867    12.000000000000
         C            1.886106854026    -1.237494748390     0.000314293133    12.000000000000
         C            2.614921854026    -0.045544748390     0.000160293133    12.000000000000
         C           -1.654572145974     0.116245251610    -0.000082706867    12.000000000000
         H            0.013018854026     2.161451251610    -0.000322706867     1.007825032230
         H           -0.079479145974    -2.133587748390     0.000338293133     1.007825032230
         H            2.512234854026     2.110010251610    -0.000200706867     1.007825032230
         H            2.406310854026    -2.192145748390     0.000509293133     1.007825032230
         H            3.701981854026    -0.073100748390     0.000225293133     1.007825032230
         H           -3.219106145974    -0.912120748390    -0.000326706867     1.007825032230

  Basis Set: AUG-CC-PVTZ
    Blend: AUG-CC-PVTZ
  Basis Set: (AUG-CC-PVTZ AUX)
    Blend: AUG-CC-PVTZ-JKFIT
	 Reference Energy          =    -418.4728666356872964 [Eh]
	 Singles Energy            =      -0.0000000000000000 [Eh]
	 Same-Spin Energy          =      -0.4347315990047546 [Eh]
	 Opposite-Spin Energy      =      -1.3151463694486156 [Eh]
	 Correlation Energy        =      -1.7498779684533701 [Eh]
	 Total Energy              =    -420.2227446041406438 [Eh]

	 ================> DF-SCS-MP2 Energies <==================
	-----------------------------------------------------------
	 SCS Same-Spin Scale       =       0.3333333333333333 [-]
	 SCS Opposite-Spin Scale   =       1.2000000000000000 [-]
	 SCS Same-Spin Energy      =      -0.1449105330015849 [Eh]
	 SCS Opposite-Spin Energy  =      -1.5781756433383387 [Eh]
	 SCS Correlation Energy    =      -1.7230861763399234 [Eh]
	 SCS Total Energy          =    -420.1959528120272012 [Eh]
	-----------------------------------------------------------

  Dipole Moment: [D]
     X:     1.6214      Y:    -1.2789      Z:    -0.0000     Total:     2.0651

*** Psi4 exiting successfully. Buy a developer a beer!
