                               Psi4 1.3.2 release

  ==> Input File <==

--------------------------------------------------------------------------
#psi4
#
memory 32 gb

molecule  {
0 1
  O       -2.3042200    -1.0991630    -0.0003290
  O       -2.3377670     1.1635920     0.0000360
  C       -0.2184710     0.0274960    -0.0000150
  C        0.5080430     1.2243810    -0.0001580
  C        0.4461120    -1.2054740     0.0002260
  C        1.9006900     1.1869520    -0.0000810
  C        1.8404380    -1.2322990     0.0003120
  C        2.5692530    -0.0403490     0.0001580
  C       -1.7889401    -0.0578143    -0.0001208
  H       -0.0326500     2.1666470    -0.0003250
  H       -0.1251480    -2.1283920     0.0003360
  H        2.4665660     2.1152060    -0.0002030
  H        2.3606420    -2.1869500     0.0005070
  H        3.6563130    -0.0679050     0.0002230
  H       -3.2647750    -0.9069250    -0.0003290
units angstrom
no_reorient  #important for SAPT in psi4, default
symmetry c1  #important for SAPT in psi4, default
}

set PROPERTIES_ORIGIN ["COM"]
properties('MP2/aug-cc-pvtz', properties = ['dipole'])
--------------------------------------------------------------------------

    Molecular point group: c1
  Charge       = 0
  Multiplicity = 1
  Basis Set: AUG-CC-PVTZ
    Blend: AUG-CC-PVTZ
  Basis Set: (AUG-CC-PVTZ AUX)
    Blend: AUG-CC-PVTZ-JKFIT

    Orbital Energies [Eh]
    ---------------------

    Doubly Occupied:

       1A    -20.676068     2A    -20.519183     3A    -11.401425
       4A    -11.260555     5A    -11.251598     6A    -11.251255
       7A    -11.249153     8A    -11.245331     9A    -11.244849
      10A     -1.587281    11A     -1.289965    12A     -1.162415
      13A     -1.040407    14A     -1.024534    15A     -0.937455
      16A     -0.836023    17A     -0.831345    18A     -0.768840
      19A     -0.719344    20A     -0.707908    21A     -0.677280
      22A     -0.632848    23A     -0.621370    24A     -0.597546
      25A     -0.556203    26A     -0.515413    27A     -0.511621
      28A     -0.496714    29A     -0.445698    30A     -0.428108
      31A     -0.349622    32A     -0.344438

  @DF-RHF Final Energy:  -418.41054979158156

   => Energetics <=

    Nuclear Repulsion Energy =            404.2559380059589671
    One-Electron Energy =               -1370.9693872765483320
    Two-Electron Energy =                 548.3028994790076922
    Total Energy =                       -418.4105497915816159
  Basis Set: (AUG-CC-PVTZ AUX)
    Blend: AUG-CC-PVTZ-RI
    Molecular point group: c1

    Geometry (in Angstrom), charge = 0, multiplicity = 1:

       Center              X                  Y                   Z               Mass
    ------------   -----------------  -----------------  -----------------  -----------------
         O           -2.254545329158    -1.089731741817    -0.000323907482    15.994914619570
         O           -2.288092329158     1.173023258183     0.000041092518    15.994914619570
         C           -0.168796329158     0.036927258183    -0.000009907482    12.000000000000
         C            0.557717670842     1.233812258183    -0.000152907482    12.000000000000
         C            0.495786670842    -1.196042741817     0.000231092518    12.000000000000
         C            1.950364670842     1.196383258183    -0.000075907482    12.000000000000
         C            1.890112670842    -1.222867741817     0.000317092518    12.000000000000
         C            2.618927670842    -0.030917741817     0.000163092518    12.000000000000
         C           -1.739265429158    -0.048383041817    -0.000115707482    12.000000000000
         H            0.017024670842     2.176078258183    -0.000319907482     1.007825032230
         H           -0.075473329158    -2.118960741817     0.000341092518     1.007825032230
         H            2.516240670842     2.124637258183    -0.000197907482     1.007825032230
         H            2.410316670842    -2.177518741817     0.000512092518     1.007825032230
         H            3.705987670842    -0.058473741817     0.000228092518     1.007825032230
         H           -3.215100329158    -0.897493741817    -0.000323907482     1.007825032230

  Basis Set: AUG-CC-PVTZ
    Blend: AUG-CC-PVTZ
  Basis Set: (AUG-CC-PVTZ AUX)
    Blend: AUG-CC-PVTZ-JKFIT
	 Reference Energy          =    -418.4105497915815590 [Eh]
	 Singles Energy            =      -0.0000000000000000 [Eh]
	 Same-Spin Energy          =      -0.4360473629966962 [Eh]
	 Opposite-Spin Energy      =      -1.3161681144112374 [Eh]
	 Correlation Energy        =      -1.7522154774079337 [Eh]
	 Total Energy              =    -420.1627652689895172 [Eh]

	 ================> DF-SCS-MP2 Energies <==================
	-----------------------------------------------------------
	 SCS Same-Spin Scale       =       0.3333333333333333 [-]
	 SCS Opposite-Spin Scale   =       1.2000000000000000 [-]
	 SCS Same-Spin Energy      =      -0.1453491209988987 [Eh]
	 SCS Opposite-Spin Energy  =      -1.5794017372934848 [Eh]
	 SCS Correlation Energy    =      -1.7247508582923836 [Eh]
	 SCS Total Energy          =    -420.1353006498739546 [Eh]
	-----------------------------------------------------------

  Dipole Moment: [D]
     X:     0.6275      Y:    -2.7060      Z:    -0.0004     Total:     2.7778

*** Psi4 exiting successfully. Buy a developer a beer!
