                               Psi4 1.3.2 release

  ==> Input File <==

--------------------------------------------------------------------------
#psi4
#
memory 32 gb

molecule  {
0 1
  O       -2.3042200    -1.0991630    -0.0003290
  O       -2.3377670     1.1635920     0.0000360
  C       -0.2184710     0.0274960    -0.0000150
  C        0.5080430     1.2243810    -0.0001580
  C        0.4461120    -1.2054740     0.0002260
  C        1.9006900     1.1869520    -0.0000810
  C        1.8404380    -1.2322990     0.0003120
  C        2.5692530    -0.0403490     0.0001580
  C       -1.6480569     0.0361367    -0.0000949
  H       -0.0326500     2.1666470    -0.0003250
  H       -0.1251480    -2.1283920     0.0003360
  H        2.4665660     2.1152060    -0.0002030
  H        2.3606420    -2.1869500     0.0005070
  H        3.6563130    -0.0679050     0.0002230
  H       -3.2647750    -0.9069250    -0.0003290
units angstrom
no_reorient  #important for SAPT in psi4, default
symmetry c1  #important for SAPT in psi4, default
}

set PROPERTIES_ORIGIN ["COM"]
properties('MP2/aug-cc-pvtz', properties = ['dipole'])
--------------------------------------------------------------------------

    Molecular point group: c1
  Charge       = 0
  Multiplicity = 1
  Basis Set: AUG-CC-PVTZ
    Blend: AUG-CC-PVTZ
  Basis Set: (AUG-CC-PVTZ AUX)
    Blend: AUG-CC-PVTZ-JKFIT

    Orbital Energies [Eh]
    ---------------------

    Doubly Occupied:

       1A    -20.630091     2A    -20.527755     3A    -11.397335
       4A    -11.264929     5A    -11.264580     6A    -11.261935
       7A    -11.258782     8A    -11.253251     9A    -11.252627
      10A     -1.473729    11A     -1.297239    12A     -1.176451
      13A     -1.062057    14A     -1.035453    15A     -0.916151
      16A     -0.849898    17A     -0.814944    18A     -0.739574
      19A     -0.705324    20A     -0.681559    21A     -0.644280
      22A     -0.638552    23A     -0.625210    24A     -0.606944
      25A     -0.567420    26A     -0.527857    27A     -0.524216
      28A     -0.509719    29A     -0.453053    30A     -0.442510
      31A     -0.359518    32A     -0.353998

  @DF-RHF Final Energy:  -418.45143885289730

   => Energetics <=

    Nuclear Repulsion Energy =            404.4184650418165461
    One-Electron Energy =               -1371.5059248806740015
    Two-Electron Energy =                 548.6360209859601582
    Total Energy =                       -418.4514388528973541
  Basis Set: (AUG-CC-PVTZ AUX)
    Blend: AUG-CC-PVTZ-RI
    Molecular point group: c1

    Geometry (in Angstrom), charge = 0, multiplicity = 1:

       Center              X                  Y                   Z               Mass
    ------------   -----------------  -----------------  -----------------  -----------------
         O           -2.268398516761    -1.098970038708    -0.000326454255    15.994914619570
         O           -2.301945516761     1.163784961292     0.000038545745    15.994914619570
         C           -0.182649516761     0.027688961292    -0.000012454255    12.000000000000
         C            0.543864483239     1.224573961292    -0.000155454255    12.000000000000
         C            0.481933483239    -1.205281038708     0.000228545745    12.000000000000
         C            1.936511483239     1.187144961292    -0.000078454255    12.000000000000
         C            1.876259483239    -1.232106038708     0.000314545745    12.000000000000
         C            2.605074483239    -0.040156038708     0.000160545745    12.000000000000
         C           -1.612235416761     0.036329661292    -0.000092354255    12.000000000000
         H            0.003171483239     2.166839961292    -0.000322454255     1.007825032230
         H           -0.089326516761    -2.128199038708     0.000338545745     1.007825032230
         H            2.502387483239     2.115398961292    -0.000200454255     1.007825032230
         H            2.396463483239    -2.186757038708     0.000509545745     1.007825032230
         H            3.692134483239    -0.067712038708     0.000225545745     1.007825032230
         H           -3.228953516761    -0.906732038708    -0.000326454255     1.007825032230

  Basis Set: AUG-CC-PVTZ
    Blend: AUG-CC-PVTZ
  Basis Set: (AUG-CC-PVTZ AUX)
    Blend: AUG-CC-PVTZ-JKFIT
	 Reference Energy          =    -418.4514388528972972 [Eh]
	 Singles Energy            =      -0.0000000000000000 [Eh]
	 Same-Spin Energy          =      -0.4367928113913250 [Eh]
	 Opposite-Spin Energy      =      -1.3189154731497110 [Eh]
	 Correlation Energy        =      -1.7557082845410359 [Eh]
	 Total Energy              =    -420.2071471374383123 [Eh]

	 ================> DF-SCS-MP2 Energies <==================
	-----------------------------------------------------------
	 SCS Same-Spin Scale       =       0.3333333333333333 [-]
	 SCS Opposite-Spin Scale   =       1.2000000000000000 [-]
	 SCS Same-Spin Energy      =      -0.1455976037971083 [Eh]
	 SCS Opposite-Spin Energy  =      -1.5826985677796532 [Eh]
	 SCS Correlation Energy    =      -1.7282961715767615 [Eh]
	 SCS Total Energy          =    -420.1797350244740414 [Eh]
	-----------------------------------------------------------

  Dipole Moment: [D]
     X:     1.8516      Y:    -1.8797      Z:    -0.0001     Total:     2.6385

*** Psi4 exiting successfully. Buy a developer a beer!
