                               Psi4 1.3.2 release

  ==> Input File <==

--------------------------------------------------------------------------
#psi4
#
memory 32 gb

molecule  {
0 1
  O       -2.3042200    -1.0991630    -0.0003290
  O       -2.3377670     1.1635920     0.0000360
  C       -0.2184710     0.0274960    -0.0000150
  C        0.4658297     1.2490069    -0.0001631
  C        0.4461120    -1.2054740     0.0002260
  C        1.9006900     1.1869520    -0.0000810
  C        1.8404380    -1.2322990     0.0003120
  C        2.5692530    -0.0403490     0.0001580
  C       -1.7002410     0.1214410    -0.0000850
  H       -0.0326500     2.1666470    -0.0003250
  H       -0.1251480    -2.1283920     0.0003360
  H        2.4665660     2.1152060    -0.0002030
  H        2.3606420    -2.1869500     0.0005070
  H        3.6563130    -0.0679050     0.0002230
  H       -3.2647750    -0.9069250    -0.0003290
units angstrom
no_reorient  #important for SAPT in psi4, default
symmetry c1  #important for SAPT in psi4, default
}

set PROPERTIES_ORIGIN ["COM"]
properties('MP2/aug-cc-pvtz', properties = ['dipole'])
--------------------------------------------------------------------------

    Molecular point group: c1
  Charge       = 0
  Multiplicity = 1
  Basis Set: AUG-CC-PVTZ
    Blend: AUG-CC-PVTZ
  Basis Set: (AUG-CC-PVTZ AUX)
    Blend: AUG-CC-PVTZ-JKFIT

    Orbital Energies [Eh]
    ---------------------

    Doubly Occupied:

       1A    -20.616714     2A    -20.549388     3A    -11.393558
       4A    -11.260382     5A    -11.258660     6A    -11.258522
       7A    -11.258082     8A    -11.254211     9A    -11.250994
      10A     -1.460644    11A     -1.355884    12A     -1.167183
      13A     -1.051320    14A     -1.027704    15A     -0.898524
      16A     -0.847757    17A     -0.799565    18A     -0.730591
      19A     -0.705213    20A     -0.679115    21A     -0.642561
      22A     -0.632299    23A     -0.624718    24A     -0.608298
      25A     -0.585609    26A     -0.524217    27A     -0.516931
      28A     -0.515005    29A     -0.483828    30A     -0.457412
      31A     -0.357789    32A     -0.346717

  @DF-RHF Final Energy:  -418.46916259297120

   => Energetics <=

    Nuclear Repulsion Energy =            403.8155985196878532
    One-Electron Energy =               -1370.3307276073858247
    Two-Electron Energy =                 548.0459664947267129
    Total Energy =                       -418.4691625929712018
  Basis Set: (AUG-CC-PVTZ AUX)
    Blend: AUG-CC-PVTZ-RI
    Molecular point group: c1

    Geometry (in Angstrom), charge = 0, multiplicity = 1:

       Center              X                  Y                   Z               Mass
    ------------   -----------------  -----------------  -----------------  -----------------
         O           -2.259116324907    -1.109779586503    -0.000326926244    15.994914619570
         O           -2.292663324907     1.152975413497     0.000038073756    15.994914619570
         C           -0.173367324907     0.016879413497    -0.000012926244    12.000000000000
         C            0.510933375093     1.238390313497    -0.000161026244    12.000000000000
         C            0.491215675093    -1.216090586503     0.000228073756    12.000000000000
         C            1.945793675093     1.176335413497    -0.000078926244    12.000000000000
         C            1.885541675093    -1.242915586503     0.000314073756    12.000000000000
         C            2.614356675093    -0.050965586503     0.000160073756    12.000000000000
         C           -1.655137324907     0.110824413497    -0.000082926244    12.000000000000
         H            0.012453675093     2.156030413497    -0.000322926244     1.007825032230
         H           -0.080044324907    -2.139008586503     0.000338073756     1.007825032230
         H            2.511669675093     2.104589413497    -0.000200926244     1.007825032230
         H            2.405745675093    -2.197566586503     0.000509073756     1.007825032230
         H            3.701416675093    -0.078521586503     0.000225073756     1.007825032230
         H           -3.219671324907    -0.917541586503    -0.000326926244     1.007825032230

  Basis Set: AUG-CC-PVTZ
    Blend: AUG-CC-PVTZ
  Basis Set: (AUG-CC-PVTZ AUX)
    Blend: AUG-CC-PVTZ-JKFIT
	 Reference Energy          =    -418.4691625929712018 [Eh]
	 Singles Energy            =      -0.0000000000000000 [Eh]
	 Same-Spin Energy          =      -0.4348653218405074 [Eh]
	 Opposite-Spin Energy      =      -1.3157182544557786 [Eh]
	 Correlation Energy        =      -1.7505835762962860 [Eh]
	 Total Energy              =    -420.2197461692674665 [Eh]

	 ================> DF-SCS-MP2 Energies <==================
	-----------------------------------------------------------
	 SCS Same-Spin Scale       =       0.3333333333333333 [-]
	 SCS Opposite-Spin Scale   =       1.2000000000000000 [-]
	 SCS Same-Spin Energy      =      -0.1449551072801691 [Eh]
	 SCS Opposite-Spin Energy  =      -1.5788619053469344 [Eh]
	 SCS Correlation Energy    =      -1.7238170126271035 [Eh]
	 SCS Total Energy          =    -420.1929796055982820 [Eh]
	-----------------------------------------------------------

  Dipole Moment: [D]
     X:     1.4799      Y:    -1.3089      Z:    -0.0001     Total:     1.9757

*** Psi4 exiting successfully. Buy a developer a beer!
