                               Psi4 1.3.2 release

  ==> Input File <==

--------------------------------------------------------------------------
#psi4
#
memory 32 gb

molecule  {
0 1
  O       -2.3042200    -1.0991630    -0.0003290
  O       -2.3194819     1.1745596     0.0000387
  C       -0.2184710     0.0274960    -0.0000150
  C        0.5080430     1.2243810    -0.0001580
  C        0.4461120    -1.2054740     0.0002260
  C        1.9006900     1.1869520    -0.0000810
  C        1.8404380    -1.2322990     0.0003120
  C        2.5692530    -0.0403490     0.0001580
  C       -1.7002410     0.1214410    -0.0000850
  H       -0.0326500     2.1666470    -0.0003250
  H       -0.1251480    -2.1283920     0.0003360
  H        2.4665660     2.1152060    -0.0002030
  H        2.3606420    -2.1869500     0.0005070
  H        3.6563130    -0.0679050     0.0002230
  H       -3.2647750    -0.9069250    -0.0003290
units angstrom
no_reorient  #important for SAPT in psi4, default
symmetry c1  #important for SAPT in psi4, default
}

set PROPERTIES_ORIGIN ["COM"]
properties('MP2/aug-cc-pvtz', properties = ['dipole'])
--------------------------------------------------------------------------

    Molecular point group: c1
  Charge       = 0
  Multiplicity = 1
  Basis Set: AUG-CC-PVTZ
    Blend: AUG-CC-PVTZ
  Basis Set: (AUG-CC-PVTZ AUX)
    Blend: AUG-CC-PVTZ-JKFIT

    Orbital Energies [Eh]
    ---------------------

    Doubly Occupied:

       1A    -20.619048     2A    -20.550261     3A    -11.394837
       4A    -11.258954     5A    -11.258401     6A    -11.257721
       7A    -11.255095     8A    -11.249579     9A    -11.248719
      10A     -1.461236    11A     -1.357848    12A     -1.169952
      13A     -1.049916    14A     -1.030784    15A     -0.899442
      16A     -0.844457    17A     -0.801114    18A     -0.730689
      19A     -0.706090    20A     -0.675772    21A     -0.640367
      22A     -0.633315    23A     -0.626871    24A     -0.604536
      25A     -0.586891    26A     -0.527485    27A     -0.519165
      28A     -0.508306    29A     -0.485134    30A     -0.458221
      31A     -0.355786    32A     -0.350477

  @DF-RHF Final Energy:  -418.47271770925511

   => Energetics <=

    Nuclear Repulsion Energy =            404.3422678539847652
    One-Electron Energy =               -1371.3970319354702951
    Two-Electron Energy =                 548.5820463722303657
    Total Energy =                       -418.4727177092551074
  Basis Set: (AUG-CC-PVTZ AUX)
    Blend: AUG-CC-PVTZ-RI
    Molecular point group: c1

    Geometry (in Angstrom), charge = 0, multiplicity = 1:

       Center              X                  Y                   Z               Mass
    ------------   -----------------  -----------------  -----------------  -----------------
         O           -2.265663762630    -1.108795580083    -0.000327781611    15.994914619570
         O           -2.280925662630     1.164927019917     0.000039918389    15.994914619570
         C           -0.179914762630     0.017863419917    -0.000013781611    12.000000000000
         C            0.546599237370     1.214748419917    -0.000156781611    12.000000000000
         C            0.484668237370    -1.215106580083     0.000227218389    12.000000000000
         C            1.939246237370     1.177319419917    -0.000079781611    12.000000000000
         C            1.878994237370    -1.241931580083     0.000313218389    12.000000000000
         C            2.607809237370    -0.049981580083     0.000159218389    12.000000000000
         C           -1.661684762630     0.111808419917    -0.000083781611    12.000000000000
         H            0.005906237370     2.157014419917    -0.000323781611     1.007825032230
         H           -0.086591762630    -2.138024580083     0.000337218389     1.007825032230
         H            2.505122237370     2.105573419917    -0.000201781611     1.007825032230
         H            2.399198237370    -2.196582580083     0.000508218389     1.007825032230
         H            3.694869237370    -0.077537580083     0.000224218389     1.007825032230
         H           -3.226218762630    -0.916557580083    -0.000327781611     1.007825032230

  Basis Set: AUG-CC-PVTZ
    Blend: AUG-CC-PVTZ
  Basis Set: (AUG-CC-PVTZ AUX)
    Blend: AUG-CC-PVTZ-JKFIT
	 Reference Energy          =    -418.4727177092551074 [Eh]
	 Singles Energy            =      -0.0000000000000000 [Eh]
	 Same-Spin Energy          =      -0.4348940263479761 [Eh]
	 Opposite-Spin Energy      =      -1.3154293762068421 [Eh]
	 Correlation Energy        =      -1.7503234025548182 [Eh]
	 Total Energy              =    -420.2230411118099482 [Eh]

	 ================> DF-SCS-MP2 Energies <==================
	-----------------------------------------------------------
	 SCS Same-Spin Scale       =       0.3333333333333333 [-]
	 SCS Opposite-Spin Scale   =       1.2000000000000000 [-]
	 SCS Same-Spin Energy      =      -0.1449646754493253 [Eh]
	 SCS Opposite-Spin Energy  =      -1.5785152514482104 [Eh]
	 SCS Correlation Energy    =      -1.7234799268975358 [Eh]
	 SCS Total Energy          =    -420.1961976361526467 [Eh]
	-----------------------------------------------------------

  Dipole Moment: [D]
     X:     1.3932      Y:    -1.3382      Z:    -0.0001     Total:     1.9317

*** Psi4 exiting successfully. Buy a developer a beer!
