                               Psi4 1.3.2 release

  ==> Input File <==

--------------------------------------------------------------------------
#psi4
#
memory 32 gb

molecule  {
0 1
  O       -2.3042200    -1.0991630    -0.0003290
  O       -2.3377670     1.1635920     0.0000360
  C       -0.2184710     0.0274960    -0.0000150
  C        0.5080430     1.2243810    -0.0001580
  C        0.4461120    -1.2054740     0.0002260
  C        1.9006900     1.1869520    -0.0000810
  C        1.8404380    -1.2322990     0.0003120
  C        2.5692530    -0.0403490     0.0001580
  C       -1.8311375     0.1778874    -0.0000795
  H       -0.0326500     2.1666470    -0.0003250
  H       -0.1251480    -2.1283920     0.0003360
  H        2.4665660     2.1152060    -0.0002030
  H        2.3606420    -2.1869500     0.0005070
  H        3.6563130    -0.0679050     0.0002230
  H       -3.2647750    -0.9069250    -0.0003290
units angstrom
no_reorient  #important for SAPT in psi4, default
symmetry c1  #important for SAPT in psi4, default
}

set PROPERTIES_ORIGIN ["COM"]
properties('MP2/aug-cc-pvtz', properties = ['dipole'])
--------------------------------------------------------------------------

    Molecular point group: c1
  Charge       = 0
  Multiplicity = 1
  Basis Set: AUG-CC-PVTZ
    Blend: AUG-CC-PVTZ
  Basis Set: (AUG-CC-PVTZ AUX)
    Blend: AUG-CC-PVTZ-JKFIT

    Orbital Energies [Eh]
    ---------------------

    Doubly Occupied:

       1A    -20.621776     2A    -20.572894     3A    -11.391154
       4A    -11.253526     5A    -11.246654     6A    -11.246471
       7A    -11.243700     8A    -11.242086     9A    -11.241370
      10A     -1.512478    11A     -1.412066    12A     -1.157202
      13A     -1.027911    14A     -1.021401    15A     -0.874566
      16A     -0.833667    17A     -0.794264    18A     -0.740079
      19A     -0.721791    20A     -0.679212    21A     -0.661999
      22A     -0.641392    23A     -0.626079    24A     -0.600918
      25A     -0.585184    26A     -0.531642    27A     -0.525473
      28A     -0.506724    29A     -0.499932    30A     -0.445385
      31A     -0.345080    32A     -0.342591

  @DF-RHF Final Energy:  -418.44913752592640

   => Energetics <=

    Nuclear Repulsion Energy =            404.1017041377258465
    One-Electron Energy =               -1370.8083516866706759
    Two-Electron Energy =                 548.2575100230184262
    Total Energy =                       -418.4491375259264032
  Basis Set: (AUG-CC-PVTZ AUX)
    Blend: AUG-CC-PVTZ-RI
    Molecular point group: c1

    Geometry (in Angstrom), charge = 0, multiplicity = 1:

       Center              X                  Y                   Z               Mass
    ------------   -----------------  -----------------  -----------------  -----------------
         O           -2.250396016120    -1.112908528464    -0.000327968552    15.994914619570
         O           -2.283943016120     1.149846471536     0.000037031448    15.994914619570
         C           -0.164647016120     0.013750471536    -0.000013968552    12.000000000000
         C            0.561866983880     1.210635471536    -0.000156968552    12.000000000000
         C            0.499935983880    -1.219219528464     0.000227031448    12.000000000000
         C            1.954513983880     1.173206471536    -0.000079968552    12.000000000000
         C            1.894261983880    -1.246044528464     0.000313031448    12.000000000000
         C            2.623076983880    -0.054094528464     0.000159031448    12.000000000000
         C           -1.777313516120     0.164141871536    -0.000078468552    12.000000000000
         H            0.021173983880     2.152901471536    -0.000323968552     1.007825032230
         H           -0.071324016120    -2.142137528464     0.000337031448     1.007825032230
         H            2.520389983880     2.101460471536    -0.000201968552     1.007825032230
         H            2.414465983880    -2.200695528464     0.000508031448     1.007825032230
         H            3.710136983880    -0.081650528464     0.000224031448     1.007825032230
         H           -3.210951016120    -0.920670528464    -0.000327968552     1.007825032230

  Basis Set: AUG-CC-PVTZ
    Blend: AUG-CC-PVTZ
  Basis Set: (AUG-CC-PVTZ AUX)
    Blend: AUG-CC-PVTZ-JKFIT
	 Reference Energy          =    -418.4491375259264032 [Eh]
	 Singles Energy            =      -0.0000000000000000 [Eh]
	 Same-Spin Energy          =      -0.4329622423856340 [Eh]
	 Opposite-Spin Energy      =      -1.3112785112258201 [Eh]
	 Correlation Energy        =      -1.7442407536114541 [Eh]
	 Total Energy              =    -420.1933782795378534 [Eh]

	 ================> DF-SCS-MP2 Energies <==================
	-----------------------------------------------------------
	 SCS Same-Spin Scale       =       0.3333333333333333 [-]
	 SCS Opposite-Spin Scale   =       1.2000000000000000 [-]
	 SCS Same-Spin Energy      =      -0.1443207474618780 [Eh]
	 SCS Opposite-Spin Energy  =      -1.5735342134709840 [Eh]
	 SCS Correlation Energy    =      -1.7178549609328619 [Eh]
	 SCS Total Energy          =    -420.1669924868592716 [Eh]
	-----------------------------------------------------------

  Dipole Moment: [D]
     X:     0.2712      Y:    -0.9033      Z:    -0.0000     Total:     0.9431

*** Psi4 exiting successfully. Buy a developer a beer!
