                               Psi4 1.3.2 release

  ==> Input File <==

--------------------------------------------------------------------------
#psi4
#
memory 32 gb

molecule  {
0 1
  O       -2.2828255    -1.1095180    -0.0003295
  O       -2.3377670     1.1635920     0.0000360
  C       -0.2184710     0.0274960    -0.0000150
  C        0.5080430     1.2243810    -0.0001580
  C        0.4461120    -1.2054740     0.0002260
  C        1.9006900     1.1869520    -0.0000810
  C        1.8404380    -1.2322990     0.0003120
  C        2.5692530    -0.0403490     0.0001580
  C       -1.7002410     0.1214410    -0.0000850
  H       -0.0326500     2.1666470    -0.0003250
  H       -0.1251480    -2.1283920     0.0003360
  H        2.4665660     2.1152060    -0.0002030
  H        2.3606420    -2.1869500     0.0005070
  H        3.6563130    -0.0679050     0.0002230
  H       -3.2647750    -0.9069250    -0.0003290
units angstrom
no_reorient  #important for SAPT in psi4, default
symmetry c1  #important for SAPT in psi4, default
}

set PROPERTIES_ORIGIN ["COM"]
properties('MP2/aug-cc-pvtz', properties = ['dipole'])
--------------------------------------------------------------------------

    Molecular point group: c1
  Charge       = 0
  Multiplicity = 1
  Basis Set: AUG-CC-PVTZ
    Blend: AUG-CC-PVTZ
  Basis Set: (AUG-CC-PVTZ AUX)
    Blend: AUG-CC-PVTZ-JKFIT

    Orbital Energies [Eh]
    ---------------------

    Doubly Occupied:

       1A    -20.620218     2A    -20.551042     3A    -11.394681
       4A    -11.258922     5A    -11.258487     6A    -11.257654
       7A    -11.255228     8A    -11.249627     9A    -11.248766
      10A     -1.458962    11A     -1.356196    12A     -1.169999
      13A     -1.049808    14A     -1.030849    15A     -0.897581
      16A     -0.844297    17A     -0.798013    18A     -0.729983
      19A     -0.703860    20A     -0.675577    21A     -0.640179
      22A     -0.632926    23A     -0.626951    24A     -0.604610
      25A     -0.585912    26A     -0.527803    27A     -0.518773
      28A     -0.508421    29A     -0.485163    30A     -0.458398
      31A     -0.355935    32A     -0.350571

  @DF-RHF Final Energy:  -418.47045430927312

   => Energetics <=

    Nuclear Repulsion Energy =            404.3131496524791260
    One-Electron Energy =               -1371.3564288714378563
    Two-Electron Energy =                 548.5728249096856644
    Total Energy =                       -418.4704543092731228
  Basis Set: (AUG-CC-PVTZ AUX)
    Blend: AUG-CC-PVTZ-RI
    Molecular point group: c1

    Geometry (in Angstrom), charge = 0, multiplicity = 1:

       Center              X                  Y                   Z               Mass
    ------------   -----------------  -----------------  -----------------  -----------------
         O           -2.244676800323    -1.116355904838    -0.000327862199    15.994914619570
         O           -2.299618300323     1.156754095162     0.000037637801    15.994914619570
         C           -0.180322300323     0.020658095162    -0.000013362199    12.000000000000
         C            0.546191699677     1.217543095162    -0.000156362199    12.000000000000
         C            0.484260699677    -1.212311904838     0.000227637801    12.000000000000
         C            1.938838699677     1.180114095162    -0.000079362199    12.000000000000
         C            1.878586699677    -1.239136904838     0.000313637801    12.000000000000
         C            2.607401699677    -0.047186904838     0.000159637801    12.000000000000
         C           -1.662092300323     0.114603095162    -0.000083362199    12.000000000000
         H            0.005498699677     2.159809095162    -0.000323362199     1.007825032230
         H           -0.086999300323    -2.135229904838     0.000337637801     1.007825032230
         H            2.504714699677     2.108368095162    -0.000201362199     1.007825032230
         H            2.398790699677    -2.193787904838     0.000508637801     1.007825032230
         H            3.694461699677    -0.074742904838     0.000224637801     1.007825032230
         H           -3.226626300323    -0.913762904838    -0.000327362199     1.007825032230

  Basis Set: AUG-CC-PVTZ
    Blend: AUG-CC-PVTZ
  Basis Set: (AUG-CC-PVTZ AUX)
    Blend: AUG-CC-PVTZ-JKFIT
	 Reference Energy          =    -418.4704543092731228 [Eh]
	 Singles Energy            =      -0.0000000000000000 [Eh]
	 Same-Spin Energy          =      -0.4353247811968898 [Eh]
	 Opposite-Spin Energy      =      -1.3163478578435996 [Eh]
	 Correlation Energy        =      -1.7516726390404895 [Eh]
	 Total Energy              =    -420.2221269483135870 [Eh]

	 ================> DF-SCS-MP2 Energies <==================
	-----------------------------------------------------------
	 SCS Same-Spin Scale       =       0.3333333333333333 [-]
	 SCS Opposite-Spin Scale   =       1.2000000000000000 [-]
	 SCS Same-Spin Energy      =      -0.1451082603989632 [Eh]
	 SCS Opposite-Spin Energy  =      -1.5796174294123195 [Eh]
	 SCS Correlation Energy    =      -1.7247256898112828 [Eh]
	 SCS Total Energy          =    -420.1951799990844165 [Eh]
	-----------------------------------------------------------

  Dipole Moment: [D]
     X:     1.4078      Y:    -1.3192      Z:    -0.0001     Total:     1.9293

*** Psi4 exiting successfully. Buy a developer a beer!
