                               Psi4 1.3.2 release

  ==> Input File <==

--------------------------------------------------------------------------
#psi4
#
memory 32 gb

molecule  {
0 1
  O       -2.3042200    -1.0991630    -0.0003290
  O       -2.3377670     1.1635920     0.0000360
  C       -0.2184710     0.0274960    -0.0000150
  C        0.5080430     1.2243810    -0.0001580
  C        0.4461120    -1.2054740     0.0002260
  C        1.9006900     1.1869520    -0.0000810
  C        1.8404380    -1.2322990     0.0003120
  C        2.5692530    -0.0403490     0.0001580
  C       -1.8998402     0.1340957    -0.0000944
  H       -0.0326500     2.1666470    -0.0003250
  H       -0.1251480    -2.1283920     0.0003360
  H        2.4665660     2.1152060    -0.0002030
  H        2.3606420    -2.1869500     0.0005070
  H        3.6563130    -0.0679050     0.0002230
  H       -3.2647750    -0.9069250    -0.0003290
units angstrom
no_reorient  #important for SAPT in psi4, default
symmetry c1  #important for SAPT in psi4, default
}

set PROPERTIES_ORIGIN ["COM"]
properties('MP2/aug-cc-pvtz', properties = ['dipole'])
--------------------------------------------------------------------------

    Molecular point group: c1
  Charge       = 0
  Multiplicity = 1
  Basis Set: AUG-CC-PVTZ
    Blend: AUG-CC-PVTZ
  Basis Set: (AUG-CC-PVTZ AUX)
    Blend: AUG-CC-PVTZ-JKFIT

    Orbital Energies [Eh]
    ---------------------

    Doubly Occupied:

       1A    -20.645026     2A    -20.572422     3A    -11.398116
       4A    -11.247807     5A    -11.240984     6A    -11.240236
       7A    -11.238240     8A    -11.237808     9A    -11.237006
      10A     -1.524022    11A     -1.441132    12A     -1.150964
      13A     -1.019080    14A     -1.016205    15A     -0.878524
      16A     -0.827480    17A     -0.801013    18A     -0.753076
      19A     -0.723823    20A     -0.681699    21A     -0.679622
      22A     -0.637301    23A     -0.622324    24A     -0.598187
      25A     -0.582134    26A     -0.533069    27A     -0.529011
      28A     -0.501848    29A     -0.494831    30A     -0.429514
      31A     -0.339055    32A     -0.337831

  @DF-RHF Final Energy:  -418.43348767153515

   => Energetics <=

    Nuclear Repulsion Energy =            403.8299120508980309
    One-Electron Energy =               -1370.2080156713661836
    Two-Electron Energy =                 547.9446159489331194
    Total Energy =                       -418.4334876715350902
  Basis Set: (AUG-CC-PVTZ AUX)
    Blend: AUG-CC-PVTZ-RI
    Molecular point group: c1

    Geometry (in Angstrom), charge = 0, multiplicity = 1:

       Center              X                  Y                   Z               Mass
    ------------   -----------------  -----------------  -----------------  -----------------
         O           -2.243640410115    -1.108602446294    -0.000326503420    15.994914619570
         O           -2.277187410115     1.154152553706     0.000038496580    15.994914619570
         C           -0.157891410115     0.018056553706    -0.000012503420    12.000000000000
         C            0.568622589885     1.214941553706    -0.000155503420    12.000000000000
         C            0.506691589885    -1.214913446294     0.000228496580    12.000000000000
         C            1.961269589885     1.177512553706    -0.000078503420    12.000000000000
         C            1.901017589885    -1.241738446294     0.000314496580    12.000000000000
         C            2.629832589885    -0.049788446294     0.000160496580    12.000000000000
         C           -1.839260610115     0.124656253706    -0.000091903420    12.000000000000
         H            0.027929589885     2.157207553706    -0.000322503420     1.007825032230
         H           -0.064568410115    -2.137831446294     0.000338496580     1.007825032230
         H            2.527145589885     2.105766553706    -0.000200503420     1.007825032230
         H            2.421221589885    -2.196389446294     0.000509496580     1.007825032230
         H            3.716892589885    -0.077344446294     0.000225496580     1.007825032230
         H           -3.204195410115    -0.916364446294    -0.000326503420     1.007825032230

  Basis Set: AUG-CC-PVTZ
    Blend: AUG-CC-PVTZ
  Basis Set: (AUG-CC-PVTZ AUX)
    Blend: AUG-CC-PVTZ-JKFIT
	 Reference Energy          =    -418.4334876715351470 [Eh]
	 Singles Energy            =      -0.0000000000000000 [Eh]
	 Same-Spin Energy          =      -0.4336087644965598 [Eh]
	 Opposite-Spin Energy      =      -1.3119201032531329 [Eh]
	 Correlation Energy        =      -1.7455288677496927 [Eh]
	 Total Energy              =    -420.1790165392848166 [Eh]

	 ================> DF-SCS-MP2 Energies <==================
	-----------------------------------------------------------
	 SCS Same-Spin Scale       =       0.3333333333333333 [-]
	 SCS Opposite-Spin Scale   =       1.2000000000000000 [-]
	 SCS Same-Spin Energy      =      -0.1445362548321866 [Eh]
	 SCS Opposite-Spin Energy  =      -1.5743041239037594 [Eh]
	 SCS Correlation Energy    =      -1.7188403787359461 [Eh]
	 SCS Total Energy          =    -420.1523280502710804 [Eh]
	-----------------------------------------------------------

  Dipole Moment: [D]
     X:    -0.4017      Y:    -1.2530      Z:    -0.0002     Total:     1.3159

*** Psi4 exiting successfully. Buy a developer a beer!
