                               Psi4 1.3.2 release

  ==> Input File <==

--------------------------------------------------------------------------
#psi4
#
memory 32 gb

molecule  {
0 1
  O       -2.3042200    -1.0991630    -0.0003290
  O       -2.3377670     1.1635920     0.0000360
  C       -0.2184710     0.0274960    -0.0000150
  C        0.5080430     1.2243810    -0.0001580
  C        0.4461120    -1.2054740     0.0002260
  C        1.9006900     1.1869520    -0.0000810
  C        1.8404380    -1.2322990     0.0003120
  C        2.5692530    -0.0403490     0.0001580
  C       -1.7445905     0.0318133    -0.0001029
  H       -0.0326500     2.1666470    -0.0003250
  H       -0.1251480    -2.1283920     0.0003360
  H        2.4665660     2.1152060    -0.0002030
  H        2.3606420    -2.1869500     0.0005070
  H        3.6563130    -0.0679050     0.0002230
  H       -3.2647750    -0.9069250    -0.0003290
units angstrom
no_reorient  #important for SAPT in psi4, default
symmetry c1  #important for SAPT in psi4, default
}

set PROPERTIES_ORIGIN ["COM"]
properties('MP2/aug-cc-pvtz', properties = ['dipole'])
--------------------------------------------------------------------------

    Molecular point group: c1
  Charge       = 0
  Multiplicity = 1
  Basis Set: AUG-CC-PVTZ
    Blend: AUG-CC-PVTZ
  Basis Set: (AUG-CC-PVTZ AUX)
    Blend: AUG-CC-PVTZ-JKFIT

    Orbital Energies [Eh]
    ---------------------

    Doubly Occupied:

       1A    -20.646594     2A    -20.535375     3A    -11.398495
       4A    -11.259524     5A    -11.255189     6A    -11.254972
       7A    -11.252423     8A    -11.247600     9A    -11.246997
      10A     -1.512041    11A     -1.329111    12A     -1.166311
      13A     -1.044430    14A     -1.028011    15A     -0.910526
      16A     -0.840824    17A     -0.818110    18A     -0.741105
      19A     -0.715809    20A     -0.678821    21A     -0.662720
      22A     -0.636746    23A     -0.624671    24A     -0.600921
      25A     -0.573871    26A     -0.520718    27A     -0.518215
      28A     -0.504837    29A     -0.466972    30A     -0.446898
      31A     -0.352653    32A     -0.347863

  @DF-RHF Final Energy:  -418.45868439814302

   => Energetics <=

    Nuclear Repulsion Energy =            404.1248604373023454
    One-Electron Energy =               -1370.8883811534883534
    Two-Electron Energy =                 548.3048363180429305
    Total Energy =                       -418.4586843981430775
  Basis Set: (AUG-CC-PVTZ AUX)
    Blend: AUG-CC-PVTZ-RI
    Molecular point group: c1

    Geometry (in Angstrom), charge = 0, multiplicity = 1:

       Center              X                  Y                   Z               Mass
    ------------   -----------------  -----------------  -----------------  -----------------
         O           -2.258906270199    -1.098544914411    -0.000325667607    15.994914619570
         O           -2.292453270199     1.164210085589     0.000039332393    15.994914619570
         C           -0.173157270199     0.028114085589    -0.000011667607    12.000000000000
         C            0.553356729801     1.224999085589    -0.000154667607    12.000000000000
         C            0.491425729801    -1.204855914411     0.000229332393    12.000000000000
         C            1.946003729801     1.187570085589    -0.000077667607    12.000000000000
         C            1.885751729801    -1.231680914411     0.000315332393    12.000000000000
         C            2.614566729801    -0.039730914411     0.000161332393    12.000000000000
         C           -1.699276770199     0.032431385589    -0.000099567607    12.000000000000
         H            0.012663729801     2.167265085589    -0.000321667607     1.007825032230
         H           -0.079834270199    -2.127773914411     0.000339332393     1.007825032230
         H            2.511879729801     2.115824085589    -0.000199667607     1.007825032230
         H            2.405955729801    -2.186331914411     0.000510332393     1.007825032230
         H            3.701626729801    -0.067286914411     0.000226332393     1.007825032230
         H           -3.219461270199    -0.906306914411    -0.000325667607     1.007825032230

  Basis Set: AUG-CC-PVTZ
    Blend: AUG-CC-PVTZ
  Basis Set: (AUG-CC-PVTZ AUX)
    Blend: AUG-CC-PVTZ-JKFIT
	 Reference Energy          =    -418.4586843981430206 [Eh]
	 Singles Energy            =      -0.0000000000000000 [Eh]
	 Same-Spin Energy          =      -0.4353161625273761 [Eh]
	 Opposite-Spin Energy      =      -1.3155351358577461 [Eh]
	 Correlation Energy        =      -1.7508512983851223 [Eh]
	 Total Energy              =    -420.2095356965281212 [Eh]

	 ================> DF-SCS-MP2 Energies <==================
	-----------------------------------------------------------
	 SCS Same-Spin Scale       =       0.3333333333333333 [-]
	 SCS Opposite-Spin Scale   =       1.2000000000000000 [-]
	 SCS Same-Spin Energy      =      -0.1451053875091254 [Eh]
	 SCS Opposite-Spin Energy  =      -1.5786421630292953 [Eh]
	 SCS Correlation Energy    =      -1.7237475505384205 [Eh]
	 SCS Total Energy          =    -420.1824319486814261 [Eh]
	-----------------------------------------------------------

  Dipole Moment: [D]
     X:     1.0075      Y:    -2.0021      Z:    -0.0002     Total:     2.2413

*** Psi4 exiting successfully. Buy a developer a beer!
