                               Psi4 1.3.2 release

  ==> Input File <==

--------------------------------------------------------------------------
#psi4
#
memory 32 gb

molecule  {
0 1
  O       -2.3042200    -1.0991630    -0.0003290
  O       -2.3377670     1.1635920     0.0000360
  C       -0.2184710     0.0274960    -0.0000150
  C        0.5080430     1.2243810    -0.0001580
  C        0.4461120    -1.2054740     0.0002260
  C        1.9006900     1.1869520    -0.0000810
  C        1.8404380    -1.2322990     0.0003120
  C        2.5692530    -0.0403490     0.0001580
  C       -1.7432074     0.1417760    -0.0000829
  H       -0.0326500     2.1666470    -0.0003250
  H       -0.1251480    -2.1283920     0.0003360
  H        2.4665660     2.1152060    -0.0002030
  H        2.3606420    -2.1869500     0.0005070
  H        3.6563130    -0.0679050     0.0002230
  H       -3.2647750    -0.9069250    -0.0003290
units angstrom
no_reorient  #important for SAPT in psi4, default
symmetry c1  #important for SAPT in psi4, default
}

set PROPERTIES_ORIGIN ["COM"]
properties('MP2/aug-cc-pvtz', properties = ['dipole'])
--------------------------------------------------------------------------

    Molecular point group: c1
  Charge       = 0
  Multiplicity = 1
  Basis Set: AUG-CC-PVTZ
    Blend: AUG-CC-PVTZ
  Basis Set: (AUG-CC-PVTZ AUX)
    Blend: AUG-CC-PVTZ-JKFIT

    Orbital Energies [Eh]
    ---------------------

    Doubly Occupied:

       1A    -20.618307     2A    -20.557602     3A    -11.393200
       4A    -11.258367     5A    -11.254920     6A    -11.254720
       7A    -11.251762     8A    -11.247518     9A    -11.246694
      10A     -1.473259    11A     -1.378885    12A     -1.166046
      13A     -1.042552    14A     -1.028089    15A     -0.891156
      16A     -0.841203    17A     -0.798735    18A     -0.730763
      19A     -0.710303    20A     -0.675863    21A     -0.640134
      22A     -0.639930    23A     -0.629041    24A     -0.603196
      25A     -0.587565    26A     -0.528284    27A     -0.517031
      28A     -0.506126    29A     -0.496967    30A     -0.458448
      31A     -0.352972    32A     -0.348292

  @DF-RHF Final Energy:  -418.47298171677983

   => Energetics <=

    Nuclear Repulsion Energy =            404.1562298698399331
    One-Electron Energy =               -1371.0025648832920524
    Two-Electron Energy =                 548.3733532966722350
    Total Energy =                       -418.4729817167798274
  Basis Set: (AUG-CC-PVTZ AUX)
    Blend: AUG-CC-PVTZ-RI
    Molecular point group: c1

    Geometry (in Angstrom), charge = 0, multiplicity = 1:

       Center              X                  Y                   Z               Mass
    ------------   -----------------  -----------------  -----------------  -----------------
         O           -2.259042271822    -1.109357657964    -0.000327634227    15.994914619570
         O           -2.292589271822     1.153397342036     0.000037365773    15.994914619570
         C           -0.173293271822     0.017301342036    -0.000013634227    12.000000000000
         C            0.553220728178     1.214186342036    -0.000156634227    12.000000000000
         C            0.491289728178    -1.215668657964     0.000227365773    12.000000000000
         C            1.945867728178     1.176757342036    -0.000079634227    12.000000000000
         C            1.885615728178    -1.242493657964     0.000313365773    12.000000000000
         C            2.614430728178    -0.050543657964     0.000159365773    12.000000000000
         C           -1.698029671822     0.131581342036    -0.000081534227    12.000000000000
         H            0.012527728178     2.156452342036    -0.000323634227     1.007825032230
         H           -0.079970271822    -2.138586657964     0.000337365773     1.007825032230
         H            2.511743728178     2.105011342036    -0.000201634227     1.007825032230
         H            2.405819728178    -2.197144657964     0.000508365773     1.007825032230
         H            3.701490728178    -0.078099657964     0.000224365773     1.007825032230
         H           -3.219597271822    -0.917119657964    -0.000327634227     1.007825032230

  Basis Set: AUG-CC-PVTZ
    Blend: AUG-CC-PVTZ
  Basis Set: (AUG-CC-PVTZ AUX)
    Blend: AUG-CC-PVTZ-JKFIT
	 Reference Energy          =    -418.4729817167798274 [Eh]
	 Singles Energy            =      -0.0000000000000000 [Eh]
	 Same-Spin Energy          =      -0.4339891487143689 [Eh]
	 Opposite-Spin Energy      =      -1.3135673833053207 [Eh]
	 Correlation Energy        =      -1.7475565320196895 [Eh]
	 Total Energy              =    -420.2205382487995280 [Eh]

	 ================> DF-SCS-MP2 Energies <==================
	-----------------------------------------------------------
	 SCS Same-Spin Scale       =       0.3333333333333333 [-]
	 SCS Opposite-Spin Scale   =       1.2000000000000000 [-]
	 SCS Same-Spin Energy      =      -0.1446630495714563 [Eh]
	 SCS Opposite-Spin Energy  =      -1.5762808599663849 [Eh]
	 SCS Correlation Energy    =      -1.7209439095378412 [Eh]
	 SCS Total Energy          =    -420.1939256263176503 [Eh]
	-----------------------------------------------------------

  Dipole Moment: [D]
     X:     1.0891      Y:    -1.1836      Z:    -0.0001     Total:     1.6084

*** Psi4 exiting successfully. Buy a developer a beer!
