                               Psi4 1.3.2 release

  ==> Input File <==

--------------------------------------------------------------------------
#psi4
#
memory 32 gb

molecule  {
0 1
  O       -2.1733235    -1.1556094    -0.0003311
  O       -2.3377670     1.1635920     0.0000360
  C       -0.2184710     0.0274960    -0.0000150
  C        0.5080430     1.2243810    -0.0001580
  C        0.4461120    -1.2054740     0.0002260
  C        1.9006900     1.1869520    -0.0000810
  C        1.8404380    -1.2322990     0.0003120
  C        2.5692530    -0.0403490     0.0001580
  C       -1.7002410     0.1214410    -0.0000850
  H       -0.0326500     2.1666470    -0.0003250
  H       -0.1251480    -2.1283920     0.0003360
  H        2.4665660     2.1152060    -0.0002030
  H        2.3606420    -2.1869500     0.0005070
  H        3.6563130    -0.0679050     0.0002230
  H       -3.2647750    -0.9069250    -0.0003290
units angstrom
no_reorient  #important for SAPT in psi4, default
symmetry c1  #important for SAPT in psi4, default
}

set PROPERTIES_ORIGIN ["COM"]
properties('MP2/aug-cc-pvtz', properties = ['dipole'])
--------------------------------------------------------------------------

    Molecular point group: c1
  Charge       = 0
  Multiplicity = 1
  Basis Set: AUG-CC-PVTZ
    Blend: AUG-CC-PVTZ
  Basis Set: (AUG-CC-PVTZ AUX)
    Blend: AUG-CC-PVTZ-JKFIT

    Orbital Energies [Eh]
    ---------------------

    Doubly Occupied:

       1A    -20.632971     2A    -20.557158     3A    -11.396026
       4A    -11.256046     5A    -11.255409     6A    -11.253135
       7A    -11.251888     8A    -11.247331     9A    -11.246399
      10A     -1.451388    11A     -1.357848    12A     -1.166935
      13A     -1.045920    14A     -1.028322    15A     -0.889794
      16A     -0.841284    17A     -0.786403    18A     -0.730342
      19A     -0.693882    20A     -0.672679    21A     -0.637300
      22A     -0.634533    23A     -0.626408    24A     -0.602716
      25A     -0.576216    26A     -0.526754    27A     -0.515770
      28A     -0.506025    29A     -0.489403    30A     -0.458940
      31A     -0.353316    32A     -0.348261

  @DF-RHF Final Energy:  -418.44402568442695

   => Energetics <=

    Nuclear Repulsion Energy =            404.8737133687947107
    One-Electron Energy =               -1372.5618772408099630
    Two-Electron Energy =                 549.2441381875883053
    Total Energy =                       -418.4440256844269470
  Basis Set: (AUG-CC-PVTZ AUX)
    Blend: AUG-CC-PVTZ-RI
    Molecular point group: c1

    Geometry (in Angstrom), charge = 0, multiplicity = 1:

       Center              X                  Y                   Z               Mass
    ------------   -----------------  -----------------  -----------------  -----------------
         O           -2.149526827219    -1.156406273510    -0.000329252492    15.994914619570
         O           -2.313970327219     1.162795126490     0.000037847508    15.994914619570
         C           -0.194674327219     0.026699126490    -0.000013152492    12.000000000000
         C            0.531839672781     1.223584126490    -0.000156152492    12.000000000000
         C            0.469908672781    -1.206270873510     0.000227847508    12.000000000000
         C            1.924486672781     1.186155126490    -0.000079152492    12.000000000000
         C            1.864234672781    -1.233095873510     0.000313847508    12.000000000000
         C            2.593049672781    -0.041145873510     0.000159847508    12.000000000000
         C           -1.676444327219     0.120644126490    -0.000083152492    12.000000000000
         H           -0.008853327219     2.165850126490    -0.000323152492     1.007825032230
         H           -0.101351327219    -2.129188873510     0.000337847508     1.007825032230
         H            2.490362672781     2.114409126490    -0.000201152492     1.007825032230
         H            2.384438672781    -2.187746873510     0.000508847508     1.007825032230
         H            3.680109672781    -0.068701873510     0.000224847508     1.007825032230
         H           -3.240978327219    -0.907721873510    -0.000327152492     1.007825032230

  Basis Set: AUG-CC-PVTZ
    Blend: AUG-CC-PVTZ
  Basis Set: (AUG-CC-PVTZ AUX)
    Blend: AUG-CC-PVTZ-JKFIT
	 Reference Energy          =    -418.4440256844269470 [Eh]
	 Singles Energy            =      -0.0000000000000000 [Eh]
	 Same-Spin Energy          =      -0.4380682656076588 [Eh]
	 Opposite-Spin Energy      =      -1.3222338979450861 [Eh]
	 Correlation Energy        =      -1.7603021635527449 [Eh]
	 Total Energy              =    -420.2043278479796982 [Eh]

	 ================> DF-SCS-MP2 Energies <==================
	-----------------------------------------------------------
	 SCS Same-Spin Scale       =       0.3333333333333333 [-]
	 SCS Opposite-Spin Scale   =       1.2000000000000000 [-]
	 SCS Same-Spin Energy      =      -0.1460227552025529 [Eh]
	 SCS Opposite-Spin Energy  =      -1.5866806775341031 [Eh]
	 SCS Correlation Energy    =      -1.7327034327366562 [Eh]
	 SCS Total Energy          =    -420.1767291171636316 [Eh]
	-----------------------------------------------------------

  Dipole Moment: [D]
     X:     1.1208      Y:    -1.3127      Z:    -0.0001     Total:     1.7261

*** Psi4 exiting successfully. Buy a developer a beer!
