                               Psi4 1.3.2 release

  ==> Input File <==

--------------------------------------------------------------------------
#psi4
#
memory 32 gb

molecule  {
0 1
  O       -2.3042200    -1.0991630    -0.0003290
  O       -2.3377670     1.1635920     0.0000360
  C       -0.2184710     0.0274960    -0.0000150
  C        0.5080430     1.2243810    -0.0001580
  C        0.4461120    -1.2054740     0.0002260
  C        1.9006900     1.1869520    -0.0000810
  C        1.8404380    -1.2322990     0.0003120
  C        2.5692530    -0.0403490     0.0001580
  C       -1.7524251     0.2067453    -0.0000751
  H       -0.0326500     2.1666470    -0.0003250
  H       -0.1251480    -2.1283920     0.0003360
  H        2.4665660     2.1152060    -0.0002030
  H        2.3606420    -2.1869500     0.0005070
  H        3.6563130    -0.0679050     0.0002230
  H       -3.2647750    -0.9069250    -0.0003290
units angstrom
no_reorient  #important for SAPT in psi4, default
symmetry c1  #important for SAPT in psi4, default
}

set PROPERTIES_ORIGIN ["COM"]
properties('MP2/aug-cc-pvtz', properties = ['dipole'])
--------------------------------------------------------------------------

    Molecular point group: c1
  Charge       = 0
  Multiplicity = 1
  Basis Set: AUG-CC-PVTZ
    Blend: AUG-CC-PVTZ
  Basis Set: (AUG-CC-PVTZ AUX)
    Blend: AUG-CC-PVTZ-JKFIT

    Orbital Energies [Eh]
    ---------------------

    Doubly Occupied:

       1A    -20.601677     2A    -20.570967     3A    -11.389032
       4A    -11.258298     5A    -11.254019     6A    -11.253588
       7A    -11.250652     8A    -11.246962     9A    -11.246053
      10A     -1.496024    11A     -1.377751    12A     -1.164935
      13A     -1.040194    14A     -1.027285    15A     -0.882067
      16A     -0.840404    17A     -0.789383    18A     -0.731775
      19A     -0.713328    20A     -0.676958    21A     -0.644656
      22A     -0.642826    23A     -0.629295    24A     -0.603674
      25A     -0.587647    26A     -0.532368    27A     -0.514320
      28A     -0.508764    29A     -0.506041    30A     -0.456247
      31A     -0.352448    32A     -0.347735

  @DF-RHF Final Energy:  -418.46058532752124

   => Energetics <=

    Nuclear Repulsion Energy =            404.3169832398663175
    One-Electron Energy =               -1371.2803939725142754
    Two-Electron Energy =                 548.5028254051267140
    Total Energy =                       -418.4605853275212439
  Basis Set: (AUG-CC-PVTZ AUX)
    Blend: AUG-CC-PVTZ-RI
    Molecular point group: c1

    Geometry (in Angstrom), charge = 0, multiplicity = 1:

       Center              X                  Y                   Z               Mass
    ------------   -----------------  -----------------  -----------------  -----------------
         O           -2.258135886054    -1.115746154970    -0.000328401209    15.994914619570
         O           -2.291682886054     1.147008845030     0.000036598791    15.994914619570
         C           -0.172386886054     0.010912845030    -0.000014401209    12.000000000000
         C            0.554127113946     1.207797845030    -0.000157401209    12.000000000000
         C            0.492196113946    -1.222057154970     0.000226598791    12.000000000000
         C            1.946774113946     1.170368845030    -0.000080401209    12.000000000000
         C            1.886522113946    -1.248882154970     0.000312598791    12.000000000000
         C            2.615337113946    -0.056932154970     0.000158598791    12.000000000000
         C           -1.706340986054     0.190162145030    -0.000074501209    12.000000000000
         H            0.013434113946     2.150063845030    -0.000324401209     1.007825032230
         H           -0.079063886054    -2.144975154970     0.000336598791     1.007825032230
         H            2.512650113946     2.098622845030    -0.000202401209     1.007825032230
         H            2.406726113946    -2.203533154970     0.000507598791     1.007825032230
         H            3.702397113946    -0.084488154970     0.000223598791     1.007825032230
         H           -3.218690886054    -0.923508154970    -0.000328401209     1.007825032230

  Basis Set: AUG-CC-PVTZ
    Blend: AUG-CC-PVTZ
  Basis Set: (AUG-CC-PVTZ AUX)
    Blend: AUG-CC-PVTZ-JKFIT
	 Reference Energy          =    -418.4605853275212439 [Eh]
	 Singles Energy            =      -0.0000000000000000 [Eh]
	 Same-Spin Energy          =      -0.4332485422038242 [Eh]
	 Opposite-Spin Energy      =      -1.3123746567436800 [Eh]
	 Correlation Energy        =      -1.7456231989475042 [Eh]
	 Total Energy              =    -420.2062085264687425 [Eh]

	 ================> DF-SCS-MP2 Energies <==================
	-----------------------------------------------------------
	 SCS Same-Spin Scale       =       0.3333333333333333 [-]
	 SCS Opposite-Spin Scale   =       1.2000000000000000 [-]
	 SCS Same-Spin Energy      =      -0.1444161807346080 [Eh]
	 SCS Opposite-Spin Energy  =      -1.5748495880924160 [Eh]
	 SCS Correlation Energy    =      -1.7192657688270241 [Eh]
	 SCS Total Energy          =    -420.1798510963482727 [Eh]
	-----------------------------------------------------------

  Dipole Moment: [D]
     X:     1.0528      Y:    -0.6676      Z:     0.0000     Total:     1.2466

*** Psi4 exiting successfully. Buy a developer a beer!
