                               Psi4 1.4a3.dev225

  ==> Input File <==

--------------------------------------------------------------------------
#psi4
#
memory 32 gb

molecule  {
0 1
  O       -2.3041980    -1.0991920    -0.0000450
  O       -2.3377760     1.1635870    -0.0002980
  C       -0.2184880     0.0275040    -0.0000190
  C        0.5080600     1.2243720    -0.0001140
  C        0.4460610    -1.2054670     0.0001810
  C        1.9006990     1.1869660    -0.0000100
  C        1.8403900    -1.2323150     0.0002850
  C        2.5692320    -0.0403680     0.0001900
  C       -1.7001850     0.1214900    -0.0001360
  H       -0.0325870     2.1666660    -0.0002690
  H       -0.1251250    -2.1284350     0.0002540
  H        2.4666520     2.1151670    -0.0000840
  H        2.3606240    -2.1869430     0.0004410
  H        3.6562990    -0.0679320     0.0002710
  H       -3.2842913    -0.9028393    -0.0001358
units angstrom
no_reorient  #important for SAPT in psi4, default
symmetry c1  #important for SAPT in psi4, default
}

set PROPERTIES_ORIGIN ["COM"]
properties('MP2/aug-cc-pvtz', properties = ['dipole'])
--------------------------------------------------------------------------

    Molecular point group: c1
  Charge       = 0
  Multiplicity = 1
  Basis Set: AUG-CC-PVTZ
    Blend: AUG-CC-PVTZ
  Basis Set: (AUG-CC-PVTZ AUX)
    Blend: AUG-CC-PVTZ-JKFIT

    Orbital Energies [Eh]
    ---------------------

    Doubly Occupied:

       1A    -20.618392     2A    -20.549500     3A    -11.394208
       4A    -11.259607     5A    -11.258877     6A    -11.258440
       7A    -11.255762     8A    -11.249983     9A    -11.249147
      10A     -1.458148    11A     -1.354260    12A     -1.170452
      13A     -1.050220    14A     -1.031248    15A     -0.897979
      16A     -0.844671    17A     -0.799227    18A     -0.730213
      19A     -0.702917    20A     -0.675800    21A     -0.640330
      22A     -0.631952    23A     -0.626881    24A     -0.604682
      25A     -0.585691    26A     -0.527803    27A     -0.519117
      28A     -0.508799    29A     -0.483830    30A     -0.457748
      31A     -0.356338    32A     -0.350934

  @DF-RHF Final Energy:  -418.47134392656676

   => Energetics <=

    Nuclear Repulsion Energy =            404.1123803726511596
    One-Electron Energy =               -1370.9611351188796107
    Two-Electron Energy =                 548.3774108196616908
    Total Energy =                       -418.4713439265667603
  Basis Set: (AUG-CC-PVTZ AUX)
    Blend: AUG-CC-PVTZ-RI
    Molecular point group: c1

    Geometry (in Angstrom), charge = 0, multiplicity = 1:

       Center              X                  Y                   Z               Mass
    ------------   -----------------  -----------------  -----------------  -----------------
         O           -2.263081480386    -1.107419039620    -0.000041055930    15.994914619570
         O           -2.296659480386     1.155359960380    -0.000294055930    15.994914619570
         C           -0.177371480386     0.019276960380    -0.000015055930    12.000000000000
         C            0.549176519614     1.216144960380    -0.000110055930    12.000000000000
         C            0.487177519614    -1.213694039620     0.000184944070    12.000000000000
         C            1.941815519614     1.178738960380    -0.000006055930    12.000000000000
         C            1.881506519614    -1.240542039620     0.000288944070    12.000000000000
         C            2.610348519614    -0.048595039620     0.000193944070    12.000000000000
         C           -1.659068480386     0.113262960380    -0.000132055930    12.000000000000
         H            0.008529519614     2.158438960380    -0.000265055930     1.007825032230
         H           -0.084008480386    -2.136662039620     0.000257944070     1.007825032230
         H            2.507768519614     2.106939960380    -0.000080055930     1.007825032230
         H            2.401740519614    -2.195170039620     0.000444944070     1.007825032230
         H            3.697415519614    -0.076159039620     0.000274944070     1.007825032230
         H           -3.243174780386    -0.911066339620    -0.000131855930     1.007825032230

  Basis Set: AUG-CC-PVTZ
    Blend: AUG-CC-PVTZ
  Basis Set: (AUG-CC-PVTZ AUX)
    Blend: AUG-CC-PVTZ-JKFIT
	 Reference Energy          =    -418.4713439265667603 [Eh]
	 Singles Energy            =      -0.0000000000000000 [Eh]
	 Same-Spin Energy          =      -0.4350944320758520 [Eh]
	 Opposite-Spin Energy      =      -1.3159377939307473 [Eh]
	 Correlation Energy        =      -1.7510322260065991 [Eh]
	 Total Energy              =    -420.2223761525733607 [Eh]

	 ================> DF-SCS-MP2 Energies <==================
	-----------------------------------------------------------
	 SCS Same-Spin Scale       =       0.3333333333333333 [-]
	 SCS Opposite-Spin Scale   =       1.2000000000000000 [-]
	 SCS Same-Spin Energy      =      -0.1450314773586173 [Eh]
	 SCS Opposite-Spin Energy  =      -1.5791253527168967 [Eh]
	 SCS Correlation Energy    =      -1.7241568300755139 [Eh]
	 SCS Total Energy          =    -420.1955007566422751 [Eh]
	-----------------------------------------------------------

  Dipole Moment: [D]
     X:     1.4429      Y:    -1.3208      Z:     0.0003     Total:     1.9561

*** Psi4 exiting successfully. Buy a developer a beer!
