                               Psi4 1.4a3.dev225

  ==> Input File <==

--------------------------------------------------------------------------
#psi4
#
memory 32 gb

molecule  {
0 1
  O       -2.3041980    -1.0991920    -0.0000450
  O       -2.3377760     1.1635870    -0.0002980
  C       -0.2184880     0.0275040    -0.0000190
  C        0.5080600     1.2243720    -0.0001140
  C        0.4460610    -1.2054670     0.0001810
  C        1.9006990     1.1869660    -0.0000100
  C        1.8403900    -1.2323150     0.0002850
  C        2.5692320    -0.0403680     0.0001900
  C       -1.7262800     0.1641404    -0.0001426
  H       -0.0325870     2.1666660    -0.0002690
  H       -0.1251250    -2.1284350     0.0002540
  H        2.4666520     2.1151670    -0.0000840
  H        2.3606240    -2.1869430     0.0004410
  H        3.6562990    -0.0679320     0.0002710
  H       -3.2646810    -0.9067680    -0.0001340
units angstrom
no_reorient  #important for SAPT in psi4, default
symmetry c1  #important for SAPT in psi4, default
}

set PROPERTIES_ORIGIN ["COM"]
properties('MP2/aug-cc-pvtz', properties = ['dipole'])
--------------------------------------------------------------------------

    Molecular point group: c1
  Charge       = 0
  Multiplicity = 1
  Basis Set: AUG-CC-PVTZ
    Blend: AUG-CC-PVTZ
  Basis Set: (AUG-CC-PVTZ AUX)
    Blend: AUG-CC-PVTZ-JKFIT

    Orbital Energies [Eh]
    ---------------------

    Doubly Occupied:

       1A    -20.609802     2A    -20.560489     3A    -11.392108
       4A    -11.258876     5A    -11.256488     6A    -11.256224
       7A    -11.253211     8A    -11.248526     9A    -11.247632
      10A     -1.469596    11A     -1.374587    12A     -1.167737
      13A     -1.045241    14A     -1.029337    15A     -0.890875
      16A     -0.842671    17A     -0.794936    18A     -0.729272
      19A     -0.708240    20A     -0.675497    21A     -0.641192
      22A     -0.635329    23A     -0.629286    24A     -0.604393
      25A     -0.588798    26A     -0.529815    27A     -0.516875
      28A     -0.507506    29A     -0.498482    30A     -0.459625
      31A     -0.354541    32A     -0.349411

  @DF-RHF Final Energy:  -418.47204915109978

   => Energetics <=

    Nuclear Repulsion Energy =            404.2374529450855789
    One-Electron Energy =               -1371.1658015224390965
    Two-Electron Energy =                 548.4562994262537359
    Total Energy =                       -418.4720491510997817
  Basis Set: (AUG-CC-PVTZ AUX)
    Blend: AUG-CC-PVTZ-RI
    Molecular point group: c1

    Geometry (in Angstrom), charge = 0, multiplicity = 1:

       Center              X                  Y                   Z               Mass
    ------------   -----------------  -----------------  -----------------  -----------------
         O           -2.260677481770    -1.111580451943    -0.000040421810    15.994914619570
         O           -2.294255481770     1.151198548057    -0.000293421810    15.994914619570
         C           -0.174967481770     0.015115548057    -0.000014421810    12.000000000000
         C            0.551580518230     1.211983548057    -0.000109421810    12.000000000000
         C            0.489581518230    -1.217855451943     0.000185578190    12.000000000000
         C            1.944219518230     1.174577548057    -0.000005421810    12.000000000000
         C            1.883910518230    -1.244703451943     0.000289578190    12.000000000000
         C            2.612752518230    -0.052756451943     0.000194578190    12.000000000000
         C           -1.682759481770     0.151751948057    -0.000138021810    12.000000000000
         H            0.010933518230     2.154277548057    -0.000264421810     1.007825032230
         H           -0.081604481770    -2.140823451943     0.000258578190     1.007825032230
         H            2.510172518230     2.102778548057    -0.000079421810     1.007825032230
         H            2.404144518230    -2.199331451943     0.000445578190     1.007825032230
         H            3.699819518230    -0.080320451943     0.000275578190     1.007825032230
         H           -3.221160481770    -0.919156451943    -0.000129421810     1.007825032230

  Basis Set: AUG-CC-PVTZ
    Blend: AUG-CC-PVTZ
  Basis Set: (AUG-CC-PVTZ AUX)
    Blend: AUG-CC-PVTZ-JKFIT
	 Reference Energy          =    -418.4720491510997817 [Eh]
	 Singles Energy            =      -0.0000000000000000 [Eh]
	 Same-Spin Energy          =      -0.4339837398214964 [Eh]
	 Opposite-Spin Energy      =      -1.3137453256601976 [Eh]
	 Correlation Energy        =      -1.7477290654816939 [Eh]
	 Total Energy              =    -420.2197782165814601 [Eh]

	 ================> DF-SCS-MP2 Energies <==================
	-----------------------------------------------------------
	 SCS Same-Spin Scale       =       0.3333333333333333 [-]
	 SCS Opposite-Spin Scale   =       1.2000000000000000 [-]
	 SCS Same-Spin Energy      =      -0.1446612466071655 [Eh]
	 SCS Opposite-Spin Energy  =      -1.5764943907922371 [Eh]
	 SCS Correlation Energy    =      -1.7211556373994026 [Eh]
	 SCS Total Energy          =    -420.1932047884992016 [Eh]
	-----------------------------------------------------------

  Dipole Moment: [D]
     X:     1.2665      Y:    -1.0050      Z:     0.0002     Total:     1.6168

*** Psi4 exiting successfully. Buy a developer a beer!
