                               Psi4 1.3.2 release

  ==> Input File <==

--------------------------------------------------------------------------
#psi4
#
memory 32 gb

molecule  {
0 1
  O       -2.3042200    -1.0991630    -0.0003290
  O       -2.3377670     1.1635920     0.0000360
  C       -0.2184710     0.0274960    -0.0000150
  C        0.5080430     1.2243810    -0.0001580
  C        0.4461120    -1.2054740     0.0002260
  C        1.9006900     1.1869520    -0.0000810
  C        1.8404380    -1.2322990     0.0003120
  C        2.5692530    -0.0403490     0.0001580
  C       -1.5006418     0.1087863    -0.0000756
  H       -0.0326500     2.1666470    -0.0003250
  H       -0.1251480    -2.1283920     0.0003360
  H        2.4665660     2.1152060    -0.0002030
  H        2.3606420    -2.1869500     0.0005070
  H        3.6563130    -0.0679050     0.0002230
  H       -3.2647750    -0.9069250    -0.0003290
units angstrom
no_reorient  #important for SAPT in psi4, default
symmetry c1  #important for SAPT in psi4, default
}

set PROPERTIES_ORIGIN ["COM"]
properties('MP2/aug-cc-pvtz', properties = ['dipole'])
--------------------------------------------------------------------------

    Molecular point group: c1
  Charge       = 0
  Multiplicity = 1
  Basis Set: AUG-CC-PVTZ
    Blend: AUG-CC-PVTZ
  Basis Set: (AUG-CC-PVTZ AUX)
    Blend: AUG-CC-PVTZ-JKFIT

    Orbital Energies [Eh]
    ---------------------

    Doubly Occupied:

       1A    -20.586881     2A    -20.524089     3A    -11.390643
       4A    -11.283738     5A    -11.282526     6A    -11.279448
       7A    -11.263792     8A    -11.262793     9A    -11.252771
      10A     -1.394177    11A     -1.272092    12A     -1.196526
      13A     -1.095582    14A     -1.049186    15A     -0.934187
      16A     -0.864941    17A     -0.798470    18A     -0.732889
      19A     -0.703386    20A     -0.665012    21A     -0.644577
      22A     -0.627546    23A     -0.617721    24A     -0.600798
      25A     -0.558754    26A     -0.544155    27A     -0.525392
      28A     -0.518308    29A     -0.448090    30A     -0.427626
      31A     -0.369783    32A     -0.365307

  @DF-RHF Final Energy:  -418.39685516011536

   => Energetics <=

    Nuclear Repulsion Energy =            405.0913290428207461
    One-Electron Energy =               -1372.8140024564240775
    Two-Electron Energy =                 549.3258182534880234
    Total Energy =                       -418.3968551601153649
  Basis Set: (AUG-CC-PVTZ AUX)
    Blend: AUG-CC-PVTZ-RI
    Molecular point group: c1

    Geometry (in Angstrom), charge = 0, multiplicity = 1:

       Center              X                  Y                   Z               Mass
    ------------   -----------------  -----------------  -----------------  -----------------
         O           -2.282893992701    -1.106113747384    -0.000328352043    15.994914619570
         O           -2.316440992701     1.156641252616     0.000036647957    15.994914619570
         C           -0.197144992701     0.020545252616    -0.000014352043    12.000000000000
         C            0.529369007299     1.217430252616    -0.000157352043    12.000000000000
         C            0.467438007299    -1.212424747384     0.000226647957    12.000000000000
         C            1.922016007299     1.180001252616    -0.000080352043    12.000000000000
         C            1.861764007299    -1.239249747384     0.000312647957    12.000000000000
         C            2.590579007299    -0.047299747384     0.000158647957    12.000000000000
         C           -1.479315792701     0.101835552616    -0.000074952043    12.000000000000
         H           -0.011323992701     2.159696252616    -0.000324352043     1.007825032230
         H           -0.103821992701    -2.135342747384     0.000336647957     1.007825032230
         H            2.487892007299     2.108255252616    -0.000202352043     1.007825032230
         H            2.381968007299    -2.193900747384     0.000507647957     1.007825032230
         H            3.677639007299    -0.074855747384     0.000223647957     1.007825032230
         H           -3.243448992701    -0.913875747384    -0.000328352043     1.007825032230

  Basis Set: AUG-CC-PVTZ
    Blend: AUG-CC-PVTZ
  Basis Set: (AUG-CC-PVTZ AUX)
    Blend: AUG-CC-PVTZ-JKFIT
	 Reference Energy          =    -418.3968551601153649 [Eh]
	 Singles Energy            =      -0.0000000000000000 [Eh]
	 Same-Spin Energy          =      -0.4397584214682455 [Eh]
	 Opposite-Spin Energy      =      -1.3260896111931366 [Eh]
	 Correlation Energy        =      -1.7658480326613821 [Eh]
	 Total Energy              =    -420.1627031927767462 [Eh]

	 ================> DF-SCS-MP2 Energies <==================
	-----------------------------------------------------------
	 SCS Same-Spin Scale       =       0.3333333333333333 [-]
	 SCS Opposite-Spin Scale   =       1.2000000000000000 [-]
	 SCS Same-Spin Energy      =      -0.1465861404894152 [Eh]
	 SCS Opposite-Spin Energy  =      -1.5913075334317639 [Eh]
	 SCS Correlation Energy    =      -1.7378936739211790 [Eh]
	 SCS Total Energy          =    -420.1347488340365430 [Eh]
	-----------------------------------------------------------

  Dipole Moment: [D]
     X:     3.3703      Y:    -1.2374      Z:     0.0001     Total:     3.5903

*** Psi4 exiting successfully. Buy a developer a beer!
